/*--------------------------------*- C++ -*----------------------------------*\
| =========                 |                                                 |
| \\      /  F ield         | OpenFOAM: The Open Source CFD Toolbox           |
|  \\    /   O peration     | Version:  3.0.x                                 |
|   \\  /    A nd           | Web:      www.OpenFOAM.org                      |
|    \\/     M anipulation  |                                                 |
\*---------------------------------------------------------------------------*/
FoamFile
{
    version     2.0;
    format      ascii;
    class       volVectorField;
    location    "0.53";
    object      U;
}
// * * * * * * * * * * * * * * * * * * * * * * * * * * * * * * * * * * * * * //

dimensions      [0 1 -1 0 0 0 0];

internalField   nonuniform List<vector> 
6900
(
(42.64 0.000100265 0)
(42.4949 9.20526e-05 0)
(42.3267 8.99257e-05 0)
(42.1681 9.09604e-05 0)
(42.0165 9.18071e-05 0)
(41.8657 9.23437e-05 0)
(41.7138 9.27494e-05 0)
(41.5613 9.30688e-05 0)
(41.4087 9.33053e-05 0)
(41.2562 9.34755e-05 0)
(41.1036 9.36089e-05 0)
(40.9509 9.37119e-05 0)
(40.7982 9.37922e-05 0)
(40.6454 9.38562e-05 0)
(40.4925 9.39087e-05 0)
(40.3395 9.39526e-05 0)
(40.1863 9.39904e-05 0)
(40.0331 9.40235e-05 0)
(39.8796 9.40535e-05 0)
(39.726 9.4081e-05 0)
(39.5722 9.41066e-05 0)
(39.4181 9.41312e-05 0)
(39.2637 9.41547e-05 0)
(39.109 9.41782e-05 0)
(38.954 9.4201e-05 0)
(38.7986 9.42244e-05 0)
(38.6429 9.42478e-05 0)
(38.4867 9.42715e-05 0)
(38.3301 9.42961e-05 0)
(38.173 9.43215e-05 0)
(38.0155 9.43472e-05 0)
(37.8576 9.43752e-05 0)
(37.6992 9.44032e-05 0)
(37.5403 9.44332e-05 0)
(37.381 9.44647e-05 0)
(37.2212 9.44973e-05 0)
(37.061 9.45332e-05 0)
(36.9004 9.457e-05 0)
(36.7394 9.46105e-05 0)
(36.578 9.46546e-05 0)
(36.4163 9.47005e-05 0)
(36.2543 9.47475e-05 0)
(36.092 9.47963e-05 0)
(35.9295 9.48469e-05 0)
(35.7667 9.49012e-05 0)
(35.6038 9.49607e-05 0)
(35.4407 9.50276e-05 0)
(35.2774 9.51004e-05 0)
(35.114 9.51769e-05 0)
(34.9505 9.52553e-05 0)
(34.787 9.53313e-05 0)
(34.6233 9.54081e-05 0)
(34.4596 9.54836e-05 0)
(34.2958 9.5561e-05 0)
(34.1319 9.56414e-05 0)
(33.9679 9.57238e-05 0)
(33.8039 9.58062e-05 0)
(33.6398 9.5888e-05 0)
(33.4755 9.59687e-05 0)
(33.3112 9.6048e-05 0)
(33.1467 9.61256e-05 0)
(32.982 9.61996e-05 0)
(32.8171 9.62646e-05 0)
(32.6521 9.63112e-05 0)
(32.4868 9.63284e-05 0)
(32.3213 9.6306e-05 0)
(32.1555 9.62338e-05 0)
(31.9894 9.61013e-05 0)
(31.8231 9.58973e-05 0)
(31.6565 9.56088e-05 0)
(31.4895 9.52192e-05 0)
(31.3222 9.47086e-05 0)
(31.1546 9.40547e-05 0)
(30.9867 9.32333e-05 0)
(30.8184 9.22197e-05 0)
(30.6498 9.09898e-05 0)
(30.4809 8.9522e-05 0)
(30.3117 8.77982e-05 0)
(30.1422 8.58044e-05 0)
(29.9724 8.3532e-05 0)
(29.8024 8.09782e-05 0)
(29.6322 7.8147e-05 0)
(29.4617 7.50493e-05 0)
(29.2911 7.1703e-05 0)
(29.1204 6.81332e-05 0)
(28.9495 6.43708e-05 0)
(28.7786 6.04524e-05 0)
(28.6076 5.6419e-05 0)
(28.4367 5.23149e-05 0)
(28.2657 4.81863e-05 0)
(28.0948 4.40796e-05 0)
(27.9239 4.00399e-05 0)
(27.7532 3.61099e-05 0)
(27.5825 3.23282e-05 0)
(27.412 2.87285e-05 0)
(27.2416 2.53388e-05 0)
(27.0713 2.21804e-05 0)
(26.9012 1.92683e-05 0)
(26.7313 1.6611e-05 0)
(26.5615 1.4211e-05 0)
(26.3918 1.20654e-05 0)
(26.2223 1.01666e-05 0)
(26.053 8.50293e-06 0)
(25.8838 7.05934e-06 0)
(25.7147 5.81876e-06 0)
(25.5457 4.76278e-06 0)
(25.3769 3.87243e-06 0)
(25.2082 3.12853e-06 0)
(25.0395 2.51254e-06 0)
(24.871 2.00674e-06 0)
(24.7026 1.59472e-06 0)
(24.5342 1.26149e-06 0)
(24.366 9.93922e-07 0)
(24.1979 7.80439e-07 0)
(24.0298 6.11136e-07 0)
(23.8619 4.77261e-07 0)
(23.694 3.71249e-07 0)
(23.5263 2.86952e-07 0)
(23.3587 2.19352e-07 0)
(23.1913 1.6462e-07 0)
(23.0239 1.19453e-07 0)
(22.8567 8.10979e-08 0)
(22.6897 4.72177e-08 0)
(22.5228 1.49001e-08 0)
(22.3561 -1.55155e-08 0)
(22.1895 -3.68434e-08 0)
(22.0232 -5.77045e-08 0)
(21.857 -7.80328e-08 0)
(21.691 -9.82149e-08 0)
(21.5251 -1.18617e-07 0)
(21.3595 -1.39068e-07 0)
(21.1941 -1.59577e-07 0)
(21.0288 -1.80212e-07 0)
(20.8638 -2.01411e-07 0)
(20.699 -2.23098e-07 0)
(20.5345 -2.45696e-07 0)
(20.3701 -2.68904e-07 0)
(20.206 -2.92566e-07 0)
(20.0422 -3.16639e-07 0)
(19.8786 -3.40848e-07 0)
(19.7153 -3.65512e-07 0)
(19.5523 -3.9098e-07 0)
(19.3896 -4.17106e-07 0)
(19.2273 -4.43796e-07 0)
(19.0652 -4.71325e-07 0)
(18.9035 -4.99568e-07 0)
(18.7422 -5.28431e-07 0)
(18.5813 -5.57802e-07 0)
(18.4208 -5.87557e-07 0)
(18.2607 -6.17545e-07 0)
(18.101 -6.47911e-07 0)
(17.9418 -6.78641e-07 0)
(17.7831 -7.09952e-07 0)
(17.6249 -7.41992e-07 0)
(17.4671 -7.74481e-07 0)
(17.31 -8.07486e-07 0)
(17.1533 -8.4068e-07 0)
(16.9972 -8.73994e-07 0)
(16.8418 -9.07423e-07 0)
(16.6869 -9.41705e-07 0)
(16.5326 -9.76423e-07 0)
(16.3789 -1.01155e-06 0)
(16.2259 -1.0464e-06 0)
(16.0735 -1.08151e-06 0)
(15.9218 -1.11647e-06 0)
(15.7708 -1.15175e-06 0)
(15.6204 -1.18712e-06 0)
(15.4708 -1.22319e-06 0)
(15.3218 -1.25896e-06 0)
(15.1735 -1.29584e-06 0)
(15.026 -1.33135e-06 0)
(14.8791 -1.36893e-06 0)
(14.733 -1.40392e-06 0)
(14.5876 -1.44274e-06 0)
(14.443 -1.47714e-06 0)
(14.2991 -1.51865e-06 0)
(14.1559 -1.55079e-06 0)
(14.0135 -1.59699e-06 0)
(13.8719 -1.62091e-06 0)
(13.731 -1.68005e-06 0)
(13.5909 -1.68438e-06 0)
(13.4516 -1.77678e-06 0)
(13.313 -1.74065e-06 0)
(13.1752 -1.89305e-06 0)
(13.0382 -1.79244e-06 0)
(12.9019 -2.03065e-06 0)
(12.7665 -1.8476e-06 0)
(12.6318 -2.21097e-06 0)
(12.4979 -1.89737e-06 0)
(12.3647 -2.46098e-06 0)
(12.2324 -1.91004e-06 0)
(12.1008 -2.65963e-06 0)
(11.9701 -1.99232e-06 0)
(11.8401 -2.33978e-06 0)
(11.711 -1.04869e-06 0)
(11.5824 7.82183e-06 0)
(11.4531 5.56545e-05 0)
(11.3144 0.000379145 0)
(11.1604 0.00564653 0)
(10.3409 0.0183336 0)
(42.6417 0.000127145 0)
(42.4984 9.83238e-05 0)
(42.332 8.65866e-05 0)
(42.1752 8.60744e-05 0)
(42.0255 8.61304e-05 0)
(41.8764 8.58868e-05 0)
(41.7263 8.57239e-05 0)
(41.5756 8.56446e-05 0)
(41.4249 8.55808e-05 0)
(41.2741 8.55197e-05 0)
(41.1233 8.5481e-05 0)
(40.9725 8.54525e-05 0)
(40.8216 8.54325e-05 0)
(40.6706 8.54206e-05 0)
(40.5195 8.54164e-05 0)
(40.3683 8.54184e-05 0)
(40.217 8.54259e-05 0)
(40.0655 8.54379e-05 0)
(39.9139 8.54542e-05 0)
(39.7621 8.54736e-05 0)
(39.6101 8.54958e-05 0)
(39.4578 8.55208e-05 0)
(39.3052 8.55476e-05 0)
(39.1524 8.55771e-05 0)
(38.9992 8.56074e-05 0)
(38.8456 8.56404e-05 0)
(38.6916 8.56744e-05 0)
(38.5373 8.57099e-05 0)
(38.3825 8.57475e-05 0)
(38.2273 8.57866e-05 0)
(38.0716 8.58263e-05 0)
(37.9154 8.58697e-05 0)
(37.7588 8.59126e-05 0)
(37.6018 8.59585e-05 0)
(37.4443 8.60063e-05 0)
(37.2863 8.60549e-05 0)
(37.1279 8.61078e-05 0)
(36.9691 8.61609e-05 0)
(36.8099 8.62185e-05 0)
(36.6504 8.62802e-05 0)
(36.4905 8.63427e-05 0)
(36.3303 8.64057e-05 0)
(36.1699 8.64701e-05 0)
(36.0092 8.65358e-05 0)
(35.8482 8.66057e-05 0)
(35.6871 8.66818e-05 0)
(35.5258 8.67667e-05 0)
(35.3644 8.68576e-05 0)
(35.2028 8.69519e-05 0)
(35.0412 8.70475e-05 0)
(34.8794 8.71383e-05 0)
(34.7176 8.72303e-05 0)
(34.5557 8.73197e-05 0)
(34.3937 8.74116e-05 0)
(34.2317 8.75068e-05 0)
(34.0696 8.76042e-05 0)
(33.9074 8.77009e-05 0)
(33.7451 8.7797e-05 0)
(33.5827 8.7893e-05 0)
(33.4202 8.79888e-05 0)
(33.2575 8.8085e-05 0)
(33.0947 8.81801e-05 0)
(32.9317 8.82677e-05 0)
(32.7685 8.83372e-05 0)
(32.605 8.83765e-05 0)
(32.4414 8.83759e-05 0)
(32.2774 8.83261e-05 0)
(32.1132 8.82184e-05 0)
(31.9487 8.80436e-05 0)
(31.7839 8.77907e-05 0)
(31.6188 8.74447e-05 0)
(31.4533 8.69871e-05 0)
(31.2875 8.63967e-05 0)
(31.1214 8.565e-05 0)
(30.9549 8.47236e-05 0)
(30.788 8.35945e-05 0)
(30.6208 8.22425e-05 0)
(30.4533 8.06511e-05 0)
(30.2855 7.8808e-05 0)
(30.1173 7.67058e-05 0)
(29.9489 7.4343e-05 0)
(29.7802 7.17242e-05 0)
(29.6112 6.88603e-05 0)
(29.442 6.57692e-05 0)
(29.2726 6.24747e-05 0)
(29.103 5.9006e-05 0)
(28.9332 5.53973e-05 0)
(28.7634 5.16869e-05 0)
(28.5934 4.79159e-05 0)
(28.4234 4.41268e-05 0)
(28.2534 4.0362e-05 0)
(28.0833 3.66629e-05 0)
(27.9132 3.30682e-05 0)
(27.7432 2.96128e-05 0)
(27.5732 2.63271e-05 0)
(27.4033 2.32357e-05 0)
(27.2335 2.03577e-05 0)
(27.0638 1.77056e-05 0)
(26.8942 1.52864e-05 0)
(26.7246 1.31017e-05 0)
(26.5552 1.11483e-05 0)
(26.3859 9.41883e-06 0)
(26.2167 7.90225e-06 0)
(26.0476 6.58463e-06 0)
(25.8786 5.45038e-06 0)
(25.7097 4.4828e-06 0)
(25.5409 3.66484e-06 0)
(25.3722 2.97922e-06 0)
(25.2036 2.40936e-06 0)
(25.0351 1.93926e-06 0)
(24.8666 1.55432e-06 0)
(24.6983 1.24097e-06 0)
(24.53 9.87545e-07 0)
(24.3619 7.83628e-07 0)
(24.1938 6.20417e-07 0)
(24.0258 4.8991e-07 0)
(23.858 3.8521e-07 0)
(23.6902 3.00651e-07 0)
(23.5226 2.31707e-07 0)
(23.3551 1.74849e-07 0)
(23.1877 1.27049e-07 0)
(23.0205 8.55871e-08 0)
(22.8534 4.81311e-08 0)
(22.6865 1.1672e-08 0)
(22.5197 -2.05918e-08 0)
(22.3531 -4.04122e-08 0)
(22.1867 -5.99958e-08 0)
(22.0205 -7.90306e-08 0)
(21.8544 -9.84359e-08 0)
(21.6886 -1.182e-07 0)
(21.5229 -1.37843e-07 0)
(21.3574 -1.57704e-07 0)
(21.1922 -1.77738e-07 0)
(21.0271 -1.98216e-07 0)
(20.8623 -2.19367e-07 0)
(20.6976 -2.41317e-07 0)
(20.5333 -2.64077e-07 0)
(20.3691 -2.87392e-07 0)
(20.2052 -3.11147e-07 0)
(20.0416 -3.35303e-07 0)
(19.8783 -3.6e-07 0)
(19.7152 -3.85768e-07 0)
(19.5525 -4.12344e-07 0)
(19.3901 -4.39906e-07 0)
(19.228 -4.68398e-07 0)
(19.0662 -4.97837e-07 0)
(18.9049 -5.28199e-07 0)
(18.7439 -5.59274e-07 0)
(18.5833 -5.90929e-07 0)
(18.4232 -6.2296e-07 0)
(18.2635 -6.55633e-07 0)
(18.1042 -6.8879e-07 0)
(17.9454 -7.22561e-07 0)
(17.7871 -7.57487e-07 0)
(17.6294 -7.92802e-07 0)
(17.4721 -8.28935e-07 0)
(17.3154 -8.6516e-07 0)
(17.1593 -9.01864e-07 0)
(17.0038 -9.38233e-07 0)
(16.8488 -9.76135e-07 0)
(16.6945 -1.01397e-06 0)
(16.5408 -1.05313e-06 0)
(16.3877 -1.09112e-06 0)
(16.2352 -1.12995e-06 0)
(16.0835 -1.16805e-06 0)
(15.9324 -1.20744e-06 0)
(15.782 -1.24611e-06 0)
(15.6322 -1.28671e-06 0)
(15.4832 -1.32436e-06 0)
(15.3348 -1.36763e-06 0)
(15.1872 -1.40329e-06 0)
(15.0403 -1.4491e-06 0)
(14.8941 -1.481e-06 0)
(14.7487 -1.53198e-06 0)
(14.604 -1.55804e-06 0)
(14.46 -1.62005e-06 0)
(14.3168 -1.63023e-06 0)
(14.1743 -1.71839e-06 0)
(14.0326 -1.68306e-06 0)
(13.8917 -1.84341e-06 0)
(13.7515 -1.688e-06 0)
(13.6121 -2.02546e-06 0)
(13.4734 -1.60785e-06 0)
(13.3356 -2.27947e-06 0)
(13.1985 -1.41018e-06 0)
(13.0622 -2.64877e-06 0)
(12.9266 -9.76369e-07 0)
(12.7918 -3.32233e-06 0)
(12.6578 -9.95743e-08 0)
(12.5246 -4.38677e-06 0)
(12.3922 7.26874e-07 0)
(12.2605 -4.88202e-06 0)
(12.1297 7.63485e-07 0)
(11.9997 -1.99016e-06 0)
(11.8705 1.53277e-05 0)
(11.7418 9.08761e-05 0)
(11.6125 0.000604352 0)
(11.4741 0.00374811 0)
(11.3201 0.0263105 0)
(10.7412 0.0827732 0)
(42.6417 -2.6982e-12 0)
(42.4983 -1.58514e-12 0)
(42.332 -3.6915e-13 0)
(42.1751 -1.35145e-12 0)
(42.0254 -2.50663e-12 0)
(41.8764 -5.43027e-12 0)
(41.7263 -8.63373e-12 0)
(41.5756 -8.86178e-12 0)
(41.4248 -6.02334e-12 0)
(41.2741 -3.26452e-12 0)
(41.1233 -1.21042e-13 0)
(40.9725 -1.08675e-12 0)
(40.8215 -3.079e-12 0)
(40.6705 -5.44335e-12 0)
(40.5194 -8.26769e-12 0)
(40.3683 -1.03818e-11 0)
(40.2169 -1.29277e-11 0)
(40.0655 -1.57788e-11 0)
(39.9139 -1.96496e-11 0)
(39.7621 -2.24611e-11 0)
(39.61 -2.32069e-11 0)
(39.4578 -2.48408e-11 0)
(39.3052 -2.63978e-11 0)
(39.1523 -2.86342e-11 0)
(38.9991 -3.05642e-11 0)
(38.8456 -2.94993e-11 0)
(38.6916 -2.68115e-11 0)
(38.5373 -2.42964e-11 0)
(38.3825 -2.20441e-11 0)
(38.2272 -2.07794e-11 0)
(38.0716 -2.12564e-11 0)
(37.9154 -2.16095e-11 0)
(37.7588 -2.15563e-11 0)
(37.6018 -2.13732e-11 0)
(37.4443 -2.13352e-11 0)
(37.2863 -2.23039e-11 0)
(37.1279 -2.36357e-11 0)
(36.9691 -2.47958e-11 0)
(36.8099 -2.57602e-11 0)
(36.6504 -2.4568e-11 0)
(36.4905 -2.37159e-11 0)
(36.3303 -2.12817e-11 0)
(36.1699 -1.84238e-11 0)
(36.0092 -1.68154e-11 0)
(35.8482 -1.52144e-11 0)
(35.6871 -1.44329e-11 0)
(35.5258 -1.30219e-11 0)
(35.3644 -1.27872e-11 0)
(35.2028 -1.22149e-11 0)
(35.0412 -1.12527e-11 0)
(34.8794 -8.90259e-12 0)
(34.7176 -6.9095e-12 0)
(34.5557 -6.22203e-12 0)
(34.3938 -5.93718e-12 0)
(34.2317 -3.56097e-12 0)
(34.0696 -3.27171e-12 0)
(33.9074 -2.17512e-12 0)
(33.7451 -8.71218e-13 0)
(33.5827 -7.16808e-13 0)
(33.4202 -4.70275e-13 0)
(33.2576 -2.20063e-13 0)
(33.0947 -5.14967e-13 0)
(32.9317 -2.88974e-12 0)
(32.7685 -6.63516e-12 0)
(32.6051 -8.60476e-12 0)
(32.4414 -1.01179e-11 0)
(32.2775 -1.22897e-11 0)
(32.1133 -1.35241e-11 0)
(31.9488 -1.16758e-11 0)
(31.784 -1.03142e-11 0)
(31.6189 -9.73863e-12 0)
(31.4534 -9.59951e-12 0)
(31.2876 -1.01327e-11 0)
(31.1214 -1.10266e-11 0)
(30.955 -1.19317e-11 0)
(30.7881 -1.27864e-11 0)
(30.6209 -1.39329e-11 0)
(30.4534 -1.56793e-11 0)
(30.2856 -1.8698e-11 0)
(30.1174 -2.48044e-11 0)
(29.949 -3.18197e-11 0)
(29.7803 -3.77038e-11 0)
(29.6113 -4.24204e-11 0)
(29.4421 -4.53122e-11 0)
(29.2727 -4.62851e-11 0)
(29.1031 -4.61494e-11 0)
(28.9334 -4.46996e-11 0)
(28.7635 -4.2863e-11 0)
(28.5935 -3.8795e-11 0)
(28.4235 -3.65171e-11 0)
(28.2535 -3.45279e-11 0)
(28.0834 -3.14648e-11 0)
(27.9133 -2.84613e-11 0)
(27.7433 -2.60662e-11 0)
(27.5733 -2.50588e-11 0)
(27.4034 -2.33639e-11 0)
(27.2336 -2.15951e-11 0)
(27.0639 -2.07571e-11 0)
(26.8942 -1.99671e-11 0)
(26.7247 -1.99546e-11 0)
(26.5553 -1.72788e-11 0)
(26.386 -1.58788e-11 0)
(26.2168 -1.40079e-11 0)
(26.0477 -1.60575e-11 0)
(25.8787 -1.07891e-11 0)
(25.7098 -1.46701e-11 0)
(25.541 -3.92932e-12 0)
(25.3723 -1.74055e-11 0)
(25.2037 -1.9516e-12 0)
(25.0351 -1.80901e-11 0)
(24.8667 1.56194e-11 0)
(24.6984 -1.16162e-11 0)
(24.5301 2.3741e-11 0)
(24.3619 -1.95474e-11 0)
(24.1939 2.34715e-11 0)
(24.0259 -3.31025e-11 0)
(23.858 2.41787e-11 0)
(23.6903 -4.5132e-11 0)
(23.5226 1.94115e-11 0)
(23.3551 -3.57858e-11 0)
(23.1878 1.27147e-11 0)
(23.0205 -1.76399e-11 0)
(22.8535 2.07077e-12 0)
(22.6865 -6.04702e-12 0)
(22.5198 -7.19272e-12 0)
(22.3532 -1.30064e-11 0)
(22.1868 2.85126e-11 0)
(22.0205 -2.57669e-11 0)
(21.8545 7.6024e-11 0)
(21.6886 -7.30767e-11 0)
(21.523 1.07451e-10 0)
(21.3575 -8.35624e-11 0)
(21.1922 9.44478e-11 0)
(21.0272 -4.4388e-11 0)
(20.8623 2.68308e-11 0)
(20.6977 8.34172e-12 0)
(20.5333 1.02792e-12 0)
(20.3692 -1.47862e-12 0)
(20.2053 4.75745e-11 0)
(20.0417 -9.758e-11 0)
(19.8783 2.03858e-10 0)
(19.7153 -2.35192e-10 0)
(19.5525 1.76398e-10 0)
(19.3901 -3.03772e-11 0)
(19.228 -6.71214e-11 0)
(19.0663 -1.91592e-11 0)
(18.9049 1.59228e-10 0)
(18.744 -2.20145e-10 0)
(18.5834 1.44247e-10 0)
(18.4232 -1.06876e-10 0)
(18.2635 1.10962e-10 0)
(18.1043 -1.88984e-10 0)
(17.9455 1.8744e-10 0)
(17.7872 -1.39484e-10 0)
(17.6294 1.67228e-10 0)
(17.4722 -2.71866e-10 0)
(17.3155 4.95755e-10 0)
(17.1594 -7.7062e-10 0)
(17.0038 6.39683e-10 0)
(16.8489 -7.87013e-10 0)
(16.6945 1.751e-09 0)
(16.5408 -1.77335e-09 0)
(16.3877 7.09609e-10 0)
(16.2353 -1.29031e-09 0)
(16.0835 2.30214e-09 0)
(15.9324 -1.75721e-09 0)
(15.782 1.91602e-09 0)
(15.6323 -3.32523e-09 0)
(15.4832 4.70247e-09 0)
(15.3349 -5.81496e-09 0)
(15.1873 7.18809e-09 0)
(15.0404 -1.06014e-08 0)
(14.8942 1.42414e-08 0)
(14.7487 -1.84568e-08 0)
(14.604 2.56803e-08 0)
(14.4601 -3.91058e-08 0)
(14.3168 5.45428e-08 0)
(14.1744 -9.14493e-08 0)
(14.0327 1.33874e-07 0)
(13.8917 -2.42748e-07 0)
(13.7515 3.34315e-07 0)
(13.6121 -6.01182e-07 0)
(13.4735 7.62895e-07 0)
(13.3356 -1.25615e-06 0)
(13.1985 1.42758e-06 0)
(13.0622 -2.16186e-06 0)
(12.9267 2.31857e-06 0)
(12.7919 -2.98821e-06 0)
(12.6579 3.49572e-06 0)
(12.5247 -4.0888e-06 0)
(12.3922 4.79627e-06 0)
(12.2606 -5.32706e-06 0)
(12.1298 6.36655e-06 0)
(11.9998 -3.79478e-06 0)
(11.8706 3.34873e-05 0)
(11.7423 0.000151559 0)
(11.6148 0.000992135 0)
(11.4886 0.00590107 0)
(11.3664 0.035134 0)
(11.219 0.0993125 0)
(42.6417 -0.000127145 0)
(42.4984 -9.83238e-05 0)
(42.332 -8.65866e-05 0)
(42.1752 -8.60744e-05 0)
(42.0255 -8.61304e-05 0)
(41.8764 -8.58868e-05 0)
(41.7263 -8.57239e-05 0)
(41.5756 -8.56446e-05 0)
(41.4249 -8.55808e-05 0)
(41.2741 -8.55197e-05 0)
(41.1233 -8.5481e-05 0)
(40.9725 -8.54525e-05 0)
(40.8216 -8.54325e-05 0)
(40.6706 -8.54206e-05 0)
(40.5195 -8.54164e-05 0)
(40.3683 -8.54184e-05 0)
(40.217 -8.54259e-05 0)
(40.0655 -8.54379e-05 0)
(39.9139 -8.54542e-05 0)
(39.7621 -8.54736e-05 0)
(39.6101 -8.54958e-05 0)
(39.4578 -8.55208e-05 0)
(39.3052 -8.55476e-05 0)
(39.1524 -8.55771e-05 0)
(38.9992 -8.56074e-05 0)
(38.8456 -8.56404e-05 0)
(38.6916 -8.56744e-05 0)
(38.5373 -8.57099e-05 0)
(38.3825 -8.57475e-05 0)
(38.2273 -8.57866e-05 0)
(38.0716 -8.58263e-05 0)
(37.9154 -8.58697e-05 0)
(37.7588 -8.59125e-05 0)
(37.6018 -8.59585e-05 0)
(37.4443 -8.60063e-05 0)
(37.2863 -8.60549e-05 0)
(37.1279 -8.61078e-05 0)
(36.9691 -8.61609e-05 0)
(36.8099 -8.62185e-05 0)
(36.6504 -8.62802e-05 0)
(36.4905 -8.63427e-05 0)
(36.3303 -8.64057e-05 0)
(36.1699 -8.64701e-05 0)
(36.0092 -8.65358e-05 0)
(35.8482 -8.66057e-05 0)
(35.6871 -8.66818e-05 0)
(35.5258 -8.67667e-05 0)
(35.3644 -8.68576e-05 0)
(35.2028 -8.69519e-05 0)
(35.0412 -8.70475e-05 0)
(34.8794 -8.71383e-05 0)
(34.7176 -8.72303e-05 0)
(34.5557 -8.73197e-05 0)
(34.3937 -8.74116e-05 0)
(34.2317 -8.75068e-05 0)
(34.0696 -8.76042e-05 0)
(33.9074 -8.77009e-05 0)
(33.7451 -8.7797e-05 0)
(33.5827 -8.7893e-05 0)
(33.4202 -8.79888e-05 0)
(33.2575 -8.8085e-05 0)
(33.0947 -8.81801e-05 0)
(32.9317 -8.82677e-05 0)
(32.7685 -8.83372e-05 0)
(32.605 -8.83765e-05 0)
(32.4414 -8.83759e-05 0)
(32.2774 -8.83261e-05 0)
(32.1132 -8.82184e-05 0)
(31.9487 -8.80436e-05 0)
(31.7839 -8.77907e-05 0)
(31.6188 -8.74447e-05 0)
(31.4533 -8.69871e-05 0)
(31.2875 -8.63967e-05 0)
(31.1214 -8.565e-05 0)
(30.9549 -8.47236e-05 0)
(30.788 -8.35945e-05 0)
(30.6208 -8.22426e-05 0)
(30.4533 -8.06511e-05 0)
(30.2855 -7.8808e-05 0)
(30.1173 -7.67058e-05 0)
(29.9489 -7.4343e-05 0)
(29.7802 -7.17241e-05 0)
(29.6112 -6.88603e-05 0)
(29.442 -6.57692e-05 0)
(29.2726 -6.24747e-05 0)
(29.103 -5.90059e-05 0)
(28.9332 -5.53973e-05 0)
(28.7634 -5.16869e-05 0)
(28.5934 -4.79159e-05 0)
(28.4234 -4.41268e-05 0)
(28.2534 -4.0362e-05 0)
(28.0833 -3.66629e-05 0)
(27.9132 -3.30682e-05 0)
(27.7432 -2.96128e-05 0)
(27.5732 -2.63271e-05 0)
(27.4033 -2.32357e-05 0)
(27.2335 -2.03577e-05 0)
(27.0638 -1.77056e-05 0)
(26.8942 -1.52864e-05 0)
(26.7246 -1.31016e-05 0)
(26.5552 -1.11483e-05 0)
(26.3859 -9.41883e-06 0)
(26.2167 -7.90225e-06 0)
(26.0476 -6.58463e-06 0)
(25.8786 -5.45037e-06 0)
(25.7097 -4.48281e-06 0)
(25.5409 -3.66483e-06 0)
(25.3722 -2.97924e-06 0)
(25.2036 -2.40933e-06 0)
(25.0351 -1.93929e-06 0)
(24.8666 -1.5543e-06 0)
(24.6983 -1.241e-06 0)
(24.53 -9.87519e-07 0)
(24.3619 -7.83656e-07 0)
(24.1938 -6.2039e-07 0)
(24.0258 -4.89935e-07 0)
(23.858 -3.85181e-07 0)
(23.6902 -3.00673e-07 0)
(23.5226 -2.31683e-07 0)
(23.3551 -1.7487e-07 0)
(23.1877 -1.27024e-07 0)
(23.0205 -8.5614e-08 0)
(22.8534 -4.80929e-08 0)
(22.6865 -1.17211e-08 0)
(22.5197 2.06148e-08 0)
(22.3531 4.04098e-08 0)
(22.1867 5.99859e-08 0)
(22.0205 7.90157e-08 0)
(21.8544 9.849e-08 0)
(21.6886 1.18093e-07 0)
(21.5229 1.37961e-07 0)
(21.3574 1.57581e-07 0)
(21.1922 1.77833e-07 0)
(21.0271 1.98149e-07 0)
(20.8623 2.19389e-07 0)
(20.6976 2.41322e-07 0)
(20.5333 2.64073e-07 0)
(20.3691 2.87392e-07 0)
(20.2052 3.11168e-07 0)
(20.0416 3.35181e-07 0)
(19.8783 3.60258e-07 0)
(19.7152 3.85494e-07 0)
(19.5525 4.1247e-07 0)
(19.3901 4.39912e-07 0)
(19.228 4.68379e-07 0)
(19.0662 4.97796e-07 0)
(18.9049 5.28334e-07 0)
(18.7439 5.59036e-07 0)
(18.5833 5.91183e-07 0)
(18.4232 6.2286e-07 0)
(18.2635 6.55706e-07 0)
(18.1042 6.88529e-07 0)
(17.9454 7.22836e-07 0)
(17.7871 7.57335e-07 0)
(17.6294 7.93027e-07 0)
(17.4721 8.2861e-07 0)
(17.3154 8.65666e-07 0)
(17.1593 9.00924e-07 0)
(17.0038 9.39161e-07 0)
(16.8488 9.75267e-07 0)
(16.6945 1.01599e-06 0)
(16.5408 1.0508e-06 0)
(16.3877 1.092e-06 0)
(16.2352 1.12842e-06 0)
(16.0835 1.17098e-06 0)
(15.9324 1.20526e-06 0)
(15.782 1.24844e-06 0)
(15.6322 1.28253e-06 0)
(15.4832 1.33026e-06 0)
(15.3348 1.36044e-06 0)
(15.1872 1.41231e-06 0)
(15.0403 1.4358e-06 0)
(14.8941 1.49857e-06 0)
(14.7487 1.50911e-06 0)
(14.604 1.59009e-06 0)
(14.46 1.57246e-06 0)
(14.3168 1.69771e-06 0)
(14.1743 1.60773e-06 0)
(14.0326 1.84871e-06 0)
(13.8917 1.55549e-06 0)
(13.7515 2.10074e-06 0)
(13.6121 1.32811e-06 0)
(13.4734 2.53958e-06 0)
(13.3356 8.52613e-07 0)
(13.1985 3.14316e-06 0)
(13.0622 2.24349e-07 0)
(12.9266 3.74456e-06 0)
(12.7918 -1.0941e-07 0)
(12.6578 4.14732e-06 0)
(12.5246 -3.51237e-07 0)
(12.3922 4.77196e-06 0)
(12.2606 -1.26283e-06 0)
(12.1297 6.60047e-06 0)
(11.9997 -2.33526e-06 0)
(11.8706 2.22641e-05 0)
(11.7425 7.95305e-05 0)
(11.6164 0.000505337 0)
(11.4981 0.00298861 0)
(11.3855 0.02538 0)
(11.4005 0.0589461 0)
(42.64 -0.000100265 0)
(42.4949 -9.20526e-05 0)
(42.3267 -8.99257e-05 0)
(42.1681 -9.09604e-05 0)
(42.0165 -9.18071e-05 0)
(41.8657 -9.23437e-05 0)
(41.7138 -9.27494e-05 0)
(41.5613 -9.30688e-05 0)
(41.4087 -9.33053e-05 0)
(41.2562 -9.34755e-05 0)
(41.1036 -9.36089e-05 0)
(40.9509 -9.37119e-05 0)
(40.7982 -9.37922e-05 0)
(40.6454 -9.38562e-05 0)
(40.4925 -9.39087e-05 0)
(40.3395 -9.39526e-05 0)
(40.1863 -9.39904e-05 0)
(40.0331 -9.40235e-05 0)
(39.8796 -9.40535e-05 0)
(39.726 -9.4081e-05 0)
(39.5722 -9.41066e-05 0)
(39.4181 -9.41312e-05 0)
(39.2637 -9.41547e-05 0)
(39.109 -9.41782e-05 0)
(38.954 -9.4201e-05 0)
(38.7986 -9.42244e-05 0)
(38.6429 -9.42478e-05 0)
(38.4867 -9.42715e-05 0)
(38.3301 -9.42961e-05 0)
(38.173 -9.43215e-05 0)
(38.0155 -9.43472e-05 0)
(37.8576 -9.43752e-05 0)
(37.6992 -9.44032e-05 0)
(37.5403 -9.44332e-05 0)
(37.381 -9.44647e-05 0)
(37.2212 -9.44973e-05 0)
(37.061 -9.45332e-05 0)
(36.9004 -9.457e-05 0)
(36.7394 -9.46105e-05 0)
(36.578 -9.46546e-05 0)
(36.4163 -9.47004e-05 0)
(36.2543 -9.47475e-05 0)
(36.092 -9.47963e-05 0)
(35.9295 -9.48469e-05 0)
(35.7667 -9.49012e-05 0)
(35.6038 -9.49607e-05 0)
(35.4407 -9.50276e-05 0)
(35.2774 -9.51004e-05 0)
(35.114 -9.51769e-05 0)
(34.9505 -9.52553e-05 0)
(34.787 -9.53313e-05 0)
(34.6233 -9.54081e-05 0)
(34.4596 -9.54836e-05 0)
(34.2958 -9.5561e-05 0)
(34.1319 -9.56414e-05 0)
(33.9679 -9.57238e-05 0)
(33.8039 -9.58062e-05 0)
(33.6398 -9.5888e-05 0)
(33.4755 -9.59687e-05 0)
(33.3112 -9.6048e-05 0)
(33.1467 -9.61256e-05 0)
(32.982 -9.61997e-05 0)
(32.8171 -9.62646e-05 0)
(32.6521 -9.63112e-05 0)
(32.4868 -9.63284e-05 0)
(32.3213 -9.6306e-05 0)
(32.1555 -9.62338e-05 0)
(31.9894 -9.61013e-05 0)
(31.8231 -9.58973e-05 0)
(31.6565 -9.56088e-05 0)
(31.4895 -9.52192e-05 0)
(31.3222 -9.47086e-05 0)
(31.1546 -9.40547e-05 0)
(30.9867 -9.32333e-05 0)
(30.8184 -9.22197e-05 0)
(30.6498 -9.09898e-05 0)
(30.4809 -8.9522e-05 0)
(30.3117 -8.77982e-05 0)
(30.1422 -8.58044e-05 0)
(29.9724 -8.3532e-05 0)
(29.8024 -8.09782e-05 0)
(29.6322 -7.8147e-05 0)
(29.4617 -7.50493e-05 0)
(29.2911 -7.17031e-05 0)
(29.1204 -6.81332e-05 0)
(28.9495 -6.43708e-05 0)
(28.7786 -6.04524e-05 0)
(28.6076 -5.6419e-05 0)
(28.4367 -5.23149e-05 0)
(28.2657 -4.81863e-05 0)
(28.0948 -4.40796e-05 0)
(27.9239 -4.00399e-05 0)
(27.7532 -3.61099e-05 0)
(27.5825 -3.23282e-05 0)
(27.412 -2.87285e-05 0)
(27.2416 -2.53388e-05 0)
(27.0713 -2.21804e-05 0)
(26.9012 -1.92683e-05 0)
(26.7313 -1.6611e-05 0)
(26.5615 -1.4211e-05 0)
(26.3918 -1.20654e-05 0)
(26.2223 -1.01666e-05 0)
(26.053 -8.50293e-06 0)
(25.8838 -7.05934e-06 0)
(25.7147 -5.81877e-06 0)
(25.5457 -4.76279e-06 0)
(25.3769 -3.87242e-06 0)
(25.2082 -3.12853e-06 0)
(25.0395 -2.51253e-06 0)
(24.871 -2.00673e-06 0)
(24.7026 -1.5947e-06 0)
(24.5342 -1.2615e-06 0)
(24.366 -9.93913e-07 0)
(24.1979 -7.80446e-07 0)
(24.0298 -6.11137e-07 0)
(23.8619 -4.77257e-07 0)
(23.694 -3.71259e-07 0)
(23.5263 -2.86943e-07 0)
(23.3587 -2.19367e-07 0)
(23.1913 -1.64618e-07 0)
(23.0239 -1.19449e-07 0)
(22.8567 -8.11189e-08 0)
(22.6897 -4.71813e-08 0)
(22.5228 -1.4951e-08 0)
(22.3561 1.55409e-08 0)
(22.1895 3.68464e-08 0)
(22.0232 5.76759e-08 0)
(21.857 7.80591e-08 0)
(21.691 9.82109e-08 0)
(21.5251 1.18597e-07 0)
(21.3595 1.39102e-07 0)
(21.1941 1.59555e-07 0)
(21.0288 1.80232e-07 0)
(20.8638 2.01401e-07 0)
(20.699 2.23106e-07 0)
(20.5345 2.45696e-07 0)
(20.3701 2.68906e-07 0)
(20.206 2.92568e-07 0)
(20.0422 3.16626e-07 0)
(19.8786 3.40845e-07 0)
(19.7153 3.65564e-07 0)
(19.5523 3.90948e-07 0)
(19.3896 4.1706e-07 0)
(19.2273 4.43839e-07 0)
(19.0652 4.71366e-07 0)
(18.9035 4.99532e-07 0)
(18.7422 5.28397e-07 0)
(18.5813 5.57776e-07 0)
(18.4208 5.87667e-07 0)
(18.2607 6.1755e-07 0)
(18.101 6.4786e-07 0)
(17.9418 6.78561e-07 0)
(17.7831 7.10036e-07 0)
(17.6249 7.41984e-07 0)
(17.4671 7.74543e-07 0)
(17.31 8.07428e-07 0)
(17.1533 8.40687e-07 0)
(16.9972 8.73819e-07 0)
(16.8418 9.07714e-07 0)
(16.6869 9.41621e-07 0)
(16.5326 9.76702e-07 0)
(16.3789 1.01098e-06 0)
(16.2259 1.04658e-06 0)
(16.0735 1.08127e-06 0)
(15.9218 1.11712e-06 0)
(15.7708 1.15133e-06 0)
(15.6204 1.18756e-06 0)
(15.4708 1.22234e-06 0)
(15.3218 1.26016e-06 0)
(15.1735 1.29446e-06 0)
(15.026 1.3332e-06 0)
(14.8791 1.36621e-06 0)
(14.733 1.40727e-06 0)
(14.5876 1.4383e-06 0)
(14.443 1.48356e-06 0)
(14.2991 1.51012e-06 0)
(14.1559 1.56381e-06 0)
(14.0135 1.57764e-06 0)
(13.8719 1.6529e-06 0)
(13.731 1.63453e-06 0)
(13.5909 1.76335e-06 0)
(13.4516 1.67984e-06 0)
(13.313 1.91071e-06 0)
(13.1752 1.72083e-06 0)
(13.0382 2.10015e-06 0)
(12.902 1.76527e-06 0)
(12.7665 2.30084e-06 0)
(12.6318 1.76293e-06 0)
(12.4978 2.45449e-06 0)
(12.3647 1.80535e-06 0)
(12.2323 2.61946e-06 0)
(12.1008 1.83384e-06 0)
(11.97 3e-06 0)
(11.8401 1.80474e-06 0)
(11.711 5.20612e-06 0)
(11.5831 1.12859e-05 0)
(11.4572 6.37251e-05 0)
(11.3403 0.000472672 0)
(11.235 0.0118433 0)
(12.0463 0.0309283 0)
(9.9837 0.370939 -3.53973e-15)
(9.71713 1.04596 7.08301e-15)
(9.62976 1.78095 -1.32778e-14)
(9.56291 2.51499 2.74296e-14)
(9.50459 3.25877 -2.82875e-14)
(9.54253 4.08727 -1.76482e-15)
(9.64124 5.04197 -6.3722e-20)
(9.51299 5.96696 -2.46482e-14)
(9.00656 6.6064 -1.14449e-13)
(8.18584 6.92266 1.12813e-13)
(7.16249 6.96148 -2.82643e-14)
(6.09114 6.85703 -5.84706e-14)
(5.51659 7.34948 3.01012e-14)
(5.62978 9.07202 0)
(5.97306 11.7955 2.78039e-14)
(6.01102 14.9034 2.75333e-14)
(5.36304 17.3366 -2.74227e-14)
(4.10777 17.9694 2.74285e-14)
(2.73696 17.1017 2.14873e-16)
(1.52808 15.7044 -2.15886e-16)
(10.5601 0.517269 0)
(10.4338 1.31936 0)
(10.357 2.2102 -1.80851e-15)
(10.2612 3.10077 -3.61437e-15)
(10.1691 3.95172 9.02355e-15)
(10.1814 4.80992 1.80037e-14)
(10.2387 5.87359 0)
(9.96478 7.21527 1.07742e-14)
(9.22433 8.29576 1.79548e-14)
(8.11413 9.0041 -4.309e-14)
(6.76593 9.30708 2.87646e-14)
(5.47984 9.04386 1.44312e-14)
(5.27259 8.57397 -1.44626e-14)
(5.84345 9.13799 1.43488e-14)
(6.30078 10.8945 0)
(6.20647 13.5328 -1.76003e-15)
(4.87926 16.6961 1.75263e-15)
(2.59383 18.68 -6.14076e-15)
(0.477572 18.7035 -8.75444e-16)
(-1.32221 17.8355 0)
(11.18 0.125854 -4.78754e-17)
(11.1914 0.167175 -2.43212e-14)
(11.2667 0.214746 2.47046e-14)
(11.3945 0.279601 -2.3751e-14)
(11.5563 0.379511 -2.6056e-14)
(11.7363 0.513088 9.69727e-14)
(11.949 0.650283 -4.90872e-14)
(12.2461 0.79266 4.75848e-14)
(12.6054 1.05682 -9.67339e-14)
(12.9339 1.5287 1.53428e-15)
(13.1501 2.2188 4.7593e-14)
(13.1758 3.112 0)
(12.825 4.16234 -4.76042e-14)
(12.1337 5.13528 4.76337e-14)
(11.5476 5.77565 -3.8468e-16)
(11.5228 6.05382 0)
(12.1382 6.23832 3.86211e-16)
(12.8138 6.76308 0)
(12.9312 7.69009 0)
(12.6051 8.8156 0)
(11.322 0.576201 7.88844e-16)
(11.146 1.47005 -7.89679e-15)
(10.9356 2.51979 -1.57864e-15)
(10.7316 3.57833 3.15345e-15)
(10.5233 4.62409 -3.1481e-15)
(10.2896 5.65697 6.45126e-20)
(10.0057 6.67589 -1.25401e-14)
(9.65216 7.67686 0)
(9.21727 8.65274 0)
(8.69757 9.59549 -6.23061e-15)
(8.09467 10.4988 6.21764e-15)
(7.4126 11.3571 0)
(6.65647 12.165 -6.19165e-15)
(5.82743 12.9241 6.17852e-15)
(4.92136 13.6345 -6.16537e-15)
(3.93146 14.2836 1.23075e-14)
(2.85444 14.8407 -6.14457e-15)
(1.69696 15.2811 0)
(0.503489 15.6157 -3.06399e-15)
(-0.654243 15.9085 0)
(12.2516 0.530904 -1.22751e-15)
(12.4042 1.32898 9.40944e-15)
(12.3436 2.24093 6.54152e-15)
(12.2113 3.16217 1.30693e-14)
(12.0738 4.10259 0)
(11.9177 5.07264 0)
(11.7154 6.06939 1.30066e-14)
(11.4457 7.0815 3.24533e-15)
(11.0928 8.09696 -6.4779e-15)
(10.6474 9.1049 3.23262e-15)
(10.1065 10.0967 2.5811e-14)
(9.47072 11.0669 -1.61e-14)
(8.74305 12.0138 1.60665e-14)
(7.93004 12.934 -3.20615e-15)
(7.03916 13.8117 -1.27959e-14)
(6.07183 14.6103 -2.23491e-14)
(5.03369 15.2901 -1.11568e-14)
(3.92409 15.8319 -1.59203e-15)
(2.76933 16.2087 9.15139e-15)
(1.65111 16.3248 3.97969e-16)
(0.637765 14.9137 0)
(0.316393 17.6893 0)
(0.338623 21.4155 0)
(0.513734 22.5653 0)
(0.559942 21.7275 0)
(0.488091 21.7256 0)
(0.484893 23.2609 0)
(0.629374 24.1727 0)
(0.682141 23.7997 0)
(0.607155 23.9736 0)
(0.641532 25.1339 0)
(0.744579 25.5397 0)
(0.785475 24.8729 0)
(0.744618 24.5078 0)
(0.672227 25.5923 0)
(0.783748 26.754 0)
(0.858873 26.6181 0)
(0.888526 25.7355 0)
(0.892188 24.8862 0)
(0.756945 25.394 0)
(0.790151 26.9357 0)
(0.913971 27.4216 0)
(0.963808 26.8803 0)
(0.984245 26.1447 0)
(0.975429 25.7699 0)
(0.932145 26.1422 0)
(0.97932 26.5909 0)
(1.01995 26.4902 0)
(1.04039 26.1788 0)
(1.05129 25.9277 0)
(1.0579 25.7414 0)
(1.06157 25.5913 0)
(1.06366 25.4608 0)
(1.06479 25.3361 0)
(1.06508 25.2004 0)
(1.06418 25.0226 0)
(1.05926 24.739 0)
(1.051 24.4203 0)
(0.987141 24.598 0)
(1.00675 25.1027 0)
(1.04475 25.1635 0)
(1.05975 24.9424 0)
(1.06524 24.7387 0)
(1.06752 24.5862 0)
(1.06788 24.4609 0)
(1.0673 24.3509 0)
(1.06629 24.2503 0)
(1.065 24.1552 0)
(1.06348 24.0634 0)
(1.06173 23.9739 0)
(1.05976 23.886 0)
(1.0576 23.7995 0)
(1.05531 23.7144 0)
(1.05297 23.6309 0)
(1.0506 23.5487 0)
(1.04823 23.4675 0)
(1.04589 23.3871 0)
(1.04362 23.3072 0)
(1.04142 23.2277 0)
(1.03933 23.1485 0)
(1.03735 23.0694 0)
(1.03548 22.9903 0)
(1.03371 22.9112 0)
(1.03203 22.8321 0)
(1.03041 22.7531 0)
(1.02884 22.6742 0)
(1.02728 22.5955 0)
(1.02568 22.5172 0)
(1.02401 22.4395 0)
(1.02222 22.3624 0)
(1.02026 22.2862 0)
(1.01806 22.2108 0)
(1.01555 22.1365 0)
(1.01265 22.0634 0)
(1.00927 21.9914 0)
(1.00527 21.9206 0)
(1.00051 21.8509 0)
(0.994823 21.7822 0)
(0.988009 21.714 0)
(0.979855 21.6459 0)
(0.970121 21.577 0)
(0.958553 21.506 0)
(0.944886 21.4311 0)
(0.928855 21.349 0)
(0.910206 21.2546 0)
(0.888742 21.1379 0)
(0.864374 20.9791 0)
(0.837123 20.7377 0)
(0.806771 20.3432 0)
(0.764839 19.713 0)
(0.693129 19.3767 0)
(0.554174 20.2792 0)
(0.542278 21.6193 0)
(0.579063 21.9373 0)
(0.583935 21.5102 0)
(0.559223 21.0239 0)
(0.524474 20.6111 0)
(0.486275 20.2343 0)
(0.447306 19.8736 0)