/*--------------------------------*- C++ -*----------------------------------*\
| =========                 |                                                 |
| \\      /  F ield         | OpenFOAM: The Open Source CFD Toolbox           |
|  \\    /   O peration     | Version:  3.0.x                                 |
|   \\  /    A nd           | Web:      www.OpenFOAM.org                      |
|    \\/     M anipulation  |                                                 |
\*---------------------------------------------------------------------------*/
FoamFile
{
    version     2.0;
    format      ascii;
    class       surfaceScalarField;
    location    "0.35";
    object      phi;
}
// * * * * * * * * * * * * * * * * * * * * * * * * * * * * * * * * * * * * * //

dimensions      [1 0 -1 0 0 0 0];

internalField   nonuniform List<scalar> 
26210
(
3.90823
0.000503903
3.90788
0.000345992
3.90754
0.000339699
3.90719
0.000341352
3.90685
0.000341392
3.90651
0.000341301
3.90616
0.000341282
3.90582
0.00034127
3.90547
0.000341253
3.90513
0.000341233
3.90479
0.000341212
3.90444
0.000341191
3.9041
0.000341172
3.90375
0.000341121
3.90341
0.0003412
3.90306
0.000341061
3.90272
0.000341092
3.90238
0.000341081
3.90203
0.000341039
3.90169
0.000341054
3.90135
0.000341106
3.90101
0.00034106
3.90067
0.000341058
3.90033
0.000341054
3.89998
0.000341023
3.89964
0.000341021
3.89929
0.000341089
3.89895
0.000341031
3.89861
0.000341023
3.89826
0.000340969
3.89792
0.000341086
3.89758
0.000340971
3.89724
0.000340986
3.8969
0.000340927
3.89656
0.000341152
3.89622
0.000340675
3.89588
0.000340756
3.89554
0.000340588
3.8952
0.000340322
3.89486
0.000339921
3.89452
0.000339311
3.89418
0.000338447
3.89384
0.000337324
3.89351
0.000335636
3.89317
0.000333408
3.89284
0.00033053
3.89251
0.000326839
3.89219
0.000322181
3.89188
0.000316391
3.89157
0.000309421
3.89127
0.000301149
3.89098
0.000291521
3.8907
0.000280518
3.89043
0.000268171
3.89018
0.00025456
3.88994
0.000239818
3.88972
0.000224121
3.88951
0.000207687
3.88932
0.000190764
3.88914
0.000173619
3.88899
0.000156524
3.88885
0.000139745
3.88873
0.000123538
3.88862
0.000108088
3.88852
9.36039e-05
3.88844
8.02314e-05
3.88838
6.80384e-05
3.88832
5.71008e-05
3.88827
4.74029e-05
3.88824
3.89418e-05
3.8882
3.16332e-05
3.88818
2.54359e-05
3.88816
2.02306e-05
3.88814
1.59177e-05
3.88813
1.23927e-05
3.88812
9.54785e-06
3.88812
7.2756e-06
3.88811
5.48691e-06
3.88811
4.09483e-06
3.88811
3.02427e-06
3.88811
2.21061e-06
3.8881
1.59939e-06
3.8881
1.14549e-06
3.8881
8.12222e-07
3.8881
5.7029e-07
3.8881
3.96543e-07
3.8881
2.73209e-07
3.8881
1.86585e-07
3.8881
1.26438e-07
3.8881
8.50159e-08
3.8881
5.69089e-08
3.8881
3.79951e-08
3.8881
2.54477e-08
3.8881
1.71422e-08
3.8881
1.17434e-08
3.8881
8.28004e-09
3.8881
6.26824e-09
3.8881
4.22369e-09
3.8881
4.27463e-09
3.8881
2.83399e-09
3.8881
4.04907e-09
3.8881
3.05226e-09
3.8881
2.92493e-09
3.8881
3.65253e-09
3.88809
3.33239e-09
3.88809
2.75759e-09
3.88809
4.03088e-09
3.88809
3.24872e-09
3.88809
2.53567e-09
3.88809
3.86353e-09
3.88809
3.21597e-09
3.88808
3.19051e-09
3.88808
3.24508e-09
3.88808
3.81624e-09
3.88808
1.74623e-09
3.88808
4.79122e-09
3.88807
3.65617e-09
3.88807
3.69619e-09
3.88807
3.75439e-09
3.88807
3.79077e-09
3.88807
3.83443e-09
3.88807
4.08181e-09
3.88806
3.57613e-09
3.88806
3.77258e-09
3.88806
3.72893e-09
3.88806
3.68891e-09
3.88806
3.64889e-09
3.88806
3.59796e-09
3.88806
3.55794e-09
3.88805
3.51429e-09
3.88805
3.47791e-09
3.88805
3.44153e-09
3.88805
3.90719e-09
3.88805
2.74304e-09
3.88805
3.47063e-09
3.88805
3.33239e-09
3.88805
3.29965e-09
3.88805
3.85262e-09
3.88805
1.38243e-09
3.88805
4.71118e-09
3.88805
2.93585e-09
3.88805
4.56203e-09
3.88805
3.53612e-09
3.88805
2.10275e-09
3.88805
3.79077e-09
3.88805
3.40879e-09
3.88805
2.52476e-09
3.88805
4.09636e-09
3.88805
3.76167e-09
3.88805
2.33558e-09
3.88805
3.30328e-09
3.88805
3.7835e-09
3.88805
3.40879e-09
3.88805
3.4961e-09
3.88805
3.65617e-09
3.88805
3.78714e-09
3.88805
3.91083e-09
3.88805
4.16912e-09
3.88805
3.8126e-09
3.88805
3.79441e-09
3.88805
4.33647e-09
3.88805
4.48927e-09
3.88804
4.18004e-09
3.88804
4.19095e-09
3.88804
4.15093e-09
3.88804
4.14002e-09
3.88804
4.14366e-09
3.88804
4.12547e-09
3.88804
4.12183e-09
3.88804
4.75484e-09
3.88804
3.56158e-09
3.88804
5.25688e-09
3.88804
3.73984e-09
3.88804
3.97267e-09
3.88804
4.50018e-09
3.88805
5.05315e-09
3.88805
3.5725e-09
3.88805
4.09636e-09
3.88805
4.39832e-09
3.88805
4.75848e-09
3.88805
3.65981e-09
3.88806
4.6457e-09
3.88806
7.04676e-09
3.88806
1.88447e-09
3.88806
3.32875e-09
3.88807
1.28057e-09
3.88807
5.14046e-09
3.88807
2.06492e-08
3.88808
1.48721e-08
3.88808
9.55624e-08
3.88809
4.68252e-07
3.88809
2.23201e-06
3.88809
1.07509e-05
3.88804
5.18159e-05
3.8878
0.000249288
3.88661
0.00118975
3.88104
0.00558141
3.85501
0.0260417
3.72211
0.132904
0.504612
3.21751
5.52787
0.000460536
5.52788
0.000328385
5.5279
0.000315103
5.52792
0.000318624
5.52794
0.000318802
5.52796
0.000318658
5.52797
0.000318683
5.52799
0.000318718
5.52801
0.000318746
5.52803
0.000318769
5.52805
0.000318792
5.52806
0.000318814
5.52808
0.000318837
5.5281
0.000318834
5.52811
0.000318939
5.52813
0.000318866
5.52815
0.000318929
5.52816
0.000318962
5.52818
0.000318965
5.5282
0.00031902
5.52822
0.000319107
5.52825
0.000319109
5.52827
0.000319148
5.52829
0.000319186
5.5283
0.000319201
5.52832
0.00031924
5.52834
0.00031934
5.52836
0.000319331
5.52837
0.000319364
5.52839
0.00031936
5.52841
0.000319503
5.52843
0.000319442
5.52845
0.000319495
5.52847
0.000319484
5.52849
0.000319716
5.52851
0.000319336
5.52854
0.000319433
5.52856
0.000319311
5.52858
0.000319092
5.5286
0.000318739
5.52862
0.000318186
5.52864
0.000317384
5.52866
0.00031632
5.52868
0.000314722
5.5287
0.000312596
5.52872
0.000309843
5.52874
0.000306301
5.52876
0.000301832
5.52878
0.000296279
5.5288
0.000289599
5.52882
0.000281678
5.52884
0.000272469
5.52886
0.000261963
5.52888
0.000250194
5.5289
0.000237244
5.52891
0.000223245
5.52893
0.000208371
5.52894
0.000192832
5.52896
0.000176867
5.52897
0.00016073
5.52898
0.000144677
5.52899
0.000128958
5.529
0.00011381
5.52901
9.94062e-05
5.52902
8.59337e-05
5.52903
7.35253e-05
5.52903
6.22385e-05
5.52904
5.21375e-05
5.52904
4.3203e-05
5.52905
3.54255e-05
5.52905
2.87235e-05
5.52905
2.3053e-05
5.52905
1.83013e-05
5.52906
1.4373e-05
5.52906
1.11692e-05
5.52906
8.58906e-06
5.52906
6.53317e-06
5.52906
4.91798e-06
5.52906
3.66365e-06
5.52906
2.70102e-06
5.52906
1.97092e-06
5.52907
1.42358e-06
5.52907
1.01795e-06
5.52907
7.20731e-07
5.52907
5.05392e-07
5.52907
3.5103e-07
5.52907
2.41669e-07
5.52907
1.64995e-07
5.52907
1.11842e-07
5.52907
7.5288e-08
5.52907
5.05261e-08
5.52907
3.38787e-08
5.52906
2.28447e-08
5.52906
1.55524e-08
5.52906
1.08103e-08
5.52906
7.77982e-09
5.52906
6.01358e-09
5.52906
4.20732e-09
5.52906
4.27281e-09
5.52906
2.99769e-09
5.52905
4.11274e-09
5.52905
3.23234e-09
5.52905
3.12502e-09
5.52905
3.79805e-09
5.52905
3.52702e-09
5.52904
3.01225e-09
5.52904
4.18731e-09
5.52904
3.47609e-09
5.52904
2.85763e-09
5.52903
4.06726e-09
5.52903
3.51247e-09
5.52903
3.47973e-09
5.52903
3.55249e-09
5.52902
4.05817e-09
5.52902
2.20825e-09
5.52902
4.95493e-09
5.52901
3.96358e-09
5.52901
3.9945e-09
5.52901
4.03816e-09
5.529
4.07636e-09
5.529
4.11092e-09
5.529
4.33101e-09
5.529
3.87081e-09
5.52899
4.04179e-09
5.52899
4.00541e-09
5.52899
3.9654e-09
5.52899
3.92356e-09
5.52898
3.87081e-09
5.52898
3.82715e-09
5.52898
3.77986e-09
5.52898
3.73802e-09
5.52898
3.7071e-09
5.52898
4.10728e-09
5.52897
3.06864e-09
5.52897
3.68345e-09
5.52897
3.57613e-09
5.52897
3.53066e-09
5.52897
4.01087e-09
5.52897
1.81171e-09
5.52897
4.72755e-09
5.52897
3.18141e-09
5.52897
4.60932e-09
5.52897
3.69982e-09
5.52897
2.46473e-09
5.52897
3.83261e-09
5.52896
3.59432e-09
5.52896
2.76304e-09
5.52896
4.20914e-09
5.52896
3.62343e-09
5.52896
1.78625e-09
5.52896
3.8217e-09
5.52896
4.63115e-09
5.52896
3.6398e-09
5.52896
3.68345e-09
5.52896
3.88172e-09
5.52896
4.0236e-09
5.52896
4.14911e-09
5.52896
4.62569e-09
5.52896
4.03634e-09
5.52896
3.12866e-09
5.52895
4.80395e-09
5.52895
5.1914e-09
5.52895
4.43652e-09
5.52895
4.47471e-09
5.52895
4.41469e-09
5.52895
4.40559e-09
5.52895
4.39468e-09
5.52895
4.31282e-09
5.52895
4.27644e-09
5.52895
4.90581e-09
5.52895
3.64707e-09
5.52895
6.38829e-09
5.52895
3.52702e-09
5.52895
3.7453e-09
5.52895
5.01859e-09
5.52895
5.14228e-09
5.52895
3.64525e-09
5.52895
3.91992e-09
5.52895
4.66935e-09
5.52895
5.56065e-09
5.52896
2.92312e-09
5.52896
5.3351e-09
5.52896
1.51267e-08
5.52897
-5.27689e-09
5.52897
2.22826e-09
5.52897
-4.63115e-09
5.52898
8.50741e-09
5.52898
4.50182e-08
5.52899
2.90529e-08
5.529
2.25016e-07
5.529
1.1245e-06
5.52901
5.38281e-06
5.529
2.59481e-05
5.52893
0.000125108
5.52859
0.000601884
5.52691
0.00287293
5.51902
0.0134876
5.48211
0.0629566
5.2987
0.31633
1.16742
4.6359
7.81758
0.00040274
7.8176
0.000300841
7.81763
0.000280966
7.81766
0.000286074
7.81768
0.000286453
7.81771
0.000286208
7.81773
0.000286234
7.81776
0.000286276
7.81779
0.000286307
7.81781
0.000286327
7.81784
0.000286349
7.81787
0.00028637
7.81789
0.000286391
7.81792
0.000286394
7.81794
0.000286476
7.81796
0.000286429
7.81799
0.000286476
7.81801
0.000286507
7.81804
0.000286513
7.81807
0.000286561
7.8181
0.000286636
7.81814
0.00028664
7.81817
0.000286676
7.8182
0.00028671
7.81822
0.000286726
7.81825
0.00028676
7.81827
0.000286845
7.8183
0.000286842
7.81833
0.000286871
7.81835
0.000286871
7.81838
0.000286992
7.81841
0.000286944
7.81844
0.000286988
7.81847
0.000286984
7.8185
0.000287172
7.81854
0.000286863
7.81858
0.000286934
7.81861
0.000286828
7.81865
0.000286633
7.81868
0.000286318
7.81871
0.000285828
7.81874
0.000285112
7.81876
0.000284158
7.81879
0.000282735
7.81882
0.000280837
7.81885
0.00027838
7.81888
0.000275211
7.81891
0.000271217
7.81895
0.000266251
7.81898
0.000260277
7.81901
0.000253188
7.81904
0.000244945
7.81907
0.000235537
7.81909
0.000224993
7.81912
0.000213388
7.81914
0.000200839
7.81916
0.000187499
7.81918
0.000173559
7.81919
0.00015923
7.81921
0.000144741
7.81922
0.000130322
7.81924
0.000116198
7.81925
0.00010258
7.81926
8.96276e-05
7.81927
7.75067e-05
7.81927
6.63381e-05
7.81928
5.61753e-05
7.81929
4.70755e-05
7.81929
3.90237e-05
7.81929
3.20108e-05
7.8193
2.59658e-05
7.8193
2.0848e-05
7.8193
1.65578e-05
7.8193
1.30094e-05
7.81931
1.0114e-05
7.81931
7.78105e-06
7.81931
5.92133e-06
7.81931
4.45942e-06
7.81931
3.32362e-06
7.81931
2.4515e-06
7.81931
1.78971e-06
7.81931
1.29333e-06
7.81932
9.2527e-07
7.81932
6.55435e-07
7.81932
4.59831e-07
7.81932
3.19544e-07
7.81932
2.20094e-07
7.81932
1.50335e-07
7.81932
1.01943e-07
7.81932
6.86568e-08
7.81932
4.60832e-08
7.81931
3.09064e-08
7.81931
2.08365e-08
7.81931
1.41799e-08
7.81931
9.85074e-09
7.81931
7.08224e-09
7.81931
5.44787e-09
7.81931
3.83625e-09
7.8193
3.83807e-09
7.8193
2.73576e-09
7.8193
3.67891e-09
7.8193
2.91402e-09
7.81929
2.81943e-09
7.81929
3.40242e-09
7.81929
3.17232e-09
7.81928
2.71939e-09
7.81928
3.7453e-09
7.81928
3.11684e-09
7.81927
2.59297e-09
7.81927
3.62161e-09
7.81927
3.17505e-09
7.81926
3.12139e-09
7.81926
3.19596e-09
7.81925
3.61342e-09
7.81925
2.04727e-09
7.81925
4.39559e-09
7.81924
3.57886e-09
7.81924
3.58341e-09
7.81923
3.62434e-09
7.81923
3.66254e-09
7.81922
3.69437e-09
7.81922
3.88263e-09
7.81922
3.48155e-09
7.81921
3.62525e-09
7.81921
3.59978e-09
7.81921
3.56249e-09
7.8192
3.52611e-09
7.8192
3.48246e-09
7.8192
3.43789e-09
7.81919
3.39969e-09
7.81919
3.3624e-09
7.81919
3.34148e-09
7.81919
3.66799e-09
7.81918
2.79488e-09
7.81918
3.28964e-09
7.81918
3.22052e-09
7.81918
3.17596e-09
7.81918
3.57704e-09
7.81918
1.74259e-09
7.81918
4.13911e-09
7.81918
2.89219e-09
7.81918
4.06544e-09
7.81917
3.31966e-09
7.81917
2.39288e-09
7.81917
3.31147e-09
7.81917
3.26054e-09
7.81917
2.51566e-09
7.81917
3.78986e-09
7.81917
2.86218e-09
7.81917
3.68345e-10
7.81917
3.96722e-09
7.81917
5.17866e-09
7.81917
3.29783e-09
7.81917
3.26872e-09
7.81916
3.49701e-09
7.81916
3.61888e-09
7.81916
3.73075e-09
7.81916
4.50927e-09
7.81916
3.7071e-09
7.81916
1.25146e-09
7.81916
4.67389e-09
7.81916
5.37693e-09
7.81915
3.97995e-09
7.81915
4.05998e-09
7.81915
3.9654e-09
7.81915
3.94266e-09
7.81915
3.91174e-09
7.81915
3.74894e-09
7.81915
3.66981e-09
7.81915
4.31464e-09
7.81915
2.90947e-09
7.81915
6.46378e-09
7.81915
3.15958e-09
7.81915
2.64754e-09
7.81915
4.96675e-09
7.81915
4.52746e-09
7.81915
2.98314e-09
7.81915
2.93949e-09
7.81915
4.32738e-09
7.81916
5.9872e-09
7.81916
1.1687e-09
7.81916
5.59157e-09
7.81917
2.66373e-08
7.81917
-1.68493e-08
7.81918
9.82254e-11
7.81918
-7.85803e-09
7.81919
6.54654e-09
7.8192
7.67022e-08
7.81921
4.91673e-08
7.81922
4.01821e-07
7.81922
2.0237e-06
7.81923
9.70285e-06
7.81922
4.67848e-05
7.81913
0.000225619
7.81866
0.00108545
7.81636
0.00518262
7.80552
0.0243452
7.75495
0.113544
7.50739
0.563905
2.03858
6.63625
34.5084
0.000186232
34.5085
0.000156999
34.5087
0.000139131
34.5088
0.00014263
34.5089
0.000143574
34.509
0.000143249
34.5091
0.000143191
34.5092
0.000143196
34.5094
0.000143212
34.5095
0.000143204
34.5096
0.000143206
34.5097
0.00014321
34.5098
0.000143217
34.5099
0.000143218
34.51
0.000143241
34.5101
0.000143237
34.5102
0.000143248
34.5103
0.000143263
34.5105
0.000143267
34.5106
0.000143289
34.5107
0.000143319
34.5109
0.000143325
34.511
0.000143342
34.5112
0.000143358
34.5113
0.000143369
34.5114
0.000143385
34.5115
0.00014342
34.5116
0.000143424
34.5117
0.000143437
34.5119
0.000143442
34.512
0.000143492
34.5121
0.000143475
34.5122
0.000143494
34.5124
0.000143498
34.5125
0.000143567
34.5127
0.000143454
34.5128
0.00014347
34.513
0.00014342
34.5132
0.000143326
34.5133
0.000143173
34.5134
0.000142937
34.5135
0.000142588
34.5137
0.000142113
34.5138
0.000141422
34.5139
0.000140491
34.514
0.000139286
34.5142
0.000137721
34.5143
0.000135753
34.5145
0.000133302
34.5146
0.000130352
34.5148
0.000126844
34.5149
0.00012276
34.515
0.000118094
34.5151
0.000112858
34.5152
0.000107089
34.5153
0.000100843
34.5154
9.41965e-05
34.5155
8.7243e-05
34.5156
8.00882e-05
34.5156
7.28457e-05
34.5157
6.56309e-05
34.5158
5.85562e-05
34.5158
5.17279e-05
34.5159
4.52275e-05
34.5159
3.9138e-05
34.5159
3.35213e-05
34.516
2.84063e-05
34.516
2.3821e-05
34.516
1.9761e-05
34.516
1.62207e-05
34.516
1.31675e-05
34.5161
1.05792e-05
34.5161
8.40819e-06
34.5161
6.61083e-06
34.5161
5.14305e-06
34.5161
3.95937e-06
34.5161
3.01518e-06
34.5161
2.27222e-06
34.5161
1.69462e-06
34.5161
1.25076e-06
34.5161
9.13691e-07
34.5161
6.60687e-07
34.5161
4.72955e-07
34.5161
3.3523e-07
34.5161
2.35326e-07
34.5161
1.63627e-07
34.5161
1.12769e-07
34.5161
7.70674e-08
34.5161
5.22773e-08
34.5161
3.52238e-08
34.5161
2.36396e-08
34.5161
1.58507e-08
34.5161
1.06752e-08
34.5161
7.25822e-09
34.5161
5.03087e-09
34.5161
3.60842e-09
34.5161
2.75122e-09
34.5161
1.95951e-09
34.5161
1.90721e-09
34.5161
1.42199e-09
34.5161
1.80762e-09
34.516
1.46838e-09
34.516
1.42336e-09
34.516
1.68575e-09
34.516
1.58843e-09
34.516
1.38562e-09
34.516
1.84764e-09
34.516
1.54841e-09
34.5159
1.3265e-09
34.5159
1.77715e-09
34.5159
1.60844e-09
34.5159
1.55751e-09
34.5159
1.61072e-09
34.5159
1.75078e-09
34.5158
1.10049e-09
34.5158
2.12185e-09
34.5158
1.81581e-09
34.5158
1.79216e-09
34.5158
1.81535e-09
34.5157
1.83491e-09
34.5157
1.84855e-09
34.5157
1.92995e-09
34.5157
1.75032e-09
34.5157
1.81262e-09
34.5157
1.79944e-09
34.5156
1.78034e-09
34.5156
1.76442e-09
34.5156
1.74123e-09
34.5156
1.72031e-09
34.5156
1.70121e-09
34.5156
1.68257e-09
34.5156
1.67984e-09
34.5156
1.80626e-09
34.5156
1.43109e-09
34.5155
1.62345e-09
34.5155
1.62072e-09
34.5155
1.5948e-09
34.5155
1.73895e-09
34.5155
1.06184e-09
34.5155
1.91312e-09
34.5155
1.48066e-09
34.5155
1.85673e-09
34.5155
1.78306e-09
34.5155
1.55978e-09
34.5155
1.36833e-09
34.5155
1.65846e-09
34.5155
1.47975e-09
34.5155
1.92176e-09
34.5155
-4.41105e-11
34.5155
-7.19183e-09
34.5155
5.48698e-09
34.5155
7.60838e-09
34.5155
1.7435e-09
34.5155
1.45474e-09
34.5155
1.78306e-09
34.5155
1.834e-09
34.5155
1.97269e-09
34.5154
3.79077e-09
34.5154
1.85901e-09
34.5154
-6.95809e-09
34.5154
4.64024e-09
34.5154
6.18684e-09
34.5154
1.92449e-09
34.5154
2.24782e-09
34.5154
1.96133e-09
34.5154
1.86719e-09
34.5154
1.95951e-09
34.5154
1.07502e-09
34.5154
9.76343e-10
34.5154
1.89902e-09
34.5154
-4.30191e-10
34.5154
9.27548e-09
34.5154
-9.15406e-10
34.5154
-2.48838e-09
34.5154
5.05224e-09
34.5154
1.81944e-09
34.5154
-1.11413e-10
34.5154
-1.49066e-09
34.5154
2.88674e-09
34.5154
8.26731e-09
34.5154
-7.15272e-09
34.5155
5.52382e-09
34.5155
6.12458e-08
34.5155
-5.17634e-08
34.5155
-6.05905e-09
34.5156
4.66152e-08
34.5156
-7.53844e-08
34.5156
1.87131e-07
34.5156
1.41576e-07
34.5157
1.09406e-06
34.5157
5.53549e-06
34.5158
2.65954e-05
34.5157
0.000128238
34.5154
0.00061862
34.5135
0.00297603
34.5046
0.0142218
34.4623
0.0666966
34.2688
0.307092
33.4471
1.38565
4.89148
30.5943
34.5084
4.54747e-13
34.5085
-1.36424e-12
34.5086
2.72848e-12
34.5088
2.27374e-12
34.5089
0
34.509
-1.36424e-12
34.5091
-2.72848e-12
34.5092
-2.72848e-12
34.5093
0
34.5094
-2.72848e-12
34.5096
4.54747e-13
34.5097
-2.27374e-12
34.5098
-4.09273e-12
34.5099
0
34.51
-3.63798e-12
34.5101
-2.27374e-12
34.5102
-2.27374e-12
34.5103
-1.81899e-12
34.5104
0
34.5106
-4.54747e-13
34.5107
1.36424e-12
34.5109
9.09495e-13
34.511
-4.54747e-13
34.5111
-1.81899e-12
34.5113
-1.81899e-12
34.5114
-2.27374e-12
34.5115
-4.54747e-13
34.5116
-4.54747e-13
34.5117
-1.36424e-12
34.5118
0
34.512
1.81899e-12
34.5121
9.09495e-13
34.5122
-2.27374e-12
34.5124
-1.81899e-12
34.5125
-3.63798e-12
34.5127
-2.27374e-12
34.5128
-2.72848e-12
34.513
4.54747e-13
34.5131
-1.81899e-12
34.5133
-2.27374e-12
34.5134
0
34.5135
2.72848e-12
34.5136
9.09495e-13
34.5138
4.54747e-13
34.5139
-1.81899e-12
34.514
0
34.5142
4.54747e-13
34.5143
-1.81899e-12
34.5145
9.09495e-13
34.5146
-1.36424e-12
34.5147
-4.54747e-13
34.5149
0
34.515
-1.81899e-12
34.5151
4.54747e-13
34.5152
0
34.5153
0
34.5154
1.81899e-12
34.5155
1.36424e-12
34.5156
-9.09495e-13
34.5156
-4.09273e-12
34.5157
-2.27374e-12
34.5158
-9.09495e-13
34.5158
4.54747e-13
34.5159
-1.81899e-12
34.5159
-4.09273e-12
34.5159
-2.72848e-12
34.516
-2.27374e-12
34.516
-2.27374e-12
34.516
-9.09495e-13
34.516
-3.18323e-12
34.516
-1.36424e-12
34.5161
-4.54747e-13
34.5161
1.36424e-12
34.5161
-9.09495e-13
34.5161
4.54747e-13
34.5161
-1.36424e-12
34.5161
-5.00222e-12
34.5161
-1.81899e-12
34.5161
-1.36424e-12
34.5161
1.36424e-12
34.5161
1.36424e-12
34.5161
4.54747e-13
34.5161
-4.54747e-13
34.5161
-1.36424e-12
34.5161
-1.81899e-12
34.5161
-1.81899e-12
34.5161
-9.09495e-13
34.5161
4.54747e-13
34.5161
-1.81899e-12
34.5161
9.09495e-13
34.5161
9.09495e-13
34.5161
-1.36424e-12
34.5161
-1.36424e-12
34.5161
-2.72848e-12
34.5161
-1.36424e-12
34.5161
-9.09495e-13
34.5161
-4.54747e-13
34.5161
-4.54747e-13
34.5161
-1.81899e-12
34.5161
4.54747e-13
34.5161
1.81899e-12
34.516
4.54747e-13
34.516
-4.54747e-13
34.516
-3.63798e-12
34.516
-9.09495e-13
34.516
4.54747e-13
34.516
2.27374e-12
34.516
2.72848e-12
34.5159
4.54747e-13
34.5159
-4.54747e-13
34.5159
0
34.5159
9.09495e-13
34.5159
-9.09495e-13
34.5159
-3.18323e-12
34.5158
-3.63798e-12
34.5158
-1.81899e-12
34.5158
0
34.5158
2.72848e-12
34.5158
-4.54747e-13
34.5157
4.54747e-13
34.5157
1.36424e-12
34.5157
-2.72848e-12
34.5157
-1.81899e-12
34.5157
9.09495e-13
34.5157
1.36424e-12
34.5156
2.27374e-12
34.5156
2.72848e-12
34.5156
1.36424e-12
34.5156
1.36424e-12
34.5156
1.36424e-12
34.5156
1.36424e-12
34.5156
2.72848e-12
34.5156
4.54747e-13
34.5156
-5.00222e-12
34.5155
3.63798e-12
34.5155
2.27374e-12
34.5155
-3.63798e-12
34.5155
-2.27374e-11
34.5155
2.09184e-10
34.5155
-1.43245e-10
34.5155
-2.00089e-11
34.5155
-2.98314e-10
34.5155
1.93722e-10
34.5155
8.57654e-10
34.5155
-6.37101e-10
34.5155
8.00355e-11
34.5155
3.87899e-10
34.5155
2.00998e-10
34.5155
-2.13595e-09
34.5155
-1.89661e-08
34.5155
1.47502e-08
34.5155
5.77938e-09
34.5155
-7.86713e-11
34.5155
-2.83762e-10
34.5155
8.68567e-11
34.5155
7.68523e-11
34.5155
-1.03228e-10
34.5154
3.96858e-09
34.5154
6.17274e-09
34.5154
-2.38797e-08
34.5154
7.06996e-09
34.5154
6.81439e-09
34.5154
-4.6839e-10
34.5154
4.43379e-10
34.5154
-6.68479e-11
34.5154
-1.16415e-10
34.5154
-4.06544e-10
34.5154
-1.10595e-09
34.5154
1.02773e-10
34.5154
-1.88584e-09
34.5154
5.34556e-09
34.5154
-2.74349e-08
34.5154
2.12481e-08
34.5154
-4.05771e-09
34.5154
5.45288e-09
34.5154
-1.23237e-09
34.5154
4.68162e-09
34.5154
-1.34528e-08
34.5154
1.96251e-08
34.5154
-5.3742e-09
34.5154
8.8894e-09
34.5155
-2.68897e-08
34.5155
4.45802e-08
34.5155
-3.65167e-08
34.5155
7.97718e-09
34.5156
-1.47256e-08
34.5156
5.88475e-08
34.5156
7.7725e-08
34.5156
2.81767e-07
34.5157
1.29737e-06
34.5157
6.93753e-06
34.5158
3.29795e-05
34.5158
0.000159337
34.5157
0.000769818
34.515
0.00371252
34.5115
0.0178131
34.4938
0.0843951
34.4059
0.39509
33.974
1.81757
6.5062
32.3594
34.5084
-0.000186232
34.5085
-0.000156999
34.5086
-0.000139131
34.5088
-0.00014263
34.5089
-0.000143574
34.509
-0.000143249
34.5091
-0.000143191
34.5092
-0.000143196
34.5093
-0.000143212
34.5094
-0.000143204
34.5096
-0.000143206
34.5097
-0.00014321
34.5098
-0.000143217
34.5099
-0.000143218
34.51
-0.000143241
34.5101
-0.000143237
34.5102
-0.000143248
34.5103
-0.000143263
34.5104
-0.000143267
34.5106
-0.000143289
34.5107
-0.000143319
34.5109
-0.000143325
34.511
-0.000143342
34.5111
-0.000143358
34.5113
-0.000143369
34.5114
-0.000143385
34.5115
-0.00014342
34.5116
-0.000143424
34.5117
-0.000143437
34.5118
-0.000143442
34.512
-0.000143492
34.5121
-0.000143475
34.5122
-0.000143494
34.5124
-0.000143498
34.5125
-0.000143567
34.5127
-0.000143454
34.5128
-0.00014347
34.513
-0.00014342
34.5131
-0.000143326
34.5133
-0.000143173
34.5134
-0.000142937
34.5135
-0.000142588
34.5136
-0.000142113
34.5138
-0.000141422
34.5139
-0.000140491
34.514
-0.000139286
34.5142
-0.000137721
34.5143
-0.000135753
34.5145
-0.000133302
34.5146
-0.000130352
34.5147
-0.000126844
34.5149
-0.00012276
34.515
-0.000118094
34.5151
-0.000112858
34.5152
-0.000107089
34.5153
-0.000100843
34.5154
-9.41965e-05
34.5155
-8.7243e-05
34.5156
-8.00882e-05
34.5156
-7.28457e-05
34.5157
-6.56309e-05
34.5158
-5.85562e-05
34.5158
-5.17279e-05
34.5159
-4.52275e-05
34.5159
-3.9138e-05
34.5159
-3.35213e-05
34.516
-2.84063e-05
34.516
-2.3821e-05
34.516
-1.9761e-05
34.516
-1.62208e-05
34.516
-1.31675e-05
34.5161
-1.05792e-05
34.5161
-8.40818e-06
34.5161
-6.61084e-06
34.5161
-5.14305e-06
34.5161
-3.95938e-06
34.5161
-3.01519e-06
34.5161
-2.27222e-06
34.5161
-1.69462e-06
34.5161
-1.25075e-06
34.5161
-9.13687e-07
34.5161
-6.60687e-07
34.5161
-4.72956e-07
34.5161
-3.35233e-07
34.5161
-2.35329e-07
34.5161
-1.63633e-07
34.5161
-1.12771e-07
34.5161
-7.70665e-08
34.5161
-5.22814e-08
34.5161
-3.52225e-08
34.5161
-2.36414e-08
34.5161
-1.58539e-08
34.5161
-1.06802e-08
34.5161
-7.26413e-09
34.5161
-5.03223e-09
34.5161
-3.60978e-09
34.5161
-2.75259e-09
34.5161
-1.96133e-09
34.5161
-1.9113e-09
34.5161
-1.42199e-09
34.5161
-1.80398e-09
34.516
-1.46838e-09
34.516
-1.42427e-09
34.516
-1.69439e-09
34.516
-1.59298e-09
34.516
-1.38652e-09
34.516
-1.84491e-09
34.516
-1.5425e-09
34.5159
-1.32468e-09
34.5159
-1.7767e-09
34.5159
-1.60753e-09
34.5159
-1.55705e-09
34.5159
-1.61253e-09
34.5159
-1.75623e-09
34.5158
-1.10913e-09
34.5158
-2.1264e-09
34.5158
-1.81535e-09
34.5158
-1.7867e-09
34.5158
-1.81763e-09
34.5157
-1.83491e-09
34.5157
-1.84491e-09
34.5157
-1.9354e-09
34.5157
-1.75214e-09
34.5157
-1.81308e-09
34.5157
-1.79807e-09
34.5156
-1.77624e-09
34.5156
-1.75987e-09
34.5156
-1.73804e-09
34.5156
-1.71713e-09
34.5156
-1.69848e-09
34.5156
-1.68211e-09
34.5156
-1.67392e-09
34.5156
-1.80671e-09
34.5156
-1.437e-09
34.5155
-1.61663e-09
34.5155
-1.61708e-09
34.5155
-1.59753e-09
34.5155
-1.76578e-09
34.5155
-8.29459e-10
34.5155
-2.05637e-09
34.5155
-1.51022e-09
34.5155
-2.25828e-09
34.5155
-1.52977e-09
34.5155
-4.18368e-10
34.5155
-2.17278e-09
34.5155
-1.5807e-09
34.5155
-8.12179e-10
34.5155
-1.77488e-09
34.5155
-3.53475e-09
34.5155
-1.75369e-08
34.5155
1.03269e-08
34.5155
4.0186e-09
34.5155
-1.74123e-09
34.5155
-1.92904e-09
34.5155
-1.68984e-09
34.5155
-1.81308e-09
34.5155
-1.81217e-09
34.5154
7.41238e-10
34.5154
-2.26601e-09
34.5154
-3.13235e-08
34.5154
1.78225e-08
34.5154
5.62841e-09
34.5154
-2.98724e-09
34.5154
-1.28557e-09
34.5154
-2.09684e-09
34.5154
-2.16914e-09
34.5154
-2.1887e-09
34.5154
-3.97631e-09
34.5154
3.81078e-10
34.5154
-7.37236e-09
34.5154
5.15956e-09
34.5154
-4.09091e-09
34.5154
-2.75577e-09
34.5154
-5.09726e-09
34.5154
2.31921e-10
34.5154
-7.09724e-09
34.5154
5.39558e-09
34.5154
7.49833e-09
34.5154
-7.54608e-09
34.5154
-6.08134e-09
34.5154
2.95177e-09
34.5155
-1.00636e-08
34.5155
1.2823e-08
34.5155
-3.68996e-08
34.5155
9.40781e-09
34.5156
-7.18023e-08
34.5156
1.32688e-07
34.5156
9.1859e-11
34.5156
2.50342e-07
34.5157
1.13993e-06
34.5157
5.49893e-06
34.5158
2.65863e-05
34.5159
0.000128552
34.5161
0.000623331
34.5168
0.0030269
34.52
0.0146221
34.534
0.0704587
34.5863
0.34292
34.6605
1.74342
5.94652
35.2202
34.5084
-0.00040274
34.5085
-0.000300841
34.5087
-0.000280966
34.5088
-0.000286074
34.5089
-0.000286453
34.509
-0.000286208
34.5091
-0.000286234
34.5092
-0.000286276
34.5094
-0.000286307
34.5095
-0.000286327
34.5096
-0.000286349
34.5097
-0.00028637
34.5098
-0.000286391
34.5099
-0.000286394
34.51
-0.000286476
34.5101
-0.000286429
34.5102
-0.000286476
34.5103
-0.000286507
34.5105
-0.000286513
34.5106
-0.000286561
34.5107
-0.000286636
34.5109
-0.00028664
34.511
-0.000286676
34.5112
-0.00028671
34.5113
-0.000286726
34.5114
-0.00028676
34.5115
-0.000286845
34.5116
-0.000286842
34.5117
-0.000286871
34.5119
-0.000286871
34.512
-0.000286992
34.5121
-0.000286944
34.5122
-0.000286988
34.5124
-0.000286984
34.5125
-0.000287172
34.5127
-0.000286863
34.5128
-0.000286934
34.513
-0.000286828
34.5132
-0.000286633
34.5133
-0.000286318
34.5134
-0.000285828
34.5135
-0.000285112
34.5137
-0.000284158
34.5138
-0.000282735
34.5139
-0.000280837
34.514
-0.00027838
34.5142
-0.000275211
34.5143
-0.000271217
34.5145
-0.000266251
34.5146
-0.000260277
34.5148
-0.000253188
34.5149
-0.000244945
34.515
-0.000235537
34.5151
-0.000224993
34.5152
-0.000213388
34.5153
-0.000200839
34.5154
-0.000187499
34.5155
-0.000173559
34.5156
-0.00015923
34.5156
-0.000144741
34.5157
-0.000130322
34.5158
-0.000116198
34.5158
-0.00010258
34.5159
-8.96276e-05
34.5159
-7.75067e-05
34.5159
-6.63381e-05
34.516
-5.61753e-05
34.516
-4.70755e-05
34.516
-3.90237e-05
34.516
-3.20108e-05
34.516
-2.59658e-05
34.5161
-2.0848e-05
34.5161
-1.65578e-05
34.5161
-1.30094e-05
34.5161
-1.0114e-05
34.5161
-7.78105e-06
34.5161
-5.92134e-06
34.5161
-4.45942e-06
34.5161
-3.32362e-06
34.5161
-2.4515e-06
34.5161
-1.78971e-06
34.5161
-1.29333e-06
34.5161
-9.2527e-07
34.5161
-6.55439e-07
34.5161
-4.59836e-07
34.5161
-3.19547e-07
34.5161
-2.20095e-07
34.5161
-1.50333e-07
34.5161
-1.01946e-07
34.5161
-6.86532e-08
34.5161
-4.60859e-08
34.5161
-3.0911e-08
34.5161
-2.0842e-08
34.5161
-1.4189e-08
34.5161
-9.84983e-09
34.5161
-7.08224e-09
34.5161
-5.44696e-09
34.5161
-3.83625e-09
34.5161
-3.84443e-09
34.5161
-2.73758e-09
34.5161
-3.67982e-09
34.516
-2.91766e-09
34.516
-2.82216e-09
34.516
-3.41151e-09
34.516
-3.17777e-09
34.516
-2.71939e-09
34.516
-3.74257e-09
34.516
-3.10865e-09
34.5159
-2.59024e-09
34.5159
-3.61979e-09
34.5159
-3.17414e-09
34.5159
-3.12048e-09
34.5159
-3.19233e-09
34.5159
-3.61615e-09
34.5158
-2.06182e-09
34.5158
-4.39923e-09
34.5158
-3.57886e-09
34.5158
-3.57431e-09
34.5158
-3.62888e-09
34.5157
-3.66254e-09
34.5157
-3.68891e-09
34.5157
-3.88809e-09
34.5157
-3.48246e-09
34.5157
-3.62706e-09
34.5157
-3.59796e-09
34.5156
-3.55794e-09
34.5156
-3.52156e-09
34.5156
-3.48064e-09
34.5156
-3.43516e-09
34.5156
-3.39969e-09
34.5156
-3.3624e-09
34.5156
-3.33421e-09
34.5156
-3.66799e-09
34.5156
-2.79579e-09
34.5155
-3.28419e-09
34.5155
-3.21415e-09
34.5155
-3.17323e-09
34.5155
-3.58523e-09
34.5155
-1.67256e-09
34.5155
-4.17276e-09
34.5155
-2.90675e-09
34.5155
-4.1573e-09
34.5155
-3.28691e-09
34.5155
-1.95723e-09
34.5155
-3.61706e-09
34.5155
-3.2278e-09
34.5155
-2.37196e-09
34.5155
-3.64798e-09
34.5155
-4.27008e-09
34.5155
-8.90941e-09
34.5155
1.5425e-09
34.5155
-1.08503e-09
34.5155
-3.27145e-09
34.5155
-3.44789e-09
34.5155
-3.46336e-09
34.5155
-3.6016e-09
34.5155
-3.73348e-09
34.5154
-2.78669e-09
34.5154
-4.6175e-09
34.5154
-1.28985e-08
34.5154
1.94086e-09
34.5154
-1.00863e-09
34.5154
-4.45289e-09
34.5154
-3.68073e-09
34.5154
-4.01451e-09
34.5154
-4.0327e-09
34.5154
-4.1473e-09
34.5154
-7.4624e-09
34.5154
-6.38465e-10
34.5154
-1.23418e-08
34.5154
4.914e-09
34.5154
-9.98625e-10
34.5154
-7.82256e-09
34.5154
-4.04179e-09
34.5154
-4.62114e-09
34.5154
-1.37388e-08
34.5154
6.20639e-09
34.5154
-6.68479e-10
34.5154
-5.83441e-09
34.5154
-6.28552e-09
34.5154
-2.17005e-09
34.5155
-2.77832e-08
34.5155
2.06164e-08
34.5155
-4.69718e-08
34.5155
3.23225e-08
34.5156
4.22733e-09
34.5156
9.07403e-09
34.5156
-1.45164e-08
34.5156
9.99535e-08
34.5157
4.01624e-07
34.5157
2.01455e-06
34.5158
9.68587e-06
34.5159
4.70273e-05
34.5164
0.000227733
34.5183
0.0011092
34.5276
0.00537027
34.5718
0.0263509
34.7786
0.13622
35.5749
0.947206
3.045
38.4765
7.81758
-0.000460536
7.8176
-0.000328385
7.81763
-0.000315103
7.81766
-0.000318624
7.81768
-0.000318802
7.81771
-0.000318658
7.81773
-0.000318683
7.81776
-0.000318718
7.81779
-0.000318746
7.81781
-0.000318769
7.81784
-0.000318792
7.81787
-0.000318814
7.81789
-0.000318837
7.81792
-0.000318834
7.81794
-0.000318939
7.81796
-0.000318866
7.81799
-0.000318929
7.81801
-0.000318962
7.81804
-0.000318965
7.81807
-0.00031902
7.8181
-0.000319107
7.81814
-0.000319109
7.81817
-0.000319148
7.8182
-0.000319186
7.81822
-0.000319201
7.81825
-0.00031924
7.81827
-0.00031934
7.8183
-0.000319331
7.81833
-0.000319364
7.81835
-0.00031936
7.81838
-0.000319503
7.81841
-0.000319442
7.81844
-0.000319495
7.81847
-0.000319484
7.8185
-0.000319716
7.81854
-0.000319336
7.81858
-0.000319433
7.81861
-0.000319311
7.81865
-0.000319092
7.81868
-0.000318739
7.81871
-0.000318186
7.81874
-0.000317384
7.81876
-0.00031632
7.81879
-0.000314722
7.81882
-0.000312596
7.81885
-0.000309843
7.81888
-0.000306301
7.81891
-0.000301832
7.81895
-0.000296279
7.81898
-0.000289599
7.81901
-0.000281678
7.81904
-0.000272469
7.81907
-0.000261963
7.81909
-0.000250194
7.81912
-0.000237244
7.81914
-0.000223245
7.81916