/*--------------------------------*- C++ -*----------------------------------*\
| =========                 |                                                 |
| \\      /  F ield         | OpenFOAM: The Open Source CFD Toolbox           |
|  \\    /   O peration     | Version:  3.0.x                                 |
|   \\  /    A nd           | Web:      www.OpenFOAM.org                      |
|    \\/     M anipulation  |                                                 |
\*---------------------------------------------------------------------------*/
FoamFile
{
    version     2.0;
    format      ascii;
    class       volScalarField;
    location    "0.53";
    object      p;
}
// * * * * * * * * * * * * * * * * * * * * * * * * * * * * * * * * * * * * * //

dimensions      [1 -1 -2 0 0 0 0];

internalField   nonuniform List<scalar> 
13800
(
1.83103e+07
1.83106e+07
1.83111e+07
1.83117e+07
1.83123e+07
1.8313e+07
1.83137e+07
1.83145e+07
1.83153e+07
1.83162e+07
1.83172e+07
1.83182e+07
1.83193e+07
1.83205e+07
1.83217e+07
1.8323e+07
1.83243e+07
1.83257e+07
1.83272e+07
1.83287e+07
1.83303e+07
1.83319e+07
1.83336e+07
1.83354e+07
1.83372e+07
1.83391e+07
1.8341e+07
1.8343e+07
1.83451e+07
1.83472e+07
1.83494e+07
1.83516e+07
1.83539e+07
1.83562e+07
1.83587e+07
1.83611e+07
1.83637e+07
1.83662e+07
1.83689e+07
1.83716e+07
1.83744e+07
1.83772e+07
1.838e+07
1.8383e+07
1.8386e+07
1.8389e+07
1.83921e+07
1.83953e+07
1.83985e+07
1.84017e+07
1.84051e+07
1.84084e+07
1.84119e+07
1.84153e+07
1.84189e+07
1.84224e+07
1.84261e+07
1.84298e+07
1.84335e+07
1.84373e+07
1.84412e+07
1.8445e+07
1.8449e+07
1.8453e+07
1.8457e+07
1.84611e+07
1.84653e+07
1.84695e+07
1.84737e+07
1.8478e+07
1.84823e+07
1.84867e+07
1.84911e+07
1.84955e+07
1.85001e+07
1.85046e+07
1.85092e+07
1.85138e+07
1.85185e+07
1.85232e+07
1.8528e+07
1.85328e+07
1.85376e+07
1.85425e+07
1.85474e+07
1.85524e+07
1.85573e+07
1.85624e+07
1.85674e+07
1.85725e+07
1.85776e+07
1.85828e+07
1.8588e+07
1.85932e+07
1.85985e+07
1.86037e+07
1.86091e+07
1.86144e+07
1.86198e+07
1.86252e+07
1.86306e+07
1.8636e+07
1.86415e+07
1.8647e+07
1.86525e+07
1.86581e+07
1.86636e+07
1.86692e+07
1.86748e+07
1.86804e+07
1.86861e+07
1.86917e+07
1.86974e+07
1.87031e+07
1.87088e+07
1.87145e+07
1.87203e+07
1.8726e+07
1.87318e+07
1.87375e+07
1.87433e+07
1.87491e+07
1.87549e+07
1.87607e+07
1.87665e+07
1.87723e+07
1.87781e+07
1.8784e+07
1.87898e+07
1.87956e+07
1.88015e+07
1.88073e+07
1.88131e+07
1.8819e+07
1.88248e+07
1.88306e+07
1.88365e+07
1.88423e+07
1.88481e+07
1.88539e+07
1.88597e+07
1.88656e+07
1.88714e+07
1.88771e+07
1.88829e+07
1.88887e+07
1.88945e+07
1.89002e+07
1.8906e+07
1.89117e+07
1.89174e+07
1.89231e+07
1.89288e+07
1.89345e+07
1.89402e+07
1.89458e+07
1.89515e+07
1.89571e+07
1.89627e+07
1.89683e+07
1.89738e+07
1.89794e+07
1.89849e+07
1.89904e+07
1.89959e+07
1.90014e+07
1.90068e+07
1.90122e+07
1.90176e+07
1.9023e+07
1.90284e+07
1.90337e+07
1.9039e+07
1.90443e+07
1.90496e+07
1.90548e+07
1.906e+07
1.90652e+07
1.90704e+07
1.90755e+07
1.90806e+07
1.90857e+07
1.90907e+07
1.90957e+07
1.91007e+07
1.91057e+07
1.91106e+07
1.91155e+07
1.91204e+07
1.91252e+07
1.91301e+07
1.91348e+07
1.91396e+07
1.91443e+07
1.9149e+07
1.91537e+07
1.91583e+07
1.91629e+07
1.91675e+07
1.91719e+07
1.83103e+07
1.83106e+07
1.83111e+07
1.83117e+07
1.83123e+07
1.8313e+07
1.83137e+07
1.83145e+07
1.83153e+07
1.83162e+07
1.83172e+07
1.83182e+07
1.83193e+07
1.83205e+07
1.83217e+07
1.8323e+07
1.83243e+07
1.83257e+07
1.83272e+07
1.83287e+07
1.83303e+07
1.83319e+07
1.83336e+07
1.83354e+07
1.83372e+07
1.83391e+07
1.8341e+07
1.8343e+07
1.83451e+07
1.83472e+07
1.83494e+07
1.83516e+07
1.83539e+07
1.83562e+07
1.83587e+07
1.83611e+07
1.83637e+07
1.83662e+07
1.83689e+07
1.83716e+07
1.83744e+07
1.83772e+07
1.838e+07
1.8383e+07
1.8386e+07
1.8389e+07
1.83921e+07
1.83953e+07
1.83985e+07
1.84017e+07
1.84051e+07
1.84084e+07
1.84119e+07
1.84153e+07
1.84189e+07
1.84224e+07
1.84261e+07
1.84298e+07
1.84335e+07
1.84373e+07
1.84412e+07
1.8445e+07
1.8449e+07
1.8453e+07
1.8457e+07
1.84611e+07
1.84653e+07
1.84695e+07
1.84737e+07
1.8478e+07
1.84823e+07
1.84867e+07
1.84911e+07
1.84955e+07
1.85001e+07
1.85046e+07
1.85092e+07
1.85138e+07
1.85185e+07
1.85232e+07
1.8528e+07
1.85328e+07
1.85376e+07
1.85425e+07
1.85474e+07
1.85524e+07
1.85573e+07
1.85624e+07
1.85674e+07
1.85725e+07
1.85776e+07
1.85828e+07
1.8588e+07
1.85932e+07
1.85985e+07
1.86037e+07
1.86091e+07
1.86144e+07
1.86198e+07
1.86252e+07
1.86306e+07
1.8636e+07
1.86415e+07
1.8647e+07
1.86525e+07
1.86581e+07
1.86636e+07
1.86692e+07
1.86748e+07
1.86804e+07
1.86861e+07
1.86917e+07
1.86974e+07
1.87031e+07
1.87088e+07
1.87145e+07
1.87203e+07
1.8726e+07
1.87318e+07
1.87375e+07
1.87433e+07
1.87491e+07
1.87549e+07
1.87607e+07
1.87665e+07
1.87723e+07
1.87781e+07
1.8784e+07
1.87898e+07
1.87956e+07
1.88015e+07
1.88073e+07
1.88131e+07
1.8819e+07
1.88248e+07
1.88306e+07
1.88365e+07
1.88423e+07
1.88481e+07
1.88539e+07
1.88597e+07
1.88656e+07
1.88714e+07
1.88771e+07
1.88829e+07
1.88887e+07
1.88945e+07
1.89002e+07
1.8906e+07
1.89117e+07
1.89174e+07
1.89231e+07
1.89288e+07
1.89345e+07
1.89402e+07
1.89458e+07
1.89515e+07
1.89571e+07
1.89627e+07
1.89683e+07
1.89738e+07
1.89794e+07
1.89849e+07
1.89904e+07
1.89959e+07
1.90014e+07
1.90068e+07
1.90122e+07
1.90176e+07
1.9023e+07
1.90284e+07
1.90337e+07
1.9039e+07
1.90443e+07
1.90496e+07
1.90548e+07
1.906e+07
1.90652e+07
1.90704e+07
1.90755e+07
1.90806e+07
1.90857e+07
1.90907e+07
1.90957e+07
1.91007e+07
1.91057e+07
1.91106e+07
1.91155e+07
1.91204e+07
1.91252e+07
1.91301e+07
1.91348e+07
1.91396e+07
1.91443e+07
1.9149e+07
1.91537e+07
1.91583e+07
1.91629e+07
1.91675e+07
1.91719e+07
1.83103e+07
1.83106e+07
1.83111e+07
1.83117e+07
1.83123e+07
1.8313e+07
1.83137e+07
1.83145e+07
1.83153e+07
1.83162e+07
1.83172e+07
1.83182e+07
1.83193e+07
1.83205e+07
1.83217e+07
1.8323e+07
1.83243e+07
1.83257e+07
1.83272e+07
1.83287e+07
1.83303e+07
1.83319e+07
1.83336e+07
1.83354e+07
1.83372e+07
1.83391e+07
1.8341e+07
1.8343e+07
1.83451e+07
1.83472e+07
1.83494e+07
1.83516e+07
1.83539e+07
1.83562e+07
1.83587e+07
1.83611e+07
1.83637e+07
1.83662e+07
1.83689e+07
1.83716e+07
1.83744e+07
1.83772e+07
1.838e+07
1.8383e+07
1.8386e+07
1.8389e+07
1.83921e+07
1.83953e+07
1.83985e+07
1.84017e+07
1.84051e+07
1.84084e+07
1.84119e+07
1.84153e+07
1.84189e+07
1.84224e+07
1.84261e+07
1.84298e+07
1.84335e+07
1.84373e+07
1.84412e+07
1.8445e+07
1.8449e+07
1.8453e+07
1.8457e+07
1.84611e+07
1.84653e+07
1.84695e+07
1.84737e+07
1.8478e+07
1.84823e+07
1.84867e+07
1.84911e+07
1.84955e+07
1.85001e+07
1.85046e+07
1.85092e+07
1.85138e+07
1.85185e+07
1.85232e+07
1.8528e+07
1.85328e+07
1.85376e+07
1.85425e+07
1.85474e+07
1.85524e+07
1.85573e+07
1.85624e+07
1.85674e+07
1.85725e+07
1.85776e+07
1.85828e+07
1.8588e+07
1.85932e+07
1.85985e+07
1.86037e+07
1.86091e+07
1.86144e+07
1.86198e+07
1.86252e+07
1.86306e+07
1.8636e+07
1.86415e+07
1.8647e+07
1.86525e+07
1.86581e+07
1.86636e+07
1.86692e+07
1.86748e+07
1.86804e+07
1.86861e+07
1.86917e+07
1.86974e+07
1.87031e+07
1.87088e+07
1.87145e+07
1.87203e+07
1.8726e+07
1.87318e+07
1.87375e+07
1.87433e+07
1.87491e+07
1.87549e+07
1.87607e+07
1.87665e+07
1.87723e+07
1.87781e+07
1.8784e+07
1.87898e+07
1.87956e+07
1.88015e+07
1.88073e+07
1.88131e+07
1.8819e+07
1.88248e+07
1.88306e+07
1.88365e+07
1.88423e+07
1.88481e+07
1.88539e+07
1.88597e+07
1.88656e+07
1.88714e+07
1.88771e+07
1.88829e+07
1.88887e+07
1.88945e+07
1.89002e+07
1.8906e+07
1.89117e+07
1.89174e+07
1.89231e+07
1.89288e+07
1.89345e+07
1.89402e+07
1.89458e+07
1.89515e+07
1.89571e+07
1.89627e+07
1.89683e+07
1.89738e+07
1.89794e+07
1.89849e+07
1.89904e+07
1.89959e+07
1.90014e+07
1.90068e+07
1.90122e+07
1.90176e+07
1.9023e+07
1.90284e+07
1.90337e+07
1.9039e+07
1.90443e+07
1.90496e+07
1.90548e+07
1.906e+07
1.90652e+07
1.90704e+07
1.90755e+07
1.90806e+07
1.90857e+07
1.90907e+07
1.90957e+07
1.91007e+07
1.91057e+07
1.91106e+07
1.91155e+07
1.91204e+07
1.91252e+07
1.91301e+07
1.91348e+07
1.91396e+07
1.91443e+07
1.9149e+07
1.91537e+07
1.91583e+07
1.91629e+07
1.91675e+07
1.91719e+07
1.83103e+07
1.83106e+07
1.83111e+07
1.83117e+07
1.83123e+07
1.8313e+07
1.83137e+07
1.83145e+07
1.83153e+07
1.83162e+07
1.83172e+07
1.83182e+07
1.83193e+07
1.83205e+07
1.83217e+07
1.8323e+07
1.83243e+07
1.83257e+07
1.83272e+07
1.83287e+07
1.83303e+07
1.83319e+07
1.83336e+07
1.83354e+07
1.83372e+07
1.83391e+07
1.8341e+07
1.8343e+07
1.83451e+07
1.83472e+07
1.83494e+07
1.83516e+07
1.83539e+07
1.83562e+07
1.83587e+07
1.83611e+07
1.83637e+07
1.83662e+07
1.83689e+07
1.83716e+07
1.83744e+07
1.83772e+07
1.838e+07
1.8383e+07
1.8386e+07
1.8389e+07
1.83921e+07
1.83953e+07
1.83985e+07
1.84017e+07
1.84051e+07
1.84084e+07
1.84119e+07
1.84153e+07
1.84189e+07
1.84224e+07
1.84261e+07
1.84298e+07
1.84335e+07
1.84373e+07
1.84412e+07
1.8445e+07
1.8449e+07
1.8453e+07
1.8457e+07
1.84611e+07
1.84653e+07
1.84695e+07
1.84737e+07
1.8478e+07
1.84823e+07
1.84867e+07
1.84911e+07
1.84955e+07
1.85001e+07
1.85046e+07
1.85092e+07
1.85138e+07
1.85185e+07
1.85232e+07
1.8528e+07
1.85328e+07
1.85376e+07
1.85425e+07
1.85474e+07
1.85524e+07
1.85573e+07
1.85624e+07
1.85674e+07
1.85725e+07
1.85776e+07
1.85828e+07
1.8588e+07
1.85932e+07
1.85985e+07
1.86037e+07
1.86091e+07
1.86144e+07
1.86198e+07
1.86252e+07
1.86306e+07
1.8636e+07
1.86415e+07
1.8647e+07
1.86525e+07
1.86581e+07
1.86636e+07
1.86692e+07
1.86748e+07
1.86804e+07
1.86861e+07
1.86917e+07
1.86974e+07
1.87031e+07
1.87088e+07
1.87145e+07
1.87203e+07
1.8726e+07
1.87318e+07
1.87375e+07
1.87433e+07
1.87491e+07
1.87549e+07
1.87607e+07
1.87665e+07
1.87723e+07
1.87781e+07
1.8784e+07
1.87898e+07
1.87956e+07
1.88015e+07
1.88073e+07
1.88131e+07
1.8819e+07
1.88248e+07
1.88306e+07
1.88365e+07
1.88423e+07
1.88481e+07
1.88539e+07
1.88597e+07
1.88656e+07
1.88714e+07
1.88771e+07
1.88829e+07
1.88887e+07
1.88945e+07
1.89002e+07
1.8906e+07
1.89117e+07
1.89174e+07
1.89231e+07
1.89288e+07
1.89345e+07
1.89402e+07
1.89458e+07
1.89515e+07
1.89571e+07
1.89627e+07
1.89683e+07
1.89738e+07
1.89794e+07
1.89849e+07
1.89904e+07
1.89959e+07
1.90014e+07
1.90068e+07
1.90122e+07
1.90176e+07
1.9023e+07
1.90284e+07
1.90337e+07
1.9039e+07
1.90443e+07
1.90496e+07
1.90548e+07
1.906e+07
1.90652e+07
1.90704e+07
1.90755e+07
1.90806e+07
1.90857e+07
1.90907e+07
1.90957e+07
1.91007e+07
1.91057e+07
1.91106e+07
1.91155e+07
1.91204e+07
1.91252e+07
1.91301e+07
1.91348e+07
1.91396e+07
1.91443e+07
1.9149e+07
1.91537e+07
1.91583e+07
1.91629e+07
1.91675e+07
1.91719e+07
1.83103e+07
1.83106e+07
1.83111e+07
1.83117e+07
1.83123e+07
1.8313e+07
1.83137e+07
1.83145e+07
1.83153e+07
1.83162e+07
1.83172e+07
1.83182e+07
1.83193e+07
1.83205e+07
1.83217e+07
1.8323e+07
1.83243e+07
1.83257e+07
1.83272e+07
1.83287e+07
1.83303e+07
1.83319e+07
1.83336e+07
1.83354e+07
1.83372e+07
1.83391e+07
1.8341e+07
1.8343e+07
1.83451e+07
1.83472e+07
1.83494e+07
1.83516e+07
1.83539e+07
1.83562e+07
1.83587e+07
1.83611e+07
1.83637e+07
1.83662e+07
1.83689e+07
1.83716e+07
1.83744e+07
1.83772e+07
1.838e+07
1.8383e+07
1.8386e+07
1.8389e+07
1.83921e+07
1.83953e+07
1.83985e+07
1.84017e+07
1.84051e+07
1.84084e+07
1.84119e+07
1.84153e+07
1.84189e+07
1.84224e+07
1.84261e+07
1.84298e+07
1.84335e+07
1.84373e+07
1.84412e+07
1.8445e+07
1.8449e+07
1.8453e+07
1.8457e+07
1.84611e+07
1.84653e+07
1.84695e+07
1.84737e+07
1.8478e+07
1.84823e+07
1.84867e+07
1.84911e+07
1.84955e+07
1.85001e+07
1.85046e+07
1.85092e+07
1.85138e+07
1.85185e+07
1.85232e+07
1.8528e+07
1.85328e+07
1.85376e+07
1.85425e+07
1.85474e+07
1.85524e+07
1.85573e+07
1.85624e+07
1.85674e+07
1.85725e+07
1.85776e+07
1.85828e+07
1.8588e+07
1.85932e+07
1.85985e+07
1.86037e+07
1.86091e+07
1.86144e+07
1.86198e+07
1.86252e+07
1.86306e+07
1.8636e+07
1.86415e+07
1.8647e+07
1.86525e+07
1.86581e+07
1.86636e+07
1.86692e+07
1.86748e+07
1.86804e+07
1.86861e+07
1.86917e+07
1.86974e+07
1.87031e+07
1.87088e+07
1.87145e+07
1.87203e+07
1.8726e+07
1.87318e+07
1.87375e+07
1.87433e+07
1.87491e+07
1.87549e+07
1.87607e+07
1.87665e+07
1.87723e+07
1.87781e+07
1.8784e+07
1.87898e+07
1.87956e+07
1.88015e+07
1.88073e+07
1.88131e+07
1.8819e+07
1.88248e+07
1.88306e+07
1.88365e+07
1.88423e+07
1.88481e+07
1.88539e+07
1.88597e+07
1.88656e+07
1.88714e+07
1.88771e+07
1.88829e+07
1.88887e+07
1.88945e+07
1.89002e+07
1.8906e+07
1.89117e+07
1.89174e+07
1.89231e+07
1.89288e+07
1.89345e+07
1.89402e+07
1.89458e+07
1.89515e+07
1.89571e+07
1.89627e+07
1.89683e+07
1.89738e+07
1.89794e+07
1.89849e+07
1.89904e+07
1.89959e+07
1.90014e+07
1.90068e+07
1.90122e+07
1.90176e+07
1.9023e+07
1.90284e+07
1.90337e+07
1.9039e+07
1.90443e+07
1.90496e+07
1.90548e+07
1.906e+07
1.90652e+07
1.90704e+07
1.90755e+07
1.90806e+07
1.90857e+07
1.90907e+07
1.90957e+07
1.91007e+07
1.91057e+07
1.91106e+07
1.91155e+07
1.91204e+07
1.91252e+07
1.91301e+07
1.91348e+07
1.91396e+07
1.91443e+07
1.9149e+07
1.91537e+07
1.91583e+07
1.91629e+07
1.91675e+07
1.9172e+07
1.83103e+07
1.83106e+07
1.83111e+07
1.83117e+07
1.83123e+07
1.8313e+07
1.83137e+07
1.83145e+07
1.83153e+07
1.83162e+07
1.83172e+07
1.83182e+07
1.83193e+07
1.83205e+07
1.83217e+07
1.8323e+07
1.83243e+07
1.83257e+07
1.83272e+07
1.83287e+07
1.83303e+07
1.83319e+07
1.83336e+07
1.83354e+07
1.83372e+07
1.83391e+07
1.8341e+07
1.8343e+07
1.83451e+07
1.83472e+07
1.83494e+07
1.83516e+07
1.83539e+07
1.83562e+07
1.83587e+07
1.83611e+07
1.83637e+07
1.83662e+07
1.83689e+07
1.83716e+07
1.83744e+07
1.83772e+07
1.838e+07
1.8383e+07
1.8386e+07
1.8389e+07
1.83921e+07
1.83953e+07
1.83985e+07
1.84017e+07
1.84051e+07
1.84084e+07
1.84119e+07
1.84153e+07
1.84189e+07
1.84224e+07
1.84261e+07
1.84298e+07
1.84335e+07
1.84373e+07
1.84412e+07
1.8445e+07
1.8449e+07
1.8453e+07
1.8457e+07
1.84611e+07
1.84653e+07
1.84695e+07
1.84737e+07
1.8478e+07
1.84823e+07
1.84867e+07
1.84911e+07
1.84955e+07
1.85001e+07
1.85046e+07
1.85092e+07
1.85138e+07
1.85185e+07
1.85232e+07
1.8528e+07
1.85328e+07
1.85376e+07
1.85425e+07
1.85474e+07
1.85524e+07
1.85573e+07
1.85624e+07
1.85674e+07
1.85725e+07
1.85776e+07
1.85828e+07
1.8588e+07
1.85932e+07
1.85985e+07
1.86037e+07
1.86091e+07
1.86144e+07
1.86198e+07
1.86252e+07
1.86306e+07
1.8636e+07
1.86415e+07
1.8647e+07
1.86525e+07
1.86581e+07
1.86636e+07
1.86692e+07
1.86748e+07
1.86804e+07
1.86861e+07
1.86917e+07
1.86974e+07
1.87031e+07
1.87088e+07
1.87145e+07
1.87203e+07
1.8726e+07
1.87318e+07
1.87375e+07
1.87433e+07
1.87491e+07
1.87549e+07
1.87607e+07
1.87665e+07
1.87723e+07
1.87781e+07
1.8784e+07
1.87898e+07
1.87956e+07
1.88015e+07
1.88073e+07
1.88131e+07
1.8819e+07
1.88248e+07
1.88306e+07
1.88365e+07
1.88423e+07
1.88481e+07
1.88539e+07
1.88597e+07
1.88656e+07
1.88714e+07
1.88771e+07
1.88829e+07
1.88887e+07
1.88945e+07
1.89002e+07
1.8906e+07
1.89117e+07
1.89174e+07
1.89231e+07
1.89288e+07
1.89345e+07
1.89402e+07
1.89458e+07
1.89515e+07
1.89571e+07
1.89627e+07
1.89683e+07
1.89738e+07
1.89794e+07
1.89849e+07
1.89904e+07
1.89959e+07
1.90014e+07
1.90068e+07
1.90122e+07
1.90176e+07
1.9023e+07
1.90284e+07
1.90337e+07
1.9039e+07
1.90443e+07
1.90496e+07
1.90548e+07
1.906e+07
1.90652e+07
1.90704e+07
1.90755e+07
1.90806e+07
1.90857e+07
1.90907e+07
1.90957e+07
1.91007e+07
1.91057e+07
1.91106e+07
1.91155e+07
1.91204e+07
1.91252e+07
1.91301e+07
1.91348e+07
1.91396e+07
1.91443e+07
1.9149e+07
1.91537e+07
1.91583e+07
1.91629e+07
1.91674e+07
1.9172e+07
1.83103e+07
1.83106e+07
1.83111e+07
1.83117e+07
1.83123e+07
1.8313e+07
1.83137e+07
1.83145e+07
1.83153e+07
1.83162e+07
1.83172e+07
1.83182e+07
1.83193e+07
1.83205e+07
1.83217e+07
1.8323e+07
1.83243e+07
1.83257e+07
1.83272e+07
1.83287e+07
1.83303e+07
1.83319e+07
1.83336e+07
1.83354e+07
1.83372e+07
1.83391e+07
1.8341e+07
1.8343e+07
1.83451e+07
1.83472e+07
1.83494e+07
1.83516e+07
1.83539e+07
1.83562e+07
1.83587e+07
1.83611e+07
1.83637e+07
1.83662e+07
1.83689e+07
1.83716e+07
1.83744e+07
1.83772e+07
1.838e+07
1.8383e+07
1.8386e+07
1.8389e+07
1.83921e+07
1.83953e+07
1.83985e+07
1.84017e+07
1.84051e+07
1.84084e+07
1.84119e+07
1.84153e+07
1.84189e+07
1.84224e+07
1.84261e+07
1.84298e+07
1.84335e+07
1.84373e+07
1.84412e+07
1.8445e+07
1.8449e+07
1.8453e+07
1.8457e+07
1.84611e+07
1.84653e+07
1.84695e+07
1.84737e+07
1.8478e+07
1.84823e+07
1.84867e+07
1.84911e+07
1.84955e+07
1.85001e+07
1.85046e+07
1.85092e+07
1.85138e+07
1.85185e+07
1.85232e+07
1.8528e+07
1.85328e+07
1.85376e+07
1.85425e+07
1.85474e+07
1.85524e+07
1.85573e+07
1.85624e+07
1.85674e+07
1.85725e+07
1.85776e+07
1.85828e+07
1.8588e+07
1.85932e+07
1.85985e+07
1.86037e+07
1.86091e+07
1.86144e+07
1.86198e+07
1.86252e+07
1.86306e+07
1.8636e+07
1.86415e+07
1.8647e+07
1.86525e+07
1.86581e+07
1.86636e+07
1.86692e+07
1.86748e+07
1.86804e+07
1.86861e+07
1.86917e+07
1.86974e+07
1.87031e+07
1.87088e+07
1.87145e+07
1.87203e+07
1.8726e+07
1.87318e+07
1.87375e+07
1.87433e+07
1.87491e+07
1.87549e+07
1.87607e+07
1.87665e+07
1.87723e+07
1.87781e+07
1.8784e+07
1.87898e+07
1.87956e+07
1.88015e+07
1.88073e+07
1.88131e+07
1.8819e+07
1.88248e+07
1.88306e+07
1.88365e+07
1.88423e+07
1.88481e+07
1.88539e+07
1.88597e+07
1.88656e+07
1.88714e+07
1.88771e+07
1.88829e+07
1.88887e+07
1.88945e+07
1.89002e+07
1.8906e+07
1.89117e+07
1.89174e+07
1.89231e+07
1.89288e+07
1.89345e+07
1.89402e+07
1.89458e+07
1.89515e+07
1.89571e+07
1.89627e+07
1.89683e+07
1.89738e+07
1.89794e+07
1.89849e+07
1.89904e+07
1.89959e+07
1.90014e+07
1.90068e+07
1.90122e+07
1.90176e+07
1.9023e+07
1.90284e+07
1.90337e+07
1.9039e+07
1.90443e+07
1.90496e+07
1.90548e+07
1.906e+07
1.90652e+07
1.90704e+07
1.90755e+07
1.90806e+07
1.90857e+07
1.90907e+07
1.90957e+07
1.91007e+07
1.91057e+07
1.91106e+07
1.91155e+07
1.91204e+07
1.91252e+07
1.91301e+07
1.91348e+07
1.91396e+07
1.91443e+07
1.9149e+07
1.91537e+07
1.91583e+07
1.91629e+07
1.91674e+07
1.9172e+07
1.83103e+07
1.83106e+07
1.83111e+07
1.83117e+07
1.83123e+07
1.8313e+07
1.83137e+07
1.83145e+07
1.83153e+07
1.83162e+07
1.83172e+07
1.83182e+07
1.83193e+07
1.83205e+07
1.83217e+07
1.8323e+07
1.83243e+07
1.83257e+07
1.83272e+07
1.83287e+07
1.83303e+07
1.83319e+07
1.83336e+07
1.83354e+07
1.83372e+07
1.83391e+07
1.8341e+07
1.8343e+07
1.83451e+07
1.83472e+07
1.83494e+07
1.83516e+07
1.83539e+07
1.83562e+07
1.83587e+07
1.83611e+07
1.83637e+07
1.83662e+07
1.83689e+07
1.83716e+07
1.83744e+07
1.83772e+07
1.838e+07
1.8383e+07
1.8386e+07
1.8389e+07
1.83921e+07
1.83953e+07
1.83985e+07
1.84017e+07
1.84051e+07
1.84084e+07
1.84119e+07
1.84153e+07
1.84189e+07
1.84224e+07
1.84261e+07
1.84298e+07
1.84335e+07
1.84373e+07
1.84412e+07
1.8445e+07
1.8449e+07
1.8453e+07
1.8457e+07
1.84611e+07
1.84653e+07
1.84695e+07
1.84737e+07
1.8478e+07
1.84823e+07
1.84867e+07
1.84911e+07
1.84955e+07
1.85001e+07
1.85046e+07
1.85092e+07
1.85138e+07
1.85185e+07
1.85232e+07
1.8528e+07
1.85328e+07
1.85376e+07
1.85425e+07
1.85474e+07
1.85524e+07
1.85573e+07
1.85624e+07
1.85674e+07
1.85725e+07
1.85776e+07
1.85828e+07
1.8588e+07
1.85932e+07
1.85985e+07
1.86037e+07
1.86091e+07
1.86144e+07
1.86198e+07
1.86252e+07
1.86306e+07
1.8636e+07
1.86415e+07
1.8647e+07
1.86525e+07
1.86581e+07
1.86636e+07
1.86692e+07
1.86748e+07
1.86804e+07
1.86861e+07
1.86917e+07
1.86974e+07
1.87031e+07
1.87088e+07
1.87145e+07
1.87203e+07
1.8726e+07
1.87318e+07
1.87375e+07
1.87433e+07
1.87491e+07
1.87549e+07
1.87607e+07
1.87665e+07
1.87723e+07
1.87781e+07
1.8784e+07
1.87898e+07
1.87956e+07
1.88015e+07
1.88073e+07
1.88131e+07
1.8819e+07
1.88248e+07
1.88306e+07
1.88365e+07
1.88423e+07
1.88481e+07
1.88539e+07
1.88597e+07
1.88656e+07
1.88714e+07
1.88771e+07
1.88829e+07
1.88887e+07
1.88945e+07
1.89002e+07
1.8906e+07
1.89117e+07
1.89174e+07
1.89231e+07
1.89288e+07
1.89345e+07
1.89402e+07
1.89458e+07
1.89515e+07
1.89571e+07
1.89627e+07
1.89683e+07
1.89738e+07
1.89794e+07
1.89849e+07
1.89904e+07
1.89959e+07
1.90014e+07
1.90068e+07
1.90122e+07
1.90176e+07
1.9023e+07
1.90284e+07
1.90337e+07
1.9039e+07
1.90443e+07
1.90496e+07
1.90548e+07
1.906e+07
1.90652e+07
1.90704e+07
1.90755e+07
1.90806e+07
1.90857e+07
1.90907e+07
1.90957e+07
1.91007e+07
1.91057e+07
1.91106e+07
1.91155e+07
1.91204e+07
1.91252e+07
1.91301e+07
1.91348e+07
1.91396e+07
1.91443e+07
1.9149e+07
1.91537e+07
1.91583e+07
1.91629e+07
1.91674e+07
1.9172e+07
1.83103e+07
1.83106e+07
1.83111e+07
1.83117e+07
1.83123e+07
1.8313e+07
1.83137e+07
1.83145e+07
1.83153e+07
1.83162e+07
1.83172e+07
1.83182e+07
1.83193e+07
1.83205e+07
1.83217e+07
1.8323e+07
1.83243e+07
1.83257e+07
1.83272e+07
1.83287e+07
1.83303e+07
1.83319e+07
1.83336e+07
1.83354e+07
1.83372e+07
1.83391e+07
1.8341e+07
1.8343e+07
1.83451e+07
1.83472e+07
1.83494e+07
1.83516e+07
1.83539e+07
1.83562e+07
1.83587e+07
1.83611e+07
1.83637e+07
1.83662e+07
1.83689e+07
1.83716e+07
1.83744e+07
1.83772e+07
1.838e+07
1.8383e+07
1.8386e+07
1.8389e+07
1.83921e+07
1.83953e+07
1.83985e+07
1.84017e+07
1.84051e+07
1.84084e+07
1.84119e+07
1.84153e+07
1.84189e+07
1.84224e+07
1.84261e+07
1.84298e+07
1.84335e+07
1.84373e+07
1.84412e+07
1.8445e+07
1.8449e+07
1.8453e+07
1.8457e+07
1.84611e+07
1.84653e+07
1.84695e+07
1.84737e+07
1.8478e+07
1.84823e+07
1.84867e+07
1.84911e+07
1.84955e+07
1.85001e+07
1.85046e+07
1.85092e+07
1.85138e+07
1.85185e+07
1.85232e+07
1.8528e+07
1.85328e+07
1.85376e+07
1.85425e+07
1.85474e+07
1.85524e+07
1.85573e+07
1.85624e+07
1.85674e+07
1.85725e+07
1.85776e+07
1.85828e+07
1.8588e+07
1.85932e+07
1.85985e+07
1.86037e+07
1.86091e+07
1.86144e+07
1.86198e+07
1.86252e+07
1.86306e+07
1.8636e+07
1.86415e+07
1.8647e+07
1.86525e+07
1.86581e+07
1.86636e+07
1.86692e+07
1.86748e+07
1.86804e+07
1.86861e+07
1.86917e+07
1.86974e+07
1.87031e+07
1.87088e+07
1.87145e+07
1.87203e+07
1.8726e+07
1.87318e+07
1.87375e+07
1.87433e+07
1.87491e+07
1.87549e+07
1.87607e+07
1.87665e+07
1.87723e+07
1.87781e+07
1.8784e+07
1.87898e+07
1.87956e+07
1.88015e+07
1.88073e+07
1.88131e+07
1.8819e+07
1.88248e+07
1.88306e+07
1.88365e+07
1.88423e+07
1.88481e+07
1.88539e+07
1.88597e+07
1.88656e+07
1.88714e+07
1.88771e+07
1.88829e+07
1.88887e+07
1.88945e+07
1.89002e+07
1.8906e+07
1.89117e+07
1.89174e+07
1.89231e+07
1.89288e+07
1.89345e+07
1.89402e+07
1.89458e+07
1.89515e+07
1.89571e+07
1.89627e+07
1.89683e+07
1.89738e+07
1.89794e+07
1.89849e+07
1.89904e+07
1.89959e+07
1.90014e+07
1.90068e+07
1.90122e+07
1.90176e+07
1.9023e+07
1.90284e+07
1.90337e+07
1.9039e+07
1.90443e+07
1.90496e+07
1.90548e+07
1.906e+07
1.90652e+07
1.90704e+07
1.90755e+07
1.90806e+07
1.90857e+07
1.90907e+07
1.90957e+07
1.91007e+07
1.91057e+07
1.91106e+07
1.91155e+07
1.91204e+07
1.91252e+07
1.91301e+07
1.91348e+07
1.91396e+07
1.91443e+07
1.9149e+07
1.91537e+07
1.91583e+07
1.91629e+07
1.91674e+07
1.9172e+07
1.83103e+07
1.83106e+07
1.83111e+07
1.83117e+07
1.83123e+07
1.8313e+07
1.83137e+07
1.83145e+07
1.83153e+07
1.83162e+07
1.83172e+07
1.83182e+07
1.83193e+07
1.83205e+07
1.83217e+07
1.8323e+07
1.83243e+07
1.83257e+07
1.83272e+07
1.83287e+07
1.83303e+07
1.83319e+07
1.83336e+07
1.83354e+07
1.83372e+07
1.83391e+07
1.8341e+07
1.8343e+07
1.83451e+07
1.83472e+07
1.83494e+07
1.83516e+07
1.83539e+07
1.83562e+07
1.83587e+07
1.83611e+07
1.83637e+07
1.83662e+07
1.83689e+07
1.83716e+07
1.83744e+07
1.83772e+07
1.838e+07
1.8383e+07
1.8386e+07
1.8389e+07
1.83921e+07
1.83953e+07
1.83985e+07
1.84017e+07
1.84051e+07
1.84084e+07
1.84119e+07
1.84153e+07
1.84189e+07
1.84224e+07
1.84261e+07
1.84298e+07
1.84335e+07
1.84373e+07
1.84412e+07
1.8445e+07
1.8449e+07
1.8453e+07
1.8457e+07
1.84611e+07
1.84653e+07
1.84695e+07
1.84737e+07
1.8478e+07
1.84823e+07
1.84867e+07
1.84911e+07
1.84955e+07
1.85001e+07
1.85046e+07
1.85092e+07
1.85138e+07
1.85185e+07
1.85232e+07
1.8528e+07
1.85328e+07
1.85376e+07
1.85425e+07
1.85474e+07
1.85524e+07
1.85573e+07
1.85624e+07
1.85674e+07
1.85725e+07
1.85776e+07
1.85828e+07
1.8588e+07
1.85932e+07
1.85985e+07
1.86037e+07
1.86091e+07
1.86144e+07
1.86198e+07
1.86252e+07
1.86306e+07
1.8636e+07
1.86415e+07
1.8647e+07
1.86525e+07
1.86581e+07
1.86636e+07
1.86692e+07
1.86748e+07
1.86804e+07
1.86861e+07
1.86917e+07
1.86974e+07
1.87031e+07
1.87088e+07
1.87145e+07
1.87203e+07
1.8726e+07
1.87318e+07
1.87375e+07
1.87433e+07
1.87491e+07
1.87549e+07
1.87607e+07
1.87665e+07
1.87723e+07
1.87781e+07
1.8784e+07
1.87898e+07
1.87956e+07
1.88015e+07
1.88073e+07
1.88131e+07
1.8819e+07
1.88248e+07
1.88306e+07
1.88365e+07
1.88423e+07
1.88481e+07
1.88539e+07
1.88597e+07
1.88656e+07
1.88714e+07
1.88771e+07
1.88829e+07
1.88887e+07
1.88945e+07
1.89002e+07
1.8906e+07
1.89117e+07
1.89174e+07
1.89231e+07
1.89288e+07
1.89345e+07
1.89402e+07
1.89458e+07
1.89515e+07
1.89571e+07
1.89627e+07
1.89683e+07
1.89738e+07
1.89794e+07
1.89849e+07
1.89904e+07
1.89959e+07
1.90014e+07
1.90068e+07
1.90122e+07
1.90176e+07
1.9023e+07
1.90284e+07
1.90337e+07
1.9039e+07
1.90443e+07
1.90496e+07
1.90548e+07
1.906e+07
1.90652e+07
1.90704e+07
1.90755e+07
1.90806e+07
1.90857e+07
1.90907e+07
1.90957e+07
1.91007e+07
1.91057e+07
1.91106e+07
1.91155e+07
1.91204e+07
1.91252e+07
1.91301e+07
1.91348e+07
1.91396e+07
1.91443e+07
1.9149e+07
1.91537e+07
1.91583e+07
1.91629e+07
1.91674e+07
1.9172e+07
1.91749e+07
1.9176e+07
1.91769e+07
1.91778e+07
1.91787e+07
1.91795e+07
1.91803e+07
1.91812e+07
1.9182e+07
1.91829e+07
1.91837e+07
1.91845e+07
1.91853e+07
1.91862e+07
1.9187e+07
1.91878e+07
1.91886e+07
1.91893e+07
1.91901e+07
1.91909e+07
1.91748e+07
1.91759e+07
1.91769e+07
1.91778e+07
1.91786e+07
1.91795e+07
1.91803e+07
1.91811e+07
1.9182e+07
1.91828e+07
1.91836e+07
1.91845e+07
1.91853e+07
1.91861e+07
1.91869e+07
1.91877e+07
1.91885e+07
1.91893e+07
1.91901e+07
1.91909e+07
1.91748e+07
1.91759e+07
1.91769e+07
1.91778e+07
1.91786e+07
1.91795e+07
1.91803e+07
1.91811e+07
1.9182e+07
1.91828e+07
1.91836e+07
1.91845e+07
1.91853e+07
1.91861e+07
1.91869e+07
1.91877e+07
1.91885e+07
1.91893e+07
1.91901e+07
1.91909e+07
1.91747e+07
1.91757e+07
1.91766e+07
1.91774e+07
1.91783e+07
1.91792e+07
1.918e+07
1.91808e+07
1.91817e+07
1.91825e+07
1.91834e+07
1.91842e+07
1.9185e+07
1.91858e+07
1.91866e+07
1.91874e+07
1.91881e+07
1.91889e+07
1.91897e+07
1.91905e+07
1.91749e+07
1.91758e+07
1.91768e+07
1.91776e+07
1.91785e+07
1.91793e+07
1.91801e+07
1.91809e+07
1.91817e+07
1.91825e+07
1.91833e+07
1.91841e+07
1.91849e+07
1.91857e+07
1.91865e+07
1.91873e+07
1.91881e+07
1.91889e+07
1.91897e+07
1.91905e+07
1.91744e+07
1.91751e+07
1.91758e+07
1.91766e+07
1.91774e+07
1.91782e+07
1.9179e+07
1.91799e+07
1.91807e+07
1.91815e+07
1.91824e+07
1.91832e+07
1.9184e+07
1.91848e+07
1.91856e+07
1.91864e+07
1.91872e+07
1.9188e+07
1.91888e+07
1.91896e+07
1.91746e+07
1.91753e+07
1.91761e+07
1.9177e+07
1.91777e+07
1.91785e+07
1.91793e+07
1.91801e+07
1.91808e+07
1.91816e+07
1.91824e+07
1.91832e+07
1.91839e+07
1.91847e+07
1.91855e+07
1.91863e+07
1.91871e+07
1.91879e+07
1.91888e+07
1.91896e+07
1.9174e+07
1.91743e+07
1.91748e+07
1.91753e+07
1.9176e+07
1.91768e+07
1.91776e+07
1.91784e+07
1.91792e+07
1.91801e+07
1.91809e+07
1.91818e+07
1.91826e+07
1.91835e+07
1.91844e+07
1.91853e+07
1.91862e+07
1.91871e+07
1.9188e+07
1.91889e+07
1.91739e+07
1.91743e+07
1.91748e+07
1.91754e+07
1.91761e+07
1.91769e+07
1.91776e+07
1.91784e+07
1.91793e+07
1.91801e+07
1.91809e+07
1.91818e+07
1.91826e+07
1.91835e+07
1.91844e+07
1.91853e+07
1.91862e+07
1.91871e+07
1.9188e+07
1.91889e+07
1.91737e+07
1.91739e+07
1.91743e+07
1.91749e+07
1.91756e+07
1.91764e+07
1.91771e+07
1.9178e+07
1.91788e+07
1.91796e+07
1.91805e+07
1.91813e+07
1.91822e+07
1.91831e+07
1.9184e+07
1.91849e+07
1.91858e+07
1.91867e+07
1.91877e+07
1.91886e+07
1.91925e+07
1.91956e+07
1.91988e+07
1.92021e+07
1.92054e+07
1.92087e+07
1.92119e+07
1.92151e+07
1.92184e+07
1.92216e+07
1.92247e+07
1.92279e+07
1.92311e+07
1.92342e+07
1.92373e+07
1.92404e+07
1.92435e+07
1.92466e+07
1.92496e+07
1.92526e+07
1.92556e+07
1.92586e+07
1.92615e+07
1.92645e+07
1.92674e+07
1.92703e+07
1.92731e+07
1.9276e+07
1.92788e+07
1.92816e+07
1.92844e+07
1.92871e+07
1.92899e+07
1.92926e+07
1.92953e+07
1.92979e+07
1.93006e+07
1.93032e+07
1.93058e+07
1.93084e+07
1.93109e+07
1.93135e+07
1.9316e+07
1.93185e+07
1.93209e+07
1.93234e+07
1.93258e+07
1.93282e+07
1.93306e+07
1.93329e+07
1.93353e+07
1.93376e+07
1.93399e+07
1.93421e+07
1.93444e+07
1.93466e+07
1.93488e+07
1.9351e+07
1.93531e+07
1.93552e+07
1.93573e+07
1.93594e+07
1.93615e+07
1.93635e+07
1.93656e+07
1.93676e+07
1.93695e+07
1.93715e+07
1.93734e+07
1.93753e+07
1.93772e+07
1.93791e+07
1.9381e+07
1.93828e+07
1.93846e+07
1.93864e+07
1.93881e+07
1.93899e+07
1.93916e+07
1.93933e+07
1.9395e+07
1.93966e+07
1.93983e+07
1.93999e+07
1.94015e+07
1.94031e+07
1.94046e+07
1.94062e+07
1.94077e+07
1.94092e+07
1.94107e+07
1.94121e+07
1.94135e+07
1.9415e+07
1.94164e+07
1.94177e+07
1.94191e+07
1.94204e+07
1.94217e+07
1.9423e+07
1.94242e+07
1.94254e+07
1.94266e+07
1.94278e+07
1.9429e+07
1.94301e+07
1.94313e+07
1.94324e+07
1.94335e+07
1.94345e+07
1.94356e+07
1.94366e+07
1.94376e+07
1.94386e+07
1.94396e+07
1.94405e+07
1.94414e+07
1.94424e+07
1.94433e+07
1.94441e+07
1.9445e+07
1.94458e+07
1.94466e+07
1.94475e+07
1.94482e+07
1.9449e+07
1.94498e+07
1.94505e+07
1.94512e+07
1.94519e+07
1.94526e+07
1.94533e+07
1.94539e+07
1.94546e+07
1.94552e+07
1.94558e+07
1.94564e+07
1.9457e+07
1.94575e+07
1.94581e+07
1.94586e+07
1.94591e+07
1.94596e+07
1.94601e+07
1.94606e+07
1.9461e+07
1.94615e+07
1.94619e+07
1.94624e+07
1.94628e+07
1.94632e+07
1.94636e+07
1.9464e+07
1.94643e+07
1.94647e+07
1.9465e+07
1.94654e+07
1.94657e+07
1.9466e+07
1.94663e+07
1.94666e+07
1.94669e+07
1.94672e+07
1.94674e+07
1.94677e+07
1.9468e+07
1.94682e+07
1.94684e+07
1.94687e+07
1.94689e+07
1.94691e+07
1.94693e+07
1.94695e+07
1.94697e+07
1.94699e+07
1.94701e+07
1.94703e+07
1.94704e+07
1.94706e+07
1.94708e+07
1.94709e+07
1.94711e+07
1.94712e+07
1.94714e+07
1.94715e+07
1.94716e+07
1.94718e+07
1.94719e+07
1.9472e+07
1.94721e+07
1.94722e+07
1.94723e+07
1.94724e+07
1.94725e+07
1.94726e+07
1.94727e+07
1.94728e+07
1.94729e+07
1.9473e+07
1.94731e+07
1.91925e+07
1.91956e+07
1.91988e+07
1.92021e+07
1.92054e+07
1.92087e+07
1.92119e+07
1.92151e+07
1.92184e+07
1.92216e+07
1.92247e+07
1.92279e+07
1.92311e+07
1.92342e+07
1.92373e+07
1.92404e+07
1.92435e+07
1.92466e+07
1.92496e+07
1.92526e+07
1.92556e+07
1.92586e+07
1.92615e+07
1.92645e+07
1.92674e+07
1.92703e+07
1.92731e+07
1.9276e+07
1.92788e+07
1.92816e+07
1.92844e+07
1.92871e+07
1.92899e+07
1.92926e+07
1.92953e+07
1.92979e+07
1.93006e+07
1.93032e+07
1.93058e+07
1.93084e+07
1.93109e+07
1.93135e+07
1.9316e+07
1.93185e+07
1.93209e+07
1.93234e+07
1.93258e+07
1.93282e+07
1.93306e+07
1.93329e+07
1.93353e+07
1.93376e+07
1.93399e+07
1.93421e+07