/*--------------------------------*- C++ -*----------------------------------*\
| =========                 |                                                 |
| \\      /  F ield         | OpenFOAM: The Open Source CFD Toolbox           |
|  \\    /   O peration     | Version:  3.0.x                                 |
|   \\  /    A nd           | Web:      www.OpenFOAM.org                      |
|    \\/     M anipulation  |                                                 |
\*---------------------------------------------------------------------------*/
FoamFile
{
    version     2.0;
    format      ascii;
    class       surfaceScalarField;
    location    "0.53";
    object      phi;
}
// * * * * * * * * * * * * * * * * * * * * * * * * * * * * * * * * * * * * * //

dimensions      [1 0 -1 0 0 0 0];

internalField   nonuniform List<scalar> 
26210
(
3.94543
0.000506144
3.9301
0.000350498
3.91474
0.000345741
3.89934
0.000348452
3.88391
0.000349422
3.86843
0.00034981
3.85293
0.000349844
3.83741
0.000350143
3.82186
0.000348815
3.80629
0.000351231
3.7907
0.000350478
3.7751
0.000350996
3.75947
0.000350925
3.74383
0.000351397
3.72818
0.000351496
3.71251
0.000352042
3.69682
0.000352194
3.68111
0.000352068
3.66538
0.000352317
3.64964
0.00035194
3.63387
0.000351695
3.61809
0.000351686
3.60229
0.000351781
3.58647
0.000351805
3.57063
0.000351898
3.55477
0.000352124
3.53888
0.000352222
3.52298
0.000352498
3.50706
0.000352949
3.49112
0.000353196
3.47516
0.000353414
3.45917
0.00035334
3.44317
0.000353415
3.42714
0.00035361
3.41109
0.000353813
3.39502
0.000354379
3.37893
0.000354555
3.36282
0.000354871
3.34669
0.000354817
3.33053
0.000354784
3.31436
0.000354973
3.29816
0.000355423
3.28194
0.000355447
3.26569
0.000356325
3.24943
0.00035648
3.23314
0.000357216
3.21683
0.000357147
3.2005
0.000357352
3.18415
0.000357226
3.16778
0.000357378
3.15139
0.000357291
3.13498
0.000357446
3.11854
0.000358339
3.10209
0.000358857
3.08561
0.000359291
3.06911
0.000359425
3.05259
0.000359429
3.03606
0.000359281
3.0195
0.000359276
3.00292
0.000359467
2.98632
0.000360258
2.96971
0.000360364
2.95307
0.000360824
2.93642
0.00036074
2.91975
0.000361317
2.90306
0.000360951
2.88635
0.000361275
2.86963
0.000360673
2.85289
0.000359816
2.83613
0.00035838
2.81936
0.000356797
2.80257
0.000355229
2.78577
0.000353028
2.76895
0.000349526
2.75213
0.000345349
2.7353
0.000340861
2.71846
0.000335301
2.70161
0.000328722
2.68476
0.000320636
2.66791
0.00031198
2.65105
0.000302836
2.63419
0.000293042
2.61734
0.000281791
2.60048
0.000269581
2.58363
0.000256436
2.56678
0.000242369
2.54994
0.000227354
2.53311
0.000211925
2.51628
0.000196883
2.49946
0.000181747
2.48266
0.00016635
2.46586
0.0001508
2.44907
0.000136264
2.43229
0.000122308
2.41551
0.000109365
2.39875
9.69199e-05
2.382
8.54572e-05
2.36525
7.44016e-05
2.34851
6.40767e-05
2.33178
5.51479e-05
2.31506
4.73979e-05
2.29835
4.06752e-05
2.28164
3.5327e-05
2.26494
3.09356e-05
2.24824
2.65237e-05
2.23156
2.19186e-05
2.21488
1.86216e-05
2.19821
1.56033e-05
2.18155
1.34805e-05
2.16489
1.1633e-05
2.14825
9.63265e-06
2.13161
7.14659e-06
2.11499
5.66874e-06
2.09838
4.98394e-06
2.08178
5.4241e-06
2.06518
5.88258e-06
2.0486
4.77444e-06
2.03204
4.48943e-06
2.01548
4.19223e-06
1.99895
4.01745e-06
1.98243
3.30431e-06
1.96592
3.61155e-06
1.94943
2.74305e-06
1.93296
4.16473e-06
1.91651
4.38828e-06
1.90008
4.57721e-06
1.88366
5.0335e-06
1.86727
3.33291e-06
1.85091
2.41312e-06
1.83457
2.83958e-06
1.81825
1.8658e-06
1.80195
1.66801e-06
1.78569
1.06095e-06
1.76945
1.45834e-06
1.75324
2.82792e-06
1.73706
1.3635e-06
1.72091
1.63169e-06
1.70479
1.72876e-06
1.68871
2.03257e-06
1.67265
1.7839e-06
1.65663
1.49293e-06
1.64065
1.91139e-06
1.6247
1.62107e-06
1.60879
8.01712e-07
1.59292
-6.46858e-07
1.57709
-1.00456e-06
1.5613
-3.87772e-08
1.54555
5.46181e-07
1.52985
-2.73285e-08
1.51419
-9.21344e-07
1.49857
-7.41566e-07
1.483
1.80567e-07
1.46747
1.48973e-06
1.45199
1.31196e-06
1.43656
1.27812e-06
1.42118
-3.64264e-07
1.40585
-1.98188e-06
1.39057
-1.68151e-06
1.37535
-7.51268e-07
1.36018
-6.6567e-07
1.34506
-1.20879e-06
1.33
-1.84462e-06
1.315
-2.34241e-06
1.30005
-2.62422e-06
1.28517
-2.93014e-06
1.27034
-2.6023e-06
1.25558
-1.9133e-06
1.24087
-2.82375e-06
1.22623
-3.41932e-06
1.21166
-2.96639e-06
1.19714
-2.28312e-06
1.1827
-3.4462e-06
1.16832
-3.84262e-06
1.15401
-4.78618e-06
1.13976
-4.44401e-06
1.12559
-5.0628e-06
1.11149
-2.71141e-06
1.09746
-3.28367e-06
1.0835
-2.50714e-06
1.06961
-5.7534e-06
1.0558
-5.0048e-06
1.04206
-4.66768e-06
1.0284
-2.89919e-06
1.01481
-3.91057e-06
1.0013
-6.06477e-06
0.987876
-7.59573e-06
0.974522
-5.11526e-06
0.961251
-6.87025e-06
0.948059
-7.01683e-06
0.93495
-8.82475e-06
0.921915
-3.04143e-06
0.908969
-7.13089e-06
0.896098
-2.07194e-06
0.883297
1.2792e-05
0.870501
9.36869e-05
0.857426
0.000453005
0.842829
0.00206539
0.821249
0.00912675
0.759056
0.049837
0.124773
0.622014
5.58049
0.000462589
5.55933
0.000332651
5.53812
0.000321213
5.51686
0.000325817
5.49555
0.000326908
5.47418
0.000327021
5.45277
0.000326741
5.43134
0.000326656
5.40987
0.000325513
5.38837
0.000327864
5.36684
0.000327577
5.34529
0.000328337
5.32372
0.000328406
5.30212
0.000328532
5.2805
0.000328289
5.25885
0.000328521
5.23718
0.000328594
5.21549
0.000328748
5.19377
0.000329175
5.17202
0.000329127
5.15024
0.000329248
5.12844
0.000329348
5.10662
0.0003294
5.08477
0.000329199
5.06288
0.00032912
5.04097
0.000329467
5.01903
0.000329844
4.99706
0.000330186
4.97507
0.000330794
4.95304
0.000330882
4.93099
0.000331039
4.9089
0.000330743
4.88679
0.000330701
4.86465
0.000330701
4.84248
0.000331025
4.82028
0.000332041
4.79804
0.000332842
4.77578
0.000333434
4.75348
0.000333525
4.73116
0.000333052
4.70881
0.000332897
4.68642
0.000333061
4.66401
0.000333129
4.64156
0.000334095
4.61908
0.000334644
4.59658
0.00033563
4.57404
0.000335821
4.55147
0.000336218
4.52887
0.000335999
4.50625
0.000335746
4.48359
0.000335501
4.46091
0.000335583
4.43819
0.000336918
4.41545
0.000337717
4.39267
0.000338343
4.36987
0.000338071
4.34704
0.000337646
4.32419
0.000337113
4.3013
0.000336923
4.27838
0.000337046
4.25544
0.000338192
4.23248
0.000338649
4.20948
0.000339075
4.18646
0.000339319
4.16342
0.000340108
4.14035
0.000339797
4.11725
0.000340223
4.09413
0.000339951
4.07098
0.000338704
4.04781
0.000336759
4.02461
0.000334992
4.0014
0.000333403
3.97816
0.000331954
3.9549
0.000328896
3.93161
0.000324851
3.90831
0.000320155
3.88499
0.000313855
3.86165
0.000306753
3.8383
0.000298651
3.81492
0.00029014
3.79153
0.000281936
3.76813
0.000273336
3.7447
0.000262699
3.72126
0.000251146
3.69781
0.000238651
3.67435
0.000224738
3.65087
0.000209793
3.62738
0.000194835
3.60388
0.000180026
3.58037
0.000165931
3.55685
0.000151802
3.53331
0.00013737
3.50977
0.000123995
3.48623
0.000111403
3.46267
9.9446e-05
3.43911
8.70426e-05
3.41555
7.62731e-05
3.39198
6.62496e-05
3.36841
5.64001e-05
3.34483
4.82374e-05
3.32126
4.17308e-05
3.29768
3.55497e-05
3.27411
3.05415e-05
3.25054
2.67375e-05
3.22697
2.27702e-05
3.20341
1.93932e-05
3.17985
1.6867e-05
3.15629
1.42151e-05
3.13275
1.24034e-05
3.10921
1.05949e-05
3.08569
8.5899e-06
3.06218
6.62654e-06
3.03867
5.45968e-06
3.01519
4.64941e-06
2.99171
5.15674e-06
2.96826
5.75435e-06
2.94482
4.15188e-06
2.92139
3.92005e-06
2.89799
4.14273e-06
2.87461
3.54669e-06
2.85125
3.35732e-06
2.82791
3.49635e-06
2.8046
2.22266e-06
2.78131
4.26461e-06
2.75805
4.17864e-06
2.73482
3.98228e-06
2.71161
5.05394e-06
2.68844
3.03192e-06
2.6653
1.85111e-06
2.64219
2.95541e-06
2.61912
1.63923e-06
2.59608
1.65102e-06
2.57308
1.13955e-06
2.55012
8.17798e-07
2.52719
2.96446e-06
2.50431
1.20524e-06
2.48148
1.66701e-06
2.45868
1.84876e-06
2.43594
1.67876e-06
2.41324
1.83708e-06
2.39058
1.26766e-06
2.36798
2.06794e-06
2.34543
1.38632e-06
2.32293
1.15811e-06
2.30049
-1.18527e-06
2.2781
-8.25603e-07
2.25577
-2.70724e-07
2.2335
1.23976e-06
2.21128
-2.13897e-07
2.18913
-1.07347e-06
2.16704
-6.14318e-07
2.14502
-8.86737e-07
2.12307
1.75565e-07
2.10118
3.50574e-07
2.07935
2.19304e-06
2.0576
2.65556e-07
2.03592
-8.97733e-07
2.01431
-8.50505e-07
1.99278
-1.31025e-06
1.97132
-5.2265e-07
1.94995
-1.00188e-06
1.92865
-1.50046e-06
1.90742
-2.09116e-06
1.88629
-2.61099e-06
1.86523
-2.11198e-06
1.84426
-3.28789e-06
1.82337
-1.31603e-06
1.80257
-2.43812e-06
1.78186
-2.88716e-06
1.76125
-3.75794e-06
1.74072
-2.61265e-06
1.72028
-2.84417e-06
1.69994
-3.28552e-06
1.67969
-3.37735e-06
1.65955
-4.29782e-06
1.6395
-4.86332e-06
1.61955
-2.56813e-06
1.5997
-3.06009e-06
1.57995
-2.20614e-06
1.56031
-6.0358e-06
1.54077
-5.0161e-06
1.52133
-4.30813e-06
1.502
-1.75601e-06
1.48278
-3.81804e-06
1.46367
-5.62763e-06
1.44467
-8.53688e-06
1.42578
-2.68141e-06
1.407
-8.22472e-06
1.38833
-6.00102e-06
1.36978
-9.6508e-06
1.35134
3.18079e-07
1.33302
-6.85898e-06
1.31481
7.77731e-06
1.29669
4.15986e-05
1.27858
0.00024095
1.26007
0.00111589
1.23934
0.00507072
1.20843
0.0224297
1.12511
0.115683
0.283829
0.948684
7.89201
0.000404618
7.86209
0.000304674
7.83209
0.000286869
7.80202
0.000293157
7.77188
0.000294362
7.74166
0.000294123
7.71139
0.000293527
7.68108
0.000292908
7.65072
0.000292046
7.62031
0.000294103
7.58986
0.000294066
7.55939
0.000294665
7.52888
0.000294563
7.49834
0.000294579
7.46776
0.000294522
7.43715
0.000295158
7.40651
0.000295989
7.37582
0.000296649
7.3451
0.000297236
7.31435
0.000297049
7.28355
0.000296539
7.25273
0.000295529
7.22186
0.000294535
7.19096
0.000293608
7.16002
0.000293638
7.12903
0.000294899
7.098
0.000296234
7.06694
0.00029734
7.03583
0.000298517
7.00468
0.000298474
6.9735
0.000297872
6.94227
0.000297486
6.911
0.000296805
6.87969
0.000296487
6.84834
0.000296171
6.81694
0.00029659
6.7855
0.000297577
6.75402
0.000298621
6.7225
0.000299539
6.69093
0.000299547
6.65932
0.00029982
6.62766
0.000299751
6.59597
0.000299224
6.56422
0.000299688
6.53244
0.000300063
6.50061
0.000300827
6.46874
0.000301198
6.43683
0.000302441
6.40488
0.000302543
6.37288
0.000302431
6.34085
0.000302564
6.30877
0.00030282
6.27665
0.000304018
6.24448
0.000304473
6.21228
0.000304311
6.18004
0.000302917
6.14776
0.000301913
6.11544
0.00030113
6.08308
0.000300959
6.05067
0.000301388
6.01824
0.000303588
5.98576
0.000305271
5.95324
0.000306037
5.92069
0.000305807
5.8881
0.000306509
5.85548
0.000305453
5.82283
0.000306204
5.79013
0.000305686
5.7574
0.000303651
5.72463
0.000301007
5.69184
0.000299012
5.65901
0.000298003
5.62615
0.000298132
5.59325
0.000296193
5.56032
0.000292479
5.52737
0.000288231
5.49439
0.00028294
5.46139
0.000276266
5.42836
0.00026856
5.3953
0.000260951
5.36222
0.000253675
5.32912
0.000246193
5.29599
0.000236581
5.26284
0.000226566
5.22967
0.00021518
5.19648
0.000202583
5.16328
0.000189238
5.13006
0.000175429
5.09682
0.000162104
5.06356
0.000149198
5.03029
0.000135775
4.99701
0.000121982
4.96371
0.000110334
4.93041
9.95715e-05
4.8971
9.00491e-05
4.86377
7.88111e-05
4.83044
6.93585e-05
4.7971
6.02222e-05
4.76376
5.09973e-05
4.73042
4.32241e-05
4.69707
3.76253e-05
4.66373
3.2127e-05
4.63039
2.75564e-05
4.59705
2.3837e-05
4.56372
2.03727e-05
4.53039
1.75963e-05
4.49707
1.53459e-05
4.46376
1.27175e-05
4.43046
1.12387e-05
4.39718
9.36172e-06
4.36391
7.29585e-06
4.33066
6.22956e-06
4.29742
5.03248e-06
4.2642
3.9955e-06
4.23101
4.90568e-06
4.19784
5.25737e-06
4.16469
3.76827e-06
4.13156
3.20515e-06
4.09847
3.66103e-06
4.0654
2.93151e-06
4.03236
2.99307e-06
3.99936
3.75644e-06
3.96639
1.53303e-06
3.93346
3.97751e-06
3.90056
3.93391e-06
3.8677
3.26688e-06
3.83488
4.8696e-06
3.80211
2.95058e-06
3.76939
1.03823e-06
3.73671
2.68058e-06
3.70408
1.44209e-06
3.67149
2.01828e-06
3.63897
7.01016e-07
3.6065
6.24702e-07
3.57408
3.04056e-06
3.54172
5.41935e-07
3.50942
1.54239e-06
3.47719
1.99976e-06
3.44502
1.08138e-06
3.41292
2.06283e-06
3.38088
1.02345e-06
3.34892
2.1047e-06
3.31702
1.32084e-06
3.28521
1.13911e-06
3.25347
-1.23087e-06
3.22181
-1.3034e-06
3.19022
-1.27289e-07
3.15873
2.08094e-06
3.12731
-4.75543e-07
3.09599
-1.31058e-06
3.06475
-5.59641e-07
3.0336
-4.47529e-07
3.00255
1.62833e-07
2.97159
2.70593e-08
2.94073
1.84844e-06
2.90997
-4.77032e-07
2.87931
4.98851e-07
2.84876
-6.67854e-07
2.81831
-2.2915e-06
2.78796
-5.05528e-07
2.75773
-2.86189e-07
2.7276
-1.58712e-06
2.69759
-1.78347e-06
2.6677
-2.2164e-06
2.63792
-2.02532e-06
2.60826
-3.21121e-06
2.57873
-9.9697e-08
2.54931
-2.40226e-06
2.52002
-2.52203e-06
2.49087
-4.82476e-06
2.46183
-2.50375e-06
2.43293
-2.303e-06
2.40417
-1.88249e-06
2.37553
-2.6907e-06
2.34704
-4.49073e-06
2.31869
-4.00078e-06
2.29047
-1.82047e-06
2.2624
-3.87563e-06
2.23447
-1.37518e-06
2.20669
-6.10608e-06
2.17906
-4.21052e-06
2.15158
-4.33744e-06
2.12424
-2.5813e-07
2.09706
-4.64793e-06
2.07003
-3.70387e-06
2.04316
-1.0711e-05
2.01644
3.90499e-07
1.98989
-1.03634e-05
1.96348
-2.26462e-06
1.93725
-1.17242e-05
1.91117
5.31987e-06
1.88526
-7.65006e-06
1.8595
2.08522e-05
1.83389
7.97875e-05
1.80829
0.000435862
1.78218
0.00198439
1.75318
0.00900645
1.71109
0.0396135
1.60108
0.200976
0.494034
1.36632
34.837
0.000187576
34.7049
0.0001584
34.5725
0.00014142
34.4398
0.0001456
34.3067
0.000146917
34.1733
0.000146482
34.0397
0.000146467
33.9059
0.000145645
33.7719
0.000145598
33.6376
0.000147728
33.5032
0.000147803
33.3687
0.000148765
33.2341
0.000148717
33.0992
0.000147277
32.9643
0.000145403
32.8291
0.000145418
32.6939
0.000147097
32.5584
0.000149023
32.4228
0.000150897
32.2871
0.000151631
32.1512
0.000151248
32.0151
0.000150035
31.8788
0.000148005
31.7424
0.000145908
31.6058
0.000145101
31.469
0.000145825
31.3321
0.000146625
31.195
0.000147769
31.0576
0.00014822
30.9202
0.000149121
30.7825
0.00014987
30.6446
0.000150785
30.5066
0.000150493
30.3684
0.000150061
30.23
0.000149147
30.0914
0.000149233
29.9526
0.000149718
29.8136
0.000149646
29.6745
0.000149483
29.5351
0.000150008
29.3956
0.00014874
29.2559
0.000148098
29.116
0.000147403
28.9758
0.000147917
28.8355
0.000150144
28.695
0.000151555
28.5544
0.000152225
28.4135
0.000152682
28.2725
0.00015219
28.1312
0.000152385
27.9898
0.000151839
27.8482
0.000151645
27.7064
0.000151968
27.5645
0.000151137
27.4223
0.000149264
27.28
0.000147899
27.1375
0.000146597
26.9948
0.000146007
26.852
0.00014792
26.7089
0.00015118
26.5657
0.000154725
26.4224
0.000156896
26.2789
0.000157111
26.1352
0.000155897
25.9913
0.000153589
25.8473
0.000151914
25.7032
0.000151371
25.5589
0.000151801
25.4144
0.000152109
25.2697
0.000150645
25.1249
0.000148256
24.98
0.000148667
24.835
0.000149071
24.6898
0.000149043
24.5444
0.000146749
24.399
0.000143361
24.2534
0.00014058
24.1077
0.000137581
23.9619
0.000136
23.816
0.000132491
23.67
0.000127294
23.5238
0.000121194
23.3776
0.000117487
23.2313
0.000113079
23.0849
0.000108533
22.9384
0.000103028
22.7918
9.59201e-05
22.6452
8.98476e-05
22.4984
8.22919e-05
22.3516
7.50877e-05
22.2048
6.81473e-05
22.0579
6.11901e-05
21.9109
5.51565e-05
21.7639
4.98407e-05
21.6168
4.49314e-05
21.4697
3.95341e-05
21.3226
3.4563e-05
21.1754
2.99939e-05
21.0283
2.48191e-05
20.8811
2.21826e-05
20.7339
1.89861e-05
20.5867
1.52491e-05
20.4395
1.43495e-05
20.2924
1.23121e-05
20.1452
1.01579e-05
19.9981
8.7402e-06
19.851
7.69943e-06
19.704
6.40801e-06
19.557
5.59358e-06
19.4101
4.68661e-06
19.2632
3.64877e-06
19.1165
3.08312e-06
18.9697
2.56397e-06
18.8231
2.02943e-06
18.6766
2.39242e-06
18.5301
2.60388e-06
18.3838
1.95677e-06
18.2376
1.60458e-06
18.0915
1.76945e-06
17.9455
1.53923e-06
17.7997
1.42419e-06
17.654
1.85198e-06
17.5085
9.55609e-07
17.3631
1.77083e-06
17.2179
2.07075e-06
17.0729
1.67384e-06
16.928
2.25672e-06
16.7833
1.6242e-06
16.6389
5.6582e-07
16.4946
1.1711e-06
16.3506
8.50313e-07
16.2068
9.45883e-07
16.0632
3.66896e-07
15.9198
3.74562e-07
15.7767
1.3986e-06
15.6339
4.37848e-07
15.4913
6.58062e-07
15.3491
1.00654e-06
15.2071
5.70837e-07
15.0653
9.65617e-07
14.9239
6.11273e-07
14.7828
9.41532e-07
14.6421
7.43767e-07
14.5016
4.73535e-07
14.3615
-4.55359e-07
14.2217
-7.85273e-07
14.0823
1.0803e-08
13.9433
9.33127e-07
13.8046
-1.08221e-07
13.6664
-7.06861e-07
13.5285
-3.76489e-07
13.391
-9.1567e-08
13.2539
5.45706e-08
13.1172
1.20469e-07
12.981
7.64539e-07
12.8452
-2.10922e-07
12.7099
2.37164e-07
12.575
-3.10869e-07
12.4406
-1.1086e-06
12.3067
-3.47052e-07
12.1732
-6.79706e-08
12.0402
-7.92445e-07
11.9078
-9.4014e-07
11.7758
-1.03729e-06
11.6443
-1.10788e-06
11.5134
-1.4968e-06
11.383
-1.62016e-07
11.2532
-1.08602e-06
11.1239
-1.32878e-06
10.9952
-2.3753e-06
10.8671
-1.31164e-06
10.7395
-1.15319e-06
10.6125
-8.73032e-07
10.4861
-1.38015e-06
10.3603
-2.23744e-06
10.2352
-1.99544e-06
10.1106
-9.22171e-07
9.98672
-1.93448e-06
9.86345
-7.41963e-07
9.74082
-3.06677e-06
9.61883
-1.45846e-06
9.49751
-3.64592e-06
9.37685
1.72659e-06
9.25688
-6.03506e-06
9.13756
2.13389e-06
9.01894
-1.1398e-05
8.901
7.926e-06
8.78378
-1.22528e-05
8.66724
9.10695e-06
8.55144
-1.98333e-05
8.43632
2.01865e-05
8.32196
-1.21369e-05
8.20826
7.35523e-05
8.0952
0.000233479
7.98229
0.00121309
7.86747
0.00536827
7.74157
0.0242569
7.56718
0.104092
7.22337
0.435682
1.05092
6.5581
34.8369
2.72848e-12
34.7049
-8.18545e-12
34.5725
-8.6402e-12
34.4397
1.36424e-12
34.3067
9.09495e-13
34.1733
9.09495e-13
34.0397
1.81899e-12
33.9059
-1.13687e-11
33.7718
-1.81899e-12
33.6376
1.00044e-11
33.5032
3.18323e-12
33.3687
-9.09495e-13
33.234
0
33.0992
0
32.9642
-9.09495e-13
32.8291
-4.54747e-13
32.6938
-9.09495e-13
32.5584
1.36424e-12
32.4228
3.18323e-12
32.2871
0
32.1511
2.27374e-12
32.0151
-2.27374e-12
31.8788
-1.81899e-12
31.7424
-2.72848e-12
31.6058
-4.54747e-13
31.469
9.09495e-13
31.3321
-1.81899e-12
31.1949
3.63798e-12
31.0576
-1.36424e-12
30.9201
9.09495e-13
30.7825
1.36424e-12
30.6446
4.54747e-13
30.5066
-9.09495e-13
30.3684
-1.36424e-12
30.23
-9.09495e-13
30.0914
-9.09495e-13
29.9526
-4.54747e-13
29.8136
9.09495e-13
29.6745
2.72848e-12
29.5351
0
29.3956
-2.27374e-12
29.2559
-3.18323e-12
29.116
-1.36424e-12
28.9758
9.09495e-13
28.8355
4.54747e-13
28.695
2.27374e-12
28.5544
4.09273e-12
28.4135
1.36424e-12
28.2724
1.36424e-12
28.1312
-1.36424e-12
27.9898
-3.18323e-12
27.8482
-2.27374e-12
27.7064
-1.36424e-12
27.5645
4.54747e-13
27.4223
9.09495e-13
27.28
-2.27374e-12
27.1375
-1.36424e-12
26.9948
0
26.8519
1.81899e-12
26.7089
4.54747e-13
26.5657
-4.54747e-13
26.4224
-1.81899e-12
26.2788
-1.81899e-12
26.1352
-1.36424e-12
25.9913
-1.36424e-12
25.8473
9.09495e-13
25.7032
-9.09495e-13
25.5588
-1.36424e-12
25.4144
-1.36424e-12
25.2697
4.54747e-13
25.1249
9.09495e-13
24.98
9.09495e-13
24.8349
9.09495e-13
24.6897
2.27374e-12
24.5444
4.09273e-12
24.3989
-1.36424e-12
24.2534
-6.82121e-12
24.1077
-5.00222e-12
23.9619
-5.00222e-12
23.816
-1.81899e-12
23.67
-1.81899e-12
23.5238
-9.09495e-13
23.3776
3.18323e-12
23.2313
0
23.0849
-3.63798e-12
22.9384
0
22.7918
2.27374e-12
22.6452
0
22.4984
1.36424e-12
22.3516
-4.54747e-13
22.2048
9.09495e-13
22.0579
0
21.9109
9.09495e-13
21.7639
4.54747e-12
21.6168
0
21.4697
-2.72848e-12
21.3226
-2.27374e-12
21.1754
9.09495e-13
21.0283
1.81899e-12
20.8811
-9.09495e-13
20.7339
-1.36424e-12
20.5867
-2.27374e-12
20.4395
0
20.2924
-2.72848e-12
20.1452
-1.36424e-12
19.9981
-9.09495e-13
19.851
9.09495e-13
19.704
4.54747e-13
19.557
1.36424e-12
19.4101
4.54747e-13
19.2632
4.54747e-13
19.1165
2.72848e-12
18.9697
5.00222e-12
18.8231
2.72848e-12
18.6766
3.18323e-12
18.5301
5.00222e-12
18.3838
5.00222e-12
18.2376
1.81899e-12
18.0915
-2.72848e-12
17.9455
-1.81899e-12
17.7997
4.54747e-13
17.654
1.81899e-12
17.5085
-9.09495e-13
17.3631
0
17.2179
0
17.0729
-1.36424e-12
16.928
0
16.7833
9.09495e-13
16.6389
9.09495e-13
16.4946
9.09495e-13
16.3506
0
16.2068
9.09495e-13
16.0632
-2.27374e-12
15.9198
-4.54747e-13
15.7767
-1.36424e-12
15.6339
4.54747e-13
15.4913
4.54747e-13
15.3491
4.54747e-13
15.2071
-1.81899e-12
15.0653
4.54747e-13
14.9239
-4.54747e-12
14.7828
0
14.6421
0
14.5016
4.09273e-12
14.3615
1.36424e-12
14.2217
1.81899e-12
14.0823
-9.09495e-13
13.9433
-2.27374e-12
13.8046
-4.09273e-12
13.6664
-2.27374e-12
13.5285
1.81899e-12
13.391
3.18323e-12
13.2539
-4.54747e-13
13.1172
-9.09495e-13
12.981
4.54747e-13
12.8452
-4.09273e-12
12.7099
0
12.575
9.09495e-13
12.4406
1.81899e-12
12.3067
9.09495e-13
12.1732
-1.81899e-12
12.0402
-5.00222e-12
11.9078
-5.00222e-12
11.7758
2.27374e-12
11.6443
1.27329e-11
11.5134
8.6402e-12
11.383
5.45697e-12
11.2532
-5.00222e-12
11.1239
-8.6402e-12
10.9952
-4.09273e-12
10.8671
4.54747e-13
10.7395
-1.54614e-11
10.6125
1.68257e-11
10.4861
-4.95675e-11
10.3603
2.5193e-10
10.2352
-9.80435e-10
10.1106
6.43377e-09
9.98672
-3.2619e-08
9.86345
1.6168e-07
9.74082
-5.8774e-07
9.61883
1.93985e-06
9.49751
-3.77294e-06
9.37685
5.02892e-06
9.25688
-9.13864e-06
9.13756
9.99766e-06
9.01895
-1.55578e-05
8.901
1.85025e-05
8.78379
-2.65323e-05
8.66724
3.17068e-05
8.55144
-3.0627e-05
8.43631
4.11672e-05
8.32196
-2.70948e-05
8.20828
0.000114777
8.09533
0.000280426
7.98285
0.001535
7.87008
0.00671526
7.75269
0.0310089
7.60812
0.138751
7.29375
0.640935
1.60922
6.62703
34.8369
-0.000187576
34.7049
-0.0001584
34.5725
-0.00014142
34.4397
-0.0001456
34.3067
-0.000146917
34.1733
-0.000146482
34.0397
-0.000146467
33.9059
-0.000145645
33.7718
-0.000145598
33.6376
-0.000147728
33.5032
-0.000147803
33.3687
-0.000148765
33.234
-0.000148717
33.0992
-0.000147277
32.9642
-0.000145403
32.8291
-0.000145418
32.6938
-0.000147097
32.5584
-0.000149023
32.4228
-0.000150897
32.2871
-0.000151631
32.1511
-0.000151248
32.0151
-0.000150035
31.8788
-0.000148005
31.7424
-0.000145908
31.6058
-0.000145101
31.469
-0.000145825
31.3321
-0.000146625
31.1949
-0.000147769
31.0576
-0.00014822
30.9201
-0.000149121
30.7825
-0.00014987
30.6446
-0.000150785
30.5066
-0.000150493
30.3684
-0.000150061
30.23
-0.000149147
30.0914
-0.000149233
29.9526
-0.000149718
29.8136
-0.000149646
29.6745
-0.000149483
29.5351
-0.000150008
29.3956
-0.00014874
29.2559
-0.000148098
29.116
-0.000147403
28.9758
-0.000147917
28.8355
-0.000150144
28.695
-0.000151555
28.5544
-0.000152225
28.4135
-0.000152682
28.2724
-0.00015219
28.1312
-0.000152385
27.9898
-0.000151839
27.8482
-0.000151645
27.7064
-0.000151968
27.5645
-0.000151137
27.4223
-0.000149264
27.28
-0.000147899
27.1375
-0.000146598
26.9948
-0.000146007
26.8519
-0.00014792
26.7089
-0.00015118
26.5657
-0.000154725
26.4224
-0.000156896
26.2788
-0.000157111
26.1352
-0.000155897
25.9913
-0.000153589
25.8473
-0.000151914
25.7032
-0.000151371
25.5588
-0.000151801
25.4144
-0.000152109
25.2697
-0.000150645
25.1249
-0.000148256
24.98
-0.000148667
24.8349
-0.000149071
24.6897
-0.000149043
24.5444
-0.000146749
24.3989
-0.000143361
24.2534
-0.00014058
24.1077
-0.000137581
23.9619
-0.000136
23.816
-0.000132491
23.67
-0.000127294
23.5238
-0.000121194
23.3776
-0.000117487
23.2313
-0.000113079
23.0849
-0.000108533
22.9384
-0.000103028
22.7918
-9.59201e-05
22.6452
-8.98476e-05
22.4984
-8.22919e-05
22.3516
-7.50877e-05
22.2048
-6.81473e-05
22.0579
-6.11901e-05
21.9109
-5.51565e-05
21.7639
-4.98407e-05
21.6168
-4.49314e-05
21.4697
-3.95341e-05
21.3226
-3.4563e-05
21.1754
-2.99939e-05
21.0283
-2.48191e-05
20.8811
-2.21826e-05
20.7339
-1.89861e-05
20.5867
-1.52491e-05
20.4395
-1.43495e-05
20.2924
-1.23121e-05
20.1452
-1.01579e-05
19.9981
-8.7402e-06
19.851
-7.69943e-06
19.704
-6.40801e-06
19.557
-5.59358e-06
19.4101
-4.6866e-06
19.2632
-3.64877e-06
19.1165
-3.08312e-06
18.9697
-2.56396e-06
18.8231
-2.02943e-06
18.6766
-2.39242e-06
18.5301
-2.60387e-06
18.3838
-1.95676e-06
18.2376
-1.60458e-06
18.0915
-1.76946e-06
17.9455
-1.53923e-06
17.7997
-1.42419e-06
17.654
-1.85198e-06
17.5085
-9.55611e-07
17.3631
-1.77083e-06
17.2179
-2.07075e-06
17.0729
-1.67384e-06
16.928
-2.25672e-06
16.7833
-1.6242e-06
16.6389
-5.65817e-07
16.4946
-1.1711e-06
16.3506
-8.50313e-07
16.2068
-9.45883e-07
16.0632
-3.66899e-07
15.9198
-3.74565e-07
15.7767
-1.3986e-06
15.6339
-4.37847e-07
15.4913
-6.58057e-07
15.3491
-1.00654e-06
15.2071
-5.70841e-07
15.0653
-9.65618e-07
14.9239
-6.11278e-07
14.7828
-9.41537e-07
14.6421
-7.43765e-07
14.5016
-4.73525e-07
14.3615
4.55363e-07
14.2217
7.85278e-07
14.0823
-1.08075e-08
13.9433
-9.33132e-07
13.8046
1.08216e-07
13.6664
7.06855e-07
13.5285
3.76497e-07
13.391
9.15729e-08
13.2539
-5.4572e-08
13.1172
-1.20471e-07
12.981
-7.6454e-07
12.8452
2.10916e-07
12.7099
-2.37167e-07
12.575
3.10872e-07
12.4406
1.10861e-06
12.3067
3.4705e-07
12.1732
6.79738e-08
12.0402
7.92436e-07
11.9078
9.40131e-07
11.7758
1.03729e-06
11.6443
1.1079e-06
11.5134
1.49681e-06
11.383
1.6202e-07
11.2532
1.08601e-06
11.1239
1.32877e-06
10.9952
2.37529e-06
10.8671
1.31164e-06
10.7395
1.15316e-06
10.6125
8.73059e-07
10.4861
1.38007e-06
10.3603
2.238e-06
10.2352
1.9933e-06
10.1106
9.37918e-07
9.98672
1.86114e-06
9.86345
1.11003e-06
9.74082
1.7431e-06
9.61883
5.54374e-06
9.49751
-3.42427e-06
9.37686
5.30372e-06
9.25687
-6.54944e-06
9.13756
1.18421e-05
9.01893
-9.00829e-06
8.901
1.83517e-05
8.78376
-1.62965e-05
8.66725
2.53908e-05
8.55141
-1.65214e-05
8.43633
2.60807e-05
8.32197
-1.76182e-05
8.20833
9.24571e-05
8.0955
0.000220188
7.9836
0.00126576
7.87336
0.00553719
7.76752
0.0262049
7.67678
0.119585
7.61739
0.591175
1.27343
7.84481
34.837
-0.000404618
34.7049
-0.000304674
34.5725
-0.000286869
34.4398
-0.000293157
34.3067
-0.000294362
34.1733
-0.000294123
34.0397
-0.000293527
33.9059
-0.000292908
33.7719
-0.000292046
33.6376
-0.000294103
33.5032
-0.000294066
33.3687
-0.000294665
33.2341
-0.000294563
33.0992
-0.000294579
32.9643
-0.000294522
32.8291
-0.000295158
32.6939
-0.000295989
32.5584
-0.000296649
32.4228
-0.000297236
32.2871
-0.000297049
32.1512
-0.000296539
32.0151
-0.000295529
31.8788
-0.000294535
31.7424
-0.000293608
31.6058
-0.000293638
31.469
-0.000294899
31.3321
-0.000296234
31.195
-0.00029734
31.0576
-0.000298517
30.9202
-0.000298474
30.7825
-0.000297872
30.6446
-0.000297486
30.5066
-0.000296805
30.3684
-0.000296487
30.23
-0.000296171
30.0914
-0.00029659
29.9526
-0.000297577
29.8136
-0.000298621
29.6745
-0.000299539
29.5351
-0.000299547
29.3956
-0.00029982
29.2559
-0.000299751
29.116
-0.000299224
28.9758
-0.000299688
28.8355
-0.000300063
28.695
-0.000300827
28.5544
-0.000301198
28.4135
-0.000302441
28.2725
-0.000302543
28.1312
-0.000302431
27.9898
-0.000302564
27.8482
-0.00030282
27.7064
-0.000304018
27.5645
-0.000304473
27.4223
-0.000304311
27.28
-0.000302917
27.1375
-0.000301913
26.9948
-0.00030113
26.852
-0.000300959
26.7089
-0.000301388
26.5657
-0.000303588
26.4224
-0.000305271
26.2789
-0.000306037
26.1352
-0.000305807
25.9913
-0.000306509
25.8473
-0.000305453
25.7032
-0.000306204
25.5589
-0.000305686
25.4144
-0.000303651
25.2697
-0.000301007
25.1249
-0.000299012
24.98
-0.000298003
24.835
-0.000298132
24.6898
-0.000296193
24.5444
-0.000292479
24.399
-0.000288231
24.2534
-0.00028294
24.1077
-0.000276266
23.9619
-0.00026856
23.816
-0.000260951
23.67
-0.000253675
23.5238
-0.000246193
23.3776
-0.000236581
23.2313
-0.000226566
23.0849
-0.00021518
22.9384
-0.000202583
22.7918
-0.000189238
22.6452
-0.000175429
22.4984
-0.000162104
22.3516
-0.000149198
22.2048
-0.000135775
22.0579
-0.000121982
21.9109
-0.000110334
21.7639
-9.95715e-05
21.6168
-9.00491e-05
21.4697
-7.88111e-05
21.3226
-6.93585e-05
21.1754
-6.02222e-05
21.0283
-5.09973e-05
20.8811
-4.32241e-05
20.7339
-3.76253e-05
20.5867
-3.2127e-05
20.4395
-2.75564e-05
20.2924
-2.3837e-05
20.1452
-2.03727e-05
19.9981
-1.75963e-05
19.851
-1.53459e-05
19.704
-1.27175e-05
19.557
-1.12386e-05
19.4101
-9.36172e-06
19.2632
-7.29585e-06
19.1165
-6.22956e-06
18.9697
-5.03248e-06
18.8231
-3.9955e-06
18.6766
-4.90568e-06
18.5301
-5.25736e-06
18.3838
-3.76827e-06
18.2376
-3.20514e-06
18.0915
-3.66103e-06
17.9455
-2.93151e-06
17.7997
-2.99306e-06
17.654
-3.75645e-06
17.5085
-1.53303e-06
17.3631
-3.9775e-06
17.2179
-3.93391e-06
17.0729
-3.26688e-06
16.928
-4.86959e-06
16.7833
-2.95058e-06
16.6389
-1.03822e-06
16.4946
-2.68059e-06
16.3506
-1.44209e-06
16.2068
-2.01828e-06
16.0632
-7.01019e-07
15.9198
-6.24706e-07
15.7767
-3.04056e-06
15.6339
-5.41931e-07
15.4913
-1.54238e-06
15.3491
-1.99976e-06
15.2071
-1.08138e-06
15.0653
-2.06283e-06
14.9239
-1.02345e-06
14.7828
-2.10471e-06
14.6421
-1.32084e-06
14.5016
-1.1391e-06
14.3615
1.23088e-06
14.2217
1.30341e-06
14.0823
1.27286e-07
13.9433
-2.08095e-06
13.8046
4.75544e-07
13.6664
1.31058e-06
13.5285
5.59648e-07
13.391
4.47538e-07
13.2539
-1.62837e-07
13.1172
-2.70611e-08
12.981
-1.84845e-06
12.8452
4.77023e-07
12.7099
-4.9885e-07
12.575
6.67857e-07
12.4406
2.2915e-06
12.3067
5.05521e-07
12.1732
2.86186e-07
12.0402
1.58712e-06
11.9078
1.78347e-06
11.7758
2.2164e-06
11.6443
2.02533e-06
11.5134
3.21121e-06
11.383
9.96961e-08
11.2532
2.40226e-06
11.1239
2.52202e-06
10.9952
4.82476e-06
10.8671
2.50374e-06
10.7395
2.30299e-06
10.6125
1.8825e-06
10.4861
2.69067e-06
10.3603
4.49091e-06
10.2352
4.00016e-06
10.1106
1.82496e-06
9.98672
3.85447e-06
9.86345
1.48193e-06
9.74082
5.72116e-06
9.61884
5.44855e-06
9.49751
2.16857e-06
9.37686
2.34423e-06
9.25686
8.16029e-07
9.13757
7.7874e-06
9.01892
3.82423e-06
8.90101
9.18207e-06
8.78376
5.06932e-07
8.66725
1.39707e-05
8.55142
-3.02573e-06
8.43634
1.36501e-05
8.32194
-2.11043e-06
8.20836
3.96248e-05
8.09559
8.44956e-05
7.98422
0.000476651
7.87629
0.00208301
7.78171
0.0101041
7.74225
0.0491575
7.84306
0.381162
0.768342
8.23976
7.89201
-0.000462589
7.86209
-0.000332651
7.83209
-0.000321213
7.80202
-0.000325817
7.77188
-0.000326908
7.74166
-0.000327021
7.71139
-0.000326741
7.68108
-0.000326656
7.65072
-0.000325513
7.62031
-0.000327864
7.58986
-0.000327577
7.55939
-0.000328337
7.52888
-0.000328406
7.49834
-0.000328532
7.46776
-0.000328289
7.43715
-0.000328521
7.40651
-0.000328594
7.37582
-0.000328748
7.3451
-0.000329175
7.31435
-0.000329127
7.28355
-0.000329248
7.25273
-0.000329348
7.22186
-0.0003294
7.19096
-0.000329199
7.16002
-0.00032912
7.12903
-0.000329467
7.098
-0.000329844
7.06694
-0.000330186
7.03583
-0.000330794
7.00468
-0.000330882
6.9735
-0.000331039
6.94227
-0.000330743
6.911
-0.000330701
6.87969
-0.000330701
6.84834
-0.000331025
6.81694
-0.000332041
6.7855
-0.000332842
6.75402
-0.000333434
6.7225
-0.000333525
6.69093
-0.000333052
6.65932
-0.000332897
6.62766
-0.000333061
6.59597
-0.000333129
6.56422
-0.000334095
6.53244
-0.000334644
6.50061
-0.00033563
6.46874
-0.000335821
6.43683
-0.000336218
6.40488
-0.000335999
6.37288
-0.000335746
6.34085
-0.000335501
6.30877
-0.000335583
6.27665
-0.000336918
6.24448
-0.000337717
6.21228
-0.000338343