/*--------------------------------*- C++ -*----------------------------------*\
| =========                 |                                                 |
| \\      /  F ield         | OpenFOAM: The Open Source CFD Toolbox           |
|  \\    /   O peration     | Version:  3.0.x                                 |
|   \\  /    A nd           | Web:      www.OpenFOAM.org                      |
|    \\/     M anipulation  |                                                 |
\*---------------------------------------------------------------------------*/
FoamFile
{
    version     2.0;
    format      ascii;
    class       volScalarField;
    location    "0.53";
    object      rho;
}
// * * * * * * * * * * * * * * * * * * * * * * * * * * * * * * * * * * * * * //

dimensions      [1 -3 0 0 0 0 0];

internalField   nonuniform List<scalar> 
13800
(
51.1831
51.1851
51.188
51.1907
51.1932
51.1954
51.1975
51.1997
51.2019
51.2041
51.2064
51.2088
51.2114
51.214
51.2169
51.2199
51.223
51.2262
51.2297
51.2332
51.2368
51.2407
51.2446
51.2488
51.253
51.2574
51.2618
51.2665
51.2713
51.2762
51.2813
51.2865
51.2918
51.2974
51.303
51.3087
51.3146
51.3207
51.3268
51.3331
51.3396
51.3461
51.3528
51.3597
51.3665
51.3736
51.3808
51.3881
51.3956
51.4033
51.411
51.4188
51.4269
51.4349
51.4432
51.4515
51.46
51.4686
51.4773
51.4861
51.4951
51.5041
51.5133
51.5226
51.5321
51.5416
51.5513
51.5611
51.5709
51.5809
51.591
51.6012
51.6114
51.6218
51.6322
51.6428
51.6536
51.6643
51.6752
51.6862
51.6973
51.7085
51.7198
51.7311
51.7425
51.754
51.7656
51.7773
51.789
51.8008
51.8128
51.8248
51.8368
51.8489
51.8612
51.8734
51.8858
51.8982
51.9107
51.9232
51.9357
51.9484
51.9611
51.9739
51.9867
51.9995
52.0125
52.0254
52.0384
52.0515
52.0646
52.0777
52.0909
52.1041
52.1173
52.1306
52.1439
52.1572
52.1706
52.184
52.1973
52.2108
52.2243
52.2377
52.2512
52.2647
52.2781
52.2916
52.3052
52.3187
52.3323
52.3457
52.3593
52.3728
52.3864
52.3998
52.4134
52.4269
52.4404
52.4539
52.4673
52.4808
52.4942
52.5076
52.521
52.5344
52.5477
52.5611
52.5744
52.5877
52.6009
52.6142
52.6274
52.6405
52.6536
52.6667
52.6797
52.6927
52.7057
52.7186
52.7315
52.7444
52.7571
52.7699
52.7826
52.7952
52.8079
52.8204
52.8329
52.8454
52.8578
52.8701
52.8824
52.8947
52.9068
52.9189
52.931
52.9429
52.9549
52.9668
52.9786
52.9902
53.002
53.0135
53.0252
53.0365
53.0482
53.0591
53.0708
53.0816
53.0932
53.1037
53.1154
53.1255
53.1372
53.1471
53.1585
53.1687
53.1789
53.1901
51.1837
51.1857
51.1885
51.1912
51.1937
51.196
51.198
51.2002
51.2024
51.2047
51.2069
51.2093
51.2119
51.2146
51.2174
51.2204
51.2235
51.2268
51.2301
51.2337
51.2373
51.2411
51.2451
51.2493
51.2535
51.2579
51.2623
51.267
51.2718
51.2767
51.2818
51.287
51.2923
51.2979
51.3035
51.3092
51.3151
51.3211
51.3273
51.3336
51.3401
51.3466
51.3533
51.3601
51.367
51.3741
51.3813
51.3886
51.3961
51.4037
51.4114
51.4193
51.4273
51.4354
51.4436
51.4519
51.4604
51.469
51.4777
51.4865
51.4955
51.5045
51.5137
51.523
51.5324
51.542
51.5517
51.5615
51.5713
51.5813
51.5913
51.6015
51.6118
51.6222
51.6327
51.6432
51.6539
51.6647
51.6757
51.6866
51.6977
51.7088
51.7201
51.7315
51.7428
51.7543
51.7659
51.7776
51.7894
51.8012
51.8132
51.8251
51.8371
51.8493
51.8615
51.8738
51.8861
51.8985
51.911
51.9235
51.9361
51.9488
51.9614
51.9742
51.987
51.9999
52.0128
52.0258
52.0387
52.0518
52.0649
52.0781
52.0912
52.1044
52.1177
52.131
52.1443
52.1575
52.1709
52.1843
52.1977
52.2112
52.2246
52.2381
52.2515
52.265
52.2785
52.292
52.3055
52.3191
52.3326
52.3461
52.3596
52.3732
52.3867
52.4002
52.4137
52.4272
52.4407
52.4542
52.4677
52.4811
52.4946
52.508
52.5214
52.5348
52.5481
52.5615
52.5748
52.5881
52.6013
52.6145
52.6277
52.6408
52.6539
52.667
52.6801
52.6931
52.7061
52.719
52.7318
52.7447
52.7575
52.7703
52.7829
52.7956
52.8082
52.8208
52.8333
52.8458
52.8582
52.8705
52.8827
52.895
52.9071
52.9192
52.9313
52.9433
52.9552
52.9671
52.9789
52.9906
53.0023
53.0139
53.0256
53.0368
53.0485
53.0595
53.0712
53.0819
53.0936
53.104
53.1157
53.1258
53.1375
53.1474
53.1589
53.1688
53.1801
53.1894
51.1837
51.1857
51.1885
51.1912
51.1937
51.196
51.198
51.2002
51.2024
51.2047
51.2069
51.2093
51.2119
51.2146
51.2174
51.2204
51.2235
51.2268
51.2301
51.2337
51.2373
51.2411
51.2451
51.2493
51.2535
51.2579
51.2623
51.267
51.2718
51.2767
51.2818
51.2871
51.2923
51.2979
51.3035
51.3092
51.3151
51.3212
51.3273
51.3336
51.3401
51.3466
51.3533
51.3601
51.367
51.3741
51.3813
51.3886
51.3961
51.4037
51.4114
51.4193
51.4273
51.4354
51.4436
51.4519
51.4604
51.469
51.4777
51.4865
51.4955
51.5045
51.5137
51.523
51.5325
51.542
51.5517
51.5615
51.5713
51.5813
51.5914
51.6015
51.6118
51.6222
51.6327
51.6432
51.6539
51.6647
51.6757
51.6866
51.6977
51.7088
51.7201
51.7315
51.7428
51.7543
51.7659
51.7776
51.7894
51.8012
51.8132
51.8251
51.8371
51.8493
51.8615
51.8738
51.8861
51.8985
51.911
51.9235
51.9361
51.9488
51.9614
51.9742
51.987
51.9999
52.0128
52.0258
52.0387
52.0518
52.0649
52.0781
52.0912
52.1044
52.1177
52.131
52.1443
52.1575
52.1709
52.1843
52.1977
52.2112
52.2246
52.2381
52.2515
52.265
52.2785
52.292
52.3055
52.3191
52.3326
52.3461
52.3596
52.3732
52.3867
52.4002
52.4137
52.4272
52.4407
52.4542
52.4677
52.4811
52.4946
52.508
52.5214
52.5348
52.5481
52.5615
52.5748
52.5881
52.6013
52.6145
52.6277
52.6408
52.6539
52.667
52.6801
52.6931
52.7061
52.719
52.7318
52.7447
52.7575
52.7703
52.7829
52.7956
52.8082
52.8208
52.8333
52.8458
52.8582
52.8705
52.8827
52.895
52.9071
52.9192
52.9313
52.9433
52.9552
52.9671
52.9789
52.9906
53.0023
53.0139
53.0256
53.0368
53.0485
53.0595
53.0712
53.0819
53.0936
53.104
53.1157
53.1258
53.1375
53.1474
53.1589
53.1688
53.1801
53.1894
51.1837
51.1857
51.1885
51.1912
51.1937
51.196
51.198
51.2002
51.2024
51.2047
51.2069
51.2093
51.2119
51.2146
51.2174
51.2204
51.2235
51.2268
51.2301
51.2337
51.2373
51.2411
51.2451
51.2493
51.2535
51.2579
51.2623
51.267
51.2718
51.2767
51.2818
51.287
51.2923
51.2979
51.3035
51.3092
51.3151
51.3211
51.3273
51.3336
51.3401
51.3466
51.3533
51.3601
51.367
51.3741
51.3813
51.3886
51.3961
51.4037
51.4114
51.4193
51.4273
51.4354
51.4436
51.4519
51.4604
51.469
51.4777
51.4865
51.4955
51.5045
51.5137
51.523
51.5324
51.542
51.5517
51.5615
51.5713
51.5813
51.5913
51.6015
51.6118
51.6222
51.6327
51.6432
51.6539
51.6647
51.6757
51.6866
51.6977
51.7088
51.7201
51.7315
51.7428
51.7543
51.7659
51.7776
51.7894
51.8012
51.8132
51.8251
51.8371
51.8493
51.8615
51.8738
51.8861
51.8985
51.911
51.9235
51.9361
51.9488
51.9614
51.9742
51.987
51.9999
52.0128
52.0258
52.0387
52.0518
52.0649
52.0781
52.0912
52.1044
52.1177
52.131
52.1443
52.1575
52.1709
52.1843
52.1977
52.2112
52.2246
52.2381
52.2515
52.265
52.2785
52.292
52.3055
52.3191
52.3326
52.3461
52.3596
52.3732
52.3867
52.4002
52.4137
52.4272
52.4407
52.4542
52.4677
52.4811
52.4946
52.508
52.5214
52.5348
52.5481
52.5615
52.5748
52.5881
52.6013
52.6145
52.6277
52.6408
52.6539
52.667
52.6801
52.6931
52.7061
52.719
52.7318
52.7447
52.7575
52.7703
52.7829
52.7956
52.8082
52.8208
52.8333
52.8458
52.8582
52.8705
52.8827
52.895
52.9071
52.9192
52.9313
52.9433
52.9552
52.9671
52.9789
52.9906
53.0023
53.0139
53.0256
53.0368
53.0485
53.0595
53.0712
53.0819
53.0936
53.104
53.1157
53.1258
53.1375
53.1475
53.1589
53.1687
53.18
53.1898
51.1837
51.1857
51.1886
51.1912
51.1937
51.1959
51.198
51.2002
51.2024
51.2046
51.2069
51.2093
51.2119
51.2146
51.2174
51.2204
51.2235
51.2268
51.2301
51.2337
51.2373
51.2411
51.2451
51.2493
51.2535
51.2579
51.2623
51.267
51.2718
51.2767
51.2818
51.287
51.2923
51.2979
51.3035
51.3092
51.3151
51.3211
51.3273
51.3336
51.3401
51.3466
51.3533
51.3601
51.367
51.3741
51.3813
51.3886
51.3961
51.4037
51.4114
51.4193
51.4273
51.4354
51.4436
51.4519
51.4604
51.469
51.4777
51.4865
51.4955
51.5045
51.5137
51.523
51.5324
51.542
51.5517
51.5615
51.5713
51.5813
51.5913
51.6015
51.6118
51.6222
51.6327
51.6432
51.6539
51.6647
51.6757
51.6866
51.6977
51.7088
51.7201
51.7315
51.7428
51.7543
51.7659
51.7776
51.7894
51.8012
51.8132
51.8251
51.8371
51.8493
51.8615
51.8738
51.8861
51.8985
51.911
51.9235
51.9361
51.9488
51.9614
51.9742
51.987
51.9999
52.0128
52.0258
52.0387
52.0518
52.0649
52.0781
52.0912
52.1044
52.1177
52.131
52.1443
52.1575
52.1709
52.1843
52.1977
52.2112
52.2246
52.2381
52.2515
52.265
52.2785
52.292
52.3055
52.3191
52.3326
52.3461
52.3596
52.3732
52.3867
52.4002
52.4137
52.4272
52.4407
52.4542
52.4677
52.4811
52.4946
52.508
52.5214
52.5348
52.5481
52.5615
52.5748
52.5881
52.6013
52.6145
52.6277
52.6408
52.6539
52.667
52.6801
52.6931
52.7061
52.719
52.7318
52.7447
52.7575
52.7703
52.7829
52.7956
52.8082
52.8208
52.8333
52.8458
52.8582
52.8705
52.8827
52.895
52.9071
52.9192
52.9313
52.9433
52.9552
52.9671
52.9789
52.9906
53.0023
53.0139
53.0256
53.0368
53.0485
53.0595
53.0712
53.0819
53.0936
53.104
53.1157
53.1259
53.1375
53.1474
53.1589
53.1688
53.1801
53.1896
51.1837
51.1857
51.1886
51.1912
51.1937
51.1959
51.198
51.2002
51.2024
51.2046
51.2069
51.2093
51.2119
51.2146
51.2174
51.2204
51.2235
51.2268
51.2301
51.2337
51.2373
51.2411
51.2451
51.2493
51.2535
51.2579
51.2623
51.267
51.2718
51.2767
51.2818
51.287
51.2923
51.2979
51.3035
51.3092
51.3151
51.3211
51.3273
51.3336
51.3401
51.3466
51.3533
51.3601
51.367
51.3741
51.3813
51.3886
51.3961
51.4037
51.4114
51.4193
51.4273
51.4354
51.4436
51.4519
51.4604
51.469
51.4777
51.4865
51.4955
51.5045
51.5137
51.523
51.5324
51.542
51.5517
51.5615
51.5713
51.5813
51.5913
51.6015
51.6118
51.6222
51.6327
51.6432
51.6539
51.6647
51.6757
51.6866
51.6977
51.7088
51.7201
51.7315
51.7428
51.7543
51.7659
51.7776
51.7894
51.8012
51.8132
51.8251
51.8371
51.8493
51.8615
51.8738
51.8861
51.8985
51.911
51.9235
51.9361
51.9488
51.9614
51.9742
51.987
51.9999
52.0128
52.0258
52.0387
52.0518
52.0649
52.0781
52.0912
52.1044
52.1177
52.131
52.1443
52.1575
52.1709
52.1843
52.1977
52.2112
52.2246
52.2381
52.2515
52.265
52.2785
52.292
52.3055
52.3191
52.3326
52.3461
52.3596
52.3732
52.3867
52.4002
52.4137
52.4272
52.4407
52.4542
52.4677
52.4811
52.4946
52.508
52.5214
52.5348
52.5481
52.5615
52.5748
52.5881
52.6013
52.6145
52.6277
52.6408
52.6539
52.667
52.6801
52.6931
52.7061
52.719
52.7318
52.7447
52.7575
52.7703
52.7829
52.7956
52.8082
52.8208
52.8333
52.8458
52.8582
52.8705
52.8827
52.895
52.9071
52.9192
52.9313
52.9433
52.9552
52.9671
52.9789
52.9906
53.0023
53.014
53.0254
53.037
53.0483
53.0597
53.0708
53.0823
53.0931
53.1045
53.1153
53.1262
53.1372
53.1477
53.1586
53.1692
53.1796
53.1903
51.1837
51.1857
51.1885
51.1912
51.1937
51.196
51.198
51.2002
51.2024
51.2047
51.2069
51.2093
51.2119
51.2146
51.2174
51.2204
51.2235
51.2268
51.2301
51.2337
51.2373
51.2411
51.2451
51.2493
51.2535
51.2579
51.2623
51.267
51.2718
51.2767
51.2818
51.287
51.2923
51.2979
51.3035
51.3092
51.3151
51.3211
51.3273
51.3336
51.3401
51.3466
51.3533
51.3601
51.367
51.3741
51.3813
51.3886
51.3961
51.4037
51.4114
51.4193
51.4273
51.4354
51.4436
51.4519
51.4604
51.469
51.4777
51.4865
51.4955
51.5045
51.5137
51.523
51.5324
51.542
51.5517
51.5615
51.5713
51.5813
51.5913
51.6015
51.6118
51.6222
51.6327
51.6432
51.6539
51.6647
51.6757
51.6866
51.6977
51.7088
51.7201
51.7315
51.7428
51.7543
51.7659
51.7776
51.7894
51.8012
51.8132
51.8251
51.8371
51.8493
51.8615
51.8738
51.8861
51.8985
51.911
51.9235
51.9361
51.9488
51.9614
51.9742
51.987
51.9999
52.0128
52.0258
52.0387
52.0518
52.0649
52.0781
52.0912
52.1044
52.1177
52.131
52.1443
52.1575
52.1709
52.1843
52.1977
52.2112
52.2246
52.2381
52.2515
52.265
52.2785
52.292
52.3055
52.3191
52.3326
52.3461
52.3596
52.3732
52.3867
52.4002
52.4137
52.4272
52.4407
52.4542
52.4677
52.4811
52.4946
52.508
52.5214
52.5348
52.5481
52.5615
52.5748
52.5881
52.6013
52.6145
52.6277
52.6408
52.6539
52.667
52.6801
52.6931
52.7061
52.719
52.7318
52.7447
52.7575
52.7703
52.7829
52.7956
52.8082
52.8208
52.8333
52.8458
52.8582
52.8705
52.8827
52.895
52.9071
52.9192
52.9313
52.9433
52.9552
52.9671
52.9789
52.9907
53.0022
53.014
53.0254
53.0371
53.0481
53.0599
53.0707
53.0824
53.093
53.1046
53.115
53.1266
53.1366
53.1482
53.1581
53.1696
53.1793
53.1905
51.1837
51.1857
51.1885
51.1912
51.1937
51.196
51.198
51.2002
51.2024
51.2047
51.2069
51.2093
51.2119
51.2146
51.2174
51.2204
51.2235
51.2268
51.2301
51.2337
51.2373
51.2411
51.2451
51.2493
51.2535
51.2579
51.2623
51.267
51.2718
51.2767
51.2818
51.2871
51.2923
51.2979
51.3035
51.3092
51.3151
51.3212
51.3273
51.3336
51.3401
51.3466
51.3533
51.3601
51.367
51.3741
51.3813
51.3886
51.3961
51.4037
51.4114
51.4193
51.4273
51.4354
51.4436
51.4519
51.4604
51.469
51.4777
51.4865
51.4955
51.5045
51.5137
51.523
51.5325
51.542
51.5517
51.5615
51.5713
51.5813
51.5914
51.6015
51.6118
51.6222
51.6327
51.6432
51.6539
51.6647
51.6757
51.6866
51.6977
51.7088
51.7201
51.7315
51.7428
51.7543
51.7659
51.7776
51.7894
51.8012
51.8132
51.8251
51.8371
51.8493
51.8615
51.8738
51.8861
51.8985
51.911
51.9235
51.9361
51.9488
51.9614
51.9742
51.987
51.9999
52.0128
52.0258
52.0387
52.0518
52.0649
52.0781
52.0912
52.1044
52.1177
52.131
52.1443
52.1575
52.1709
52.1843
52.1977
52.2112
52.2246
52.2381
52.2515
52.265
52.2785
52.292
52.3055
52.3191
52.3326
52.3461
52.3596
52.3732
52.3867
52.4002
52.4137
52.4272
52.4407
52.4542
52.4677
52.4811
52.4946
52.508
52.5214
52.5348
52.5481
52.5615
52.5748
52.5881
52.6013
52.6145
52.6277
52.6408
52.6539
52.667
52.6801
52.6931
52.7061
52.719
52.7318
52.7447
52.7575
52.7703
52.7829
52.7956
52.8082
52.8208
52.8333
52.8458
52.8582
52.8705
52.8827
52.895
52.9071
52.9192
52.9313
52.9433
52.9552
52.9671
52.9789
52.9907
53.0022
53.014
53.0254
53.0371
53.0481
53.0599
53.0707
53.0824
53.093
53.1047
53.115
53.1266
53.1367
53.1483
53.1581
53.1696
53.1788
53.1905
51.1837
51.1857
51.1885
51.1912
51.1937
51.196
51.198
51.2002
51.2024
51.2047
51.2069
51.2093
51.2119
51.2146
51.2174
51.2204
51.2235
51.2268
51.2301
51.2337
51.2373
51.2411
51.2451
51.2493
51.2535
51.2579
51.2623
51.267
51.2718
51.2767
51.2818
51.287
51.2923
51.2979
51.3035
51.3092
51.3151
51.3211
51.3273
51.3336
51.3401
51.3466
51.3533
51.3601
51.367
51.3741
51.3813
51.3886
51.3961
51.4037
51.4114
51.4193
51.4273
51.4354
51.4436
51.4519
51.4604
51.469
51.4777
51.4865
51.4955
51.5045
51.5137
51.523
51.5324
51.542
51.5517
51.5615
51.5713
51.5813
51.5913
51.6015
51.6118
51.6222
51.6327
51.6432
51.6539
51.6647
51.6757
51.6866
51.6977
51.7088
51.7201
51.7315
51.7428
51.7543
51.7659
51.7776
51.7894
51.8012
51.8132
51.8251
51.8371
51.8493
51.8615
51.8738
51.8861
51.8985
51.911
51.9235
51.9361
51.9488
51.9614
51.9742
51.987
51.9999
52.0128
52.0258
52.0387
52.0518
52.0649
52.0781
52.0912
52.1044
52.1177
52.131
52.1443
52.1575
52.1709
52.1843
52.1977
52.2112
52.2246
52.2381
52.2515
52.265
52.2785
52.292
52.3055
52.3191
52.3326
52.3461
52.3596
52.3732
52.3867
52.4002
52.4137
52.4272
52.4407
52.4542
52.4677
52.4811
52.4946
52.508
52.5214
52.5348
52.5481
52.5615
52.5748
52.5881
52.6013
52.6145
52.6277
52.6408
52.6539
52.667
52.6801
52.6931
52.7061
52.719
52.7318
52.7447
52.7575
52.7703
52.7829
52.7956
52.8082
52.8208
52.8333
52.8458
52.8582
52.8705
52.8827
52.895
52.9071
52.9192
52.9313
52.9433
52.9552
52.9671
52.9789
52.9907
53.0022
53.014
53.0254
53.0371
53.0481
53.0599
53.0707
53.0825
53.0929
53.1047
53.1149
53.1266
53.1366
53.1482
53.1581
53.1696
53.1786
53.1905
51.1831
51.1851
51.188
51.1907
51.1932
51.1954
51.1975
51.1997
51.2019
51.2041
51.2064
51.2088
51.2114
51.214
51.2169
51.2199
51.223
51.2262
51.2297
51.2332
51.2368
51.2407
51.2446
51.2488
51.253
51.2574
51.2618
51.2665
51.2713
51.2762
51.2813
51.2865
51.2918
51.2974
51.303
51.3087
51.3146
51.3207
51.3268
51.3331
51.3396
51.3461
51.3528
51.3597
51.3665
51.3736
51.3808
51.3881
51.3956
51.4033
51.411
51.4188
51.4269
51.4349
51.4432
51.4515
51.46
51.4686
51.4773
51.4861
51.4951
51.5041
51.5133
51.5226
51.5321
51.5416
51.5513
51.5611
51.5709
51.5809
51.591
51.6012
51.6114
51.6218
51.6322
51.6428
51.6536
51.6643
51.6752
51.6862
51.6973
51.7085
51.7198
51.7311
51.7425
51.754
51.7656
51.7773
51.789
51.8008
51.8128
51.8248
51.8368
51.8489
51.8612
51.8734
51.8858
51.8982
51.9107
51.9232
51.9357
51.9484
51.9611
51.9739
51.9867
51.9995
52.0125
52.0254
52.0384
52.0515
52.0646
52.0777
52.0909
52.1041
52.1173
52.1306
52.1439
52.1572
52.1706
52.184
52.1973
52.2108
52.2243
52.2377
52.2512
52.2647
52.2781
52.2916
52.3052
52.3187
52.3323
52.3457
52.3593
52.3728
52.3864
52.3998
52.4134
52.4269
52.4404
52.4539
52.4673
52.4808
52.4942
52.5076
52.521
52.5344
52.5477
52.5611
52.5744
52.5877
52.6009
52.6142
52.6274
52.6405
52.6536
52.6667
52.6797
52.6927
52.7057
52.7186
52.7315
52.7444
52.7571
52.7699
52.7826
52.7952
52.8079
52.8204
52.8329
52.8454
52.8578
52.8701
52.8824
52.8947
52.9068
52.9189
52.931
52.9429
52.9549
52.9668
52.9785
52.9903
53.0019
53.0137
53.025
53.0367
53.0478
53.0595
53.0704
53.0821
53.0926
53.1044
53.1146
53.1263
53.1363
53.1479
53.1577
53.1693
53.178
53.1906
53.1965
53.1989
53.2007
53.2023
53.2037
53.2051
53.2068
53.2086
53.2104
53.2123
53.2141
53.216
53.2178
53.2196
53.2214
53.2232
53.2249
53.2267
53.2285
53.2304
53.1963
53.1987
53.2007
53.2025
53.2042
53.2058
53.2075
53.2092
53.2109
53.2127
53.2145
53.2164
53.2183
53.2202
53.222
53.2239
53.2257
53.2275
53.2294
53.2313
53.1961
53.1986
53.2006
53.2025
53.2043
53.206
53.2078
53.2094
53.2111
53.2129
53.2145
53.2165
53.2182
53.2203
53.2221
53.2241
53.2258
53.2278
53.2296
53.2315
53.196
53.1982
53.2002
53.2022
53.204
53.2059
53.2077
53.2096
53.2113
53.2131
53.2147
53.2164
53.218
53.2196
53.2212
53.2229
53.2244
53.2262
53.2279
53.2299
53.1966
53.1988
53.201
53.203
53.2049
53.2068
53.2086
53.2105
53.2123
53.2142
53.2161
53.218
53.2199
53.2217
53.2236
53.2255
53.2273
53.2291
53.2309
53.2326
53.1956
53.1973
53.1989
53.2007
53.2024
53.2044
53.2062
53.2081
53.21
53.2119
53.2136
53.2155
53.2172
53.2189
53.2205
53.2222
53.2237
53.2253
53.2269
53.2287
53.1963
53.198
53.1999
53.2018
53.2037
53.2055
53.2074
53.2093
53.2112
53.2132
53.2151
53.2171
53.219
53.2209
53.2229
53.2249
53.2269
53.2289
53.231
53.233
53.1948
53.1957
53.1967
53.198
53.1996
53.2015
53.2034
53.2054
53.2075
53.2095
53.2116
53.2137
53.2158
53.2179
53.2199
53.2219
53.224
53.2261
53.2283
53.2305
53.195
53.196
53.1974
53.199
53.2008
53.2028
53.2048
53.2069
53.209
53.2111
53.2133
53.2154
53.2176
53.2198
53.222
53.2242
53.2264
53.2286
53.2308
53.2329
53.1951
53.1957
53.1969
53.1984
53.2002
53.2021
53.2041
53.2062
53.2083
53.2103
53.2124
53.2145
53.2166
53.2187
53.2208
53.2229
53.2251
53.2272
53.2294
53.2316
53.2341
53.2412
53.2491
53.257
53.2647
53.2723
53.28
53.2878
53.2954
53.3029
53.3103
53.3176
53.3249
53.3323
53.3395
53.3467
53.3539
53.3609
53.368
53.375
53.3819
53.3887
53.3955
53.4022
53.4089
53.4157
53.4222
53.4288
53.4353
53.4418
53.4482
53.4546
53.4609
53.4672
53.4733
53.4795
53.4856
53.4916
53.4976
53.5036
53.5094
53.5153
53.5211
53.5268
53.5326
53.5382
53.5438
53.5494
53.5548
53.5602
53.5656
53.571
53.5763
53.5815
53.5866
53.5918
53.5968
53.6019
53.6068
53.6117
53.6166
53.6214
53.6261
53.6309
53.6355
53.6401
53.6446
53.6492
53.6537
53.6581
53.6624
53.6667
53.671
53.6752
53.6794
53.6836
53.6876
53.6916
53.6956
53.6996
53.7035
53.7075
53.7116
53.7154
53.7191
53.7227
53.7262
53.7301
53.7345
53.739
53.7429
53.7453
53.7424
53.7207
53.6715
53.6215
53.5772
53.542
53.5186
53.5071
53.5058
53.5096
53.5203
53.5588
53.6305
53.6926
53.7402
53.7733
53.7943
53.8065
53.8136
53.8177
53.8194
53.8171
53.8152
53.8147
53.8149
53.8159
53.8173
53.8188
53.8205
53.8223
53.824
53.8258
53.8276
53.8293
53.8311
53.8327
53.8344
53.836
53.8375
53.839
53.8406
53.842
53.8435
53.8449
53.8462
53.8476
53.8488
53.8501
53.8513
53.8525
53.8537
53.8548
53.8559
53.857
53.858
53.8591
53.86
53.861
53.8619
53.8628
53.8637
53.8646
53.8653
53.8661
53.8669
53.8677
53.8684
53.8691
53.8698
53.8705
53.8711
53.8717
53.8723
53.8729
53.8735
53.874
53.8746
53.8751
53.8755
53.8761
53.8765
53.8769
53.8774
53.8778
53.8782
53.8787
53.879
53.8794
53.8797
53.8802
53.8802
53.8809
53.8809
53.8815
53.8815
53.8822
53.882
53.8827
53.8825
53.8832
53.883
53.8837
53.8835
53.8841
53.8839
53.8846
53.8841
53.8846
53.2351
53.2421
53.2497
53.2578
53.2655
53.2732
53.2809
53.2886
53.2962
53.3039
53.3112
53.3186
53.3259
53.3333
53.3405
53.3477
53.3549
53.362
53.369
53.376
53.3829
53.3898
53.3966
53.4033
53.41
53.4167
53.4234
53.4298
53.4364
53.4428
53.4493
53.4557
53.462
53.4682
53.4744
53.4806
53.4867
53.4927
53.4987
53.5047
53.5105
53.5164
53.5222
53.5279
53.5337
53.5393
53.5449
53.5505
53.5559
53.5613
53.5667
53.572
53.5774
53.5826
53.5878
53.5929
53.598
53.603
53.608
53.6128
53.6177
53.6225
53.6272
53.632
53.6366
53.6412
53.6458
53.6503
53.6547
53.6592
53.6636
53.6679
53.6721
53.6763
53.6804
53.6847
53.6887
53.6927
53.6967
53.7007
53.7046
53.7084
53.7123
53.7161
53.7197
53.7232
53.7268
53.7306
53.7345
53.7387
53.7429
53.7472
53.7517
53.7567
53.7617
53.7663
53.7702
53.7719
53.7684
53.7624
53.7565
53.7517
53.749
53.7495
53.7526
53.7567
53.7638
53.7754
53.7852
53.7926
53.7985
53.8033
53.807
53.8094
53.8107
53.812
53.8135
53.8152
53.8171
53.8189
53.8207
53.8225
53.8243
53.8262
53.8279
53.8297
53.8314
53.8331
53.8346
53.8362
53.8378
53.8394
53.8409
53.8423
53.8438
53.8452
53.8465
53.8479
53.8491
53.8504
53.8516
53.8528
53.854
53.8552
53.8562
53.8573
53.8583
53.8594
53.8603
53.8613
53.8622
53.8631
53.864
53.8648
53.8657
53.8665
53.8672
53.868
53.8687
53.8694
53.8701
53.8708
53.8714
53.872
53.8727
53.8732
53.8738
53.8743
53.8749
53.8754
53.8759
53.8764
53.8768
53.8772
53.8777
53.8781
53.8785
53.879
53.8792
53.8797
53.8799
53.8805
53.8806
53.8812
53.8812
53.8819
53.8818
53.8824
53.8824
53.883
53.8829
53.8835
53.8833
53.8839
53.8838
53.8844
53.8842
53.8849
53.8846
53.8848
53.2353
53.2422
53.2498
53.2578
53.2655
53.2731
53.2807
53.2884
53.2961
53.3036
53.311
53.3184
53.3258
53.3331
53.3403
53.3475
53.3547
53.3618
53.3688
53.3758
53.3828
53.3896
53.3964
53.4031
53.4098
53.4165
53.4232
53.4296
53.4362
53.4426
53.4491
53.4555
53.4618
53.4681
53.4742
53.4804
53.4865
53.4925
53.4985
53.5044
53.5104
53.5163
53.522
53.5277
53.5335
53.5391
53.5447
53.5502
53.5558
53.5611
53.5665
53.5719
53.5771
53.5824
53.5876
53.5927
53.5978
53.6028
53.6077
53.6127
53.6175
53.6224
53.6271
53.6318
53.6364
53.641
53.6456
53.6501
53.6546
53.659
53.6634
53.6677
53.6719
53.6761
53.6803
53.6845
53.6885
53.6925
53.6965
53.7004
53.7043
53.7081
53.712
53.7159
53.7197
53.7233
53.7266
53.7299
53.7331
53.7375
53.7422
53.7474
53.7537
53.7614
53.7685
53.7747
53.7802
53.7854
53.7901
53.7939
53.7955
53.7924
53.7886
53.7854
53.7833
53.7825
53.7832
53.7852
53.7882
53.7917
53.7955
53.799
53.8023
53.8053
53.8079
53.8103
53.8125
53.8147
53.8167
53.8187
53.8206
53.8224
53.8243
53.8262
53.8279
53.8296
53.8314
53.8331
53.8346
53.8362
53.8378
53.8394
53.8409
53.8423
53.8438
53.8452
53.8465
53.8479
53.8491
53.8504
53.8516
53.8528
53.854
53.8552
53.8562
53.8573
53.8583
53.8594
53.8603
53.8613
53.8622
53.8631
53.864
53.8648
53.8657
53.8665
53.8672
53.868
53.8687
53.8694
53.8701
53.8708
53.8714
53.872
53.8727
53.8732
53.8738
53.8743
53.8749
53.8754
53.8759
53.8764
53.8768
53.8772
53.8777
53.8781
53.8785
53.879
53.8792
53.8797
53.8799
53.8805
53.8806
53.8812
53.8812
53.8819
53.8818
53.8824
53.8824
53.883
53.8829
53.8835
53.8834
53.8839
53.8838
53.8844
53.8842
53.8849
53.8847
53.885
53.2343
53.2415
53.2489
53.2565
53.2642
53.2718
53.2791
53.2866
53.294
53.3015
53.3089
53.3163
53.3235
53.3307
53.338
53.3451
53.3523
53.3593
53.3664
53.3733
53.3802
53.3871
53.3939
53.4007
53.4073
53.414
53.4206
53.4272
53.4337
53.4402
53.4466
53.453
53.4593
53.4655
53.4717
53.4779
53.484
53.49
53.496
53.502
53.5079
53.5137
53.5195
53.5253
53.531
53.5366
53.5422
53.5477
53.5532
53.5586
53.564
53.5693
53.5746
53.5799
53.585
53.5902
53.5952
53.6003
53.6052
53.6101
53.615
53.6198
53.6245
53.6293
53.6339
53.6386
53.6431
53.6476
53.6521
53.6565
53.6609
53.6652
53.6695
53.6737
53.6779
53.682
53.6861
53.6901
53.6942
53.6981
53.7021
53.7061
53.7101
53.7139
53.7176
53.7211
53.7245
53.7279
53.7319
53.7367
53.7418
53.7476
53.7546
53.7613
53.7673
53.7727
53.778
53.7827
53.7868
53.7893
53.789
53.7879
53.7871
53.7867
53.7868
53.7876
53.789
53.7908
53.793
53.7955
53.7981
53.8006
53.8032
53.8056
53.8079
53.8101
53.8123
53.8144
53.8165
53.8184
53.8204
53.8223
53.8241
53.826
53.8278
53.8296
53.8313
53.833
53.8346
53.8363
53.8378
53.8394
53.8408
53.8423
53.8438
53.8452
53.8465
53.8478
53.8491
53.8504
53.8516
53.8528
53.854
53.8552
53.8562
53.8573
53.8583
53.8594
53.8603
53.8613
53.8622
53.8631
53.864
53.8648
53.8657
53.8665
53.8672
53.868
53.8687
53.8694
53.8701
53.8708
53.8714
53.872
53.8727
53.8732
53.8738
53.8743
53.8749
53.8754
53.8759
53.8764
53.8768
53.8772
53.8777
53.8781
53.8785
53.879
53.8793
53.8797
53.8799
53.8805
53.8807
53.8812
53.8813
53.8818
53.8818
53.8824
53.8823
53.883
53.8829
53.8835
53.8834
53.8839
53.8838
53.8844
53.8843
53.8849
53.8848
53.885
53.2369
53.2441
53.2517
53.2592
53.2666
53.2742
53.2819
53.2896
53.2972
53.3046
53.3119
53.3193
53.3266
53.3339
53.3411
53.3482
53.3553
53.3624
53.3694
53.3764
53.3833
53.3902
53.397
53.4037
53.4105
53.4171
53.4238
53.4303
53.4369
53.4433
53.4497
53.4561
53.4624
53.4687
53.4749
53.481
53.4871
53.4932
53.4992
53.5051
53.511
53.5169
53.5227
53.5284
53.5341
53.5398
53.5453
53.5509
53.5563
53.5618
53.5672
53.5725
53.5778
53.583
53.5882
53.5933
53.5984
53.6034
53.6083
53.6133
53.6181
53.623
53.6277
53.6324
53.637
53.6416
53.6462
53.6507
53.6552
53.6596
53.6639
53.6682
53.6724
53.6767
53.6808
53.685
53.689
53.693
53.697
53.7009
53.7048
53.7085
53.7123
53.716
53.7197
53.7233
53.727
53.7304
53.7335
53.7368
53.7404
53.7447
53.7495
53.7545
53.7596
53.7647
53.7696
53.774
53.7778
53.7808
53.7829
53.7845
53.7858
53.787
53.7882
53.7896
53.7912
53.793
53.7949
53.797
53.7992
53.8013
53.8036
53.8058
53.808
53.8102
53.8122
53.8143
53.8164
53.8184
53.8204
53.8223
53.8241
53.826
53.8278
53.8296
53.8313
53.833
53.8346
53.8363
53.8378
53.8394
53.8408
53.8423
53.8438
53.8452
53.8465
53.8478
53.8491
53.8504
53.8516
53.8528
53.854
53.8552
53.8562
53.8573
53.8583
53.8594
53.8603
53.8613
53.8622
53.8631
53.864
53.8648
53.8657
53.8665
53.8672
53.868
53.8687
53.8694
53.8701
53.8708
53.8714
53.872
53.8727
53.8732
53.8738
53.8743
53.8749
53.8754
53.8759
53.8764
53.8768
53.8772
53.8777
53.8781
53.8785
53.879
53.8793
53.8796
53.88
53.8804
53.8808
53.881
53.8814
53.8817
53.8819
53.8823
53.8826
53.8827
53.8832
53.8832
53.8836
53.8838
53.8839
53.8843
53.8843
53.8847
53.8848
53.8851
53.2338
53.2412
53.2482
53.2551
53.262
53.269
53.2761
53.2831
53.2901
53.2973
53.3044
53.3116
53.3187
53.3259
53.333
53.3401
53.3472
53.3543
53.3612
53.3683
53.3752
53.382
53.3888
53.3956
53.4023
53.409
53.4156
53.4221
53.4287
53.4351
53.4415
53.4479
53.4542
53.4604
53.4666
53.4728
53.479
53.485
53.491
53.4969
53.5028
53.5087
53.5145
53.5202
53.526
53.5315
53.5371
53.5427
53.5482
53.5537
53.559
53.5643
53.5696
53.5749
53.58
53.5852
53.5903
53.5953
53.6003
53.6052
53.6101
53.6149
53.6197
53.6245
53.6293
53.6339
53.6385
53.6432
53.6477
53.6522
53.6566
53.6611
53.6654
53.6698
53.6742
53.6785
53.6827
53.687
53.6912
53.6952
53.6993
53.703
53.7068
53.7105
53.7142
53.7182
53.7226
53.7275
53.7326
53.7379
53.7431
53.7482
53.7529
53.7572
53.7614
53.7654
53.7692
53.7723
53.775
53.7773
53.7792
53.7809
53.7826
53.7841
53.7859
53.7878
53.7897
53.7918
53.7941
53.7963
53.7986
53.8008
53.8031
53.8054
53.8076
53.8098
53.8119
53.8141
53.8162
53.8182
53.8202
53.8221
53.824
53.8259
53.8277
53.8295
53.8313
53.833
53.8346
53.8363
53.8378
53.8394
53.8408
53.8423
53.8438
53.8452
53.8465
53.8478
53.8491
53.8504
53.8516
53.8528
53.854
53.8552
53.8562
53.8573
53.8583
53.8594
53.8603
53.8613
53.8622
53.8631
53.864
53.8648
53.8657
53.8665
53.8672
53.868
53.8687
53.8694
53.8701
53.8708
53.8714
53.872
53.8727
53.8732
53.8738
53.8743
53.8749
53.8754
53.8759
53.8764
53.8768
53.8772
53.8777
53.8781
53.8786
53.8789
53.8794
53.8796
53.8801
53.8803
53.8809
53.8809
53.8815
53.8815
53.8821
53.8821
53.8827
53.8827
53.8832
53.8831
53.8837
53.8836
53.8842
53.884
53.8846
53.8845
53.885
53.8849
53.2392
53.2476
53.2554
53.2631
53.2707
53.2783
53.2858
53.2934
53.3008
53.3083
53.3157
53.323
53.3303
53.3374
53.3446
53.3518
53.3588
53.3659
53.373
53.3799
53.3868
53.3937
53.4006
53.4074
53.4141
53.4208
53.4275
53.434
53.4406
53.447
53.4534
53.4598
53.4661
53.4724
53.4785
53.4847
53.4908
53.4968
53.5029
53.5088
53.5147
53.5205
53.5264
53.532
53.5378
53.5434
53.549
53.5545
53.56
53.5654
53.5708
53.5761
53.5814
53.5866
53.5918
53.5969
53.602
53.607
53.612
53.6169
53.6218
53.6266
53.6314
53.636
53.6407
53.6453
53.6499
53.6544
53.6588
53.6633
53.6677
53.672
53.6763
53.6805
53.6846
53.6887
53.6928
53.6969
53.7008
53.7047
53.7085
53.7124
53.7162
53.7199
53.7235
53.727
53.7305
53.7341
53.7376
53.741
53.7444
53.7476
53.7504
53.7529
53.7556
53.7588
53.7626
53.7668
53.7713
53.7762
53.7808
53.7848
53.7877
53.789
53.7901
53.7911
53.7923
53.7936
53.7953
53.7972
53.7992
53.8013
53.8034
53.8055
53.8077
53.8098
53.8119
53.8141
53.8162
53.8181
53.8202
53.8221
53.824
53.8259
53.8277
53.8295
53.8313
53.8329
53.8346
53.8363
53.8378
53.8394
53.8408
53.8423
53.8438
53.8452
53.8465
53.8478
53.8491
53.8504
53.8516
53.8528
53.854
53.8552
53.8562
53.8573
53.8583
53.8594
53.8603
53.8613
53.8622
53.8631
53.864
53.8648
53.8657
53.8665
53.8672
53.868
53.8687
53.8694
53.8701
53.8708
53.8714
53.872
53.8727
53.8732
53.8738
53.8743
53.8749
53.8754
53.8759
53.8764
53.8768
53.8772
53.8777
53.8781
53.8786
53.8789
53.8794
53.8796
53.8801
53.8803
53.8809
53.8809
53.8815
53.8815
53.8821
53.8821
53.8827
53.8827
53.8832
53.8831
53.8837
53.8836
53.8842
53.8841
53.8846
53.8846
53.8847
53.885
53.2375
53.245
53.2519
53.2586
53.2652
53.2718
53.2785
53.2852
53.2918
53.2985
53.3053
53.3123
53.3192
53.3263
53.3334
53.3404
53.3475
53.3545
53.3615
53.3685
53.3754
53.3823
53.3891
53.3959
53.4026
53.4093
53.4159
53.4224
53.429
53.4354
53.4418
53.4481
53.4545
53.4607
53.467
53.4731
53.4792
53.4853
53.4913
53.4973
53.5032
53.5091
53.5148
53.5206
53.5264
53.5321
53.5376
53.5432
53.5487
53.5542
53.5596
53.5649
53.5702
53.5755
53.5807
53.5858
53.5909
53.5959
53.6008
53.6057
53.6105
53.6154
53.6201
53.6248
53.6295
53.6341
53.6387
53.6433
53.6478
53.6524
53.6568
53.6613
53.6657
53.6701
53.6745
53.6788
53.6831
53.6872
53.6912
53.6951
53.6989
53.7028
53.7065
53.7101
53.7137
53.7172
53.7209