/*--------------------------------*- C++ -*----------------------------------*\
| =========                 |                                                 |
| \\      /  F ield         | OpenFOAM: The Open Source CFD Toolbox           |
|  \\    /   O peration     | Version:  3.0.x                                 |
|   \\  /    A nd           | Web:      www.OpenFOAM.org                      |
|    \\/     M anipulation  |                                                 |
\*---------------------------------------------------------------------------*/
FoamFile
{
    version     2.0;
    format      ascii;
    class       volScalarField;
    location    "0.53";
    object      T;
}
// * * * * * * * * * * * * * * * * * * * * * * * * * * * * * * * * * * * * * //

dimensions      [0 0 0 1 0 0 0];

internalField   nonuniform List<scalar> 
13800
(
775.333
775.317
775.296
775.28
775.267
775.261
775.26
775.261
775.263
775.267
775.274
775.281
775.289
775.297
775.306
775.314
775.323
775.334
775.343
775.354
775.366
775.377
775.389
775.401
775.414
775.427
775.441
775.455
775.469
775.485
775.5
775.516
775.532
775.548
775.566
775.583
775.601
775.618
775.637
775.657
775.676
775.695
775.716
775.736
775.759
775.78
775.802
775.824
775.847
775.869
775.892
775.916
775.939
775.964
775.989
776.014
776.039
776.065
776.091
776.119
776.145
776.173
776.199
776.228
776.255
776.283
776.312
776.34
776.37
776.4
776.43
776.461
776.492
776.523
776.555
776.587
776.618
776.651
776.683
776.716
776.748
776.782
776.815
776.849
776.884
776.918
776.953
776.988
777.023
777.059
777.094
777.13
777.167
777.203
777.239
777.277
777.314
777.351
777.388
777.426
777.464
777.502
777.54
777.578
777.617
777.656
777.694
777.734
777.772
777.811
777.85
777.89
777.929
777.969
778.008
778.048
778.088
778.128
778.168
778.207
778.248
778.288
778.328
778.368
778.409
778.449
778.489
778.53
778.57
778.61
778.65
778.691
778.732
778.771
778.812
778.853
778.892
778.933
778.973
779.013
779.053
779.094
779.134
779.174
779.213
779.253
779.293
779.332
779.372
779.411
779.451
779.49
779.529
779.568
779.607
779.646
779.685
779.724
779.762
779.8
779.839
779.876
779.915
779.952
779.991
780.028
780.065
780.102
780.139
780.176
780.212
780.25
780.286
780.321
780.358
780.394
780.429
780.465
780.5
780.535
780.57
780.605
780.639
780.674
780.706
780.743
780.773
780.812
780.838
780.878
780.903
780.945
780.967
781.011
781.031
781.074
781.096
781.133
781.169
781.187
775.325
775.308
775.288
775.271
775.259
775.253
775.252
775.253
775.255
775.259
775.266
775.273
775.28
775.289
775.297
775.307
775.316
775.325
775.336
775.347
775.358
775.37
775.381
775.393
775.406
775.42
775.434
775.448
775.462
775.477
775.493
775.508
775.525
775.541
775.558
775.575
775.593
775.612
775.631
775.65
775.668
775.689
775.709
775.73
775.752
775.773
775.795
775.817
775.84
775.862
775.885
775.909
775.933
775.957
775.982
776.007
776.032
776.058
776.084
776.112
776.139
776.166
776.194
776.221
776.249
776.277
776.306
776.334
776.364
776.394
776.425
776.455
776.486
776.517
776.549
776.581
776.613
776.645
776.676
776.71
776.743
776.776
776.81
776.843
776.879
776.913
776.948
776.983
777.018
777.054
777.089
777.125
777.162
777.198
777.234
777.272
777.309
777.346
777.383
777.421
777.459
777.496
777.535
777.573
777.611
777.65
777.689
777.728
777.767
777.806
777.845
777.884
777.924
777.964
778.003
778.042
778.082
778.123
778.163
778.202
778.242
778.282
778.323
778.363
778.403
778.443
778.484
778.525
778.564
778.605
778.645
778.686
778.727
778.766
778.807
778.847
778.888
778.928
778.968
779.008
779.048
779.089
779.128
779.168
779.208
779.248
779.288
779.327
779.367
779.406
779.446
779.485
779.524
779.563
779.602
779.641
779.68
779.719
779.757
779.795
779.834
779.871
779.91
779.947
779.986
780.023
780.06
780.097
780.134
780.171
780.207
780.244
780.281
780.316
780.353
780.389
780.424
780.46
780.495
780.53
780.565
780.6
780.634
780.669
780.701
780.738
780.768
780.807
780.833
780.873
780.898
780.94
780.962
781.006
781.026
781.07
781.09
781.132
781.153
781.197
775.325
775.308
775.288
775.271
775.259
775.253
775.252
775.253
775.255
775.259
775.266
775.273
775.28
775.289
775.297
775.307
775.316
775.325
775.336
775.347
775.358
775.37
775.381
775.393
775.406
775.42
775.434
775.448
775.462
775.477
775.493
775.508
775.525
775.541
775.558
775.576
775.593
775.612
775.63
775.649
775.668
775.689
775.709
775.729
775.752
775.773
775.795
775.817
775.84
775.862
775.885
775.909
775.933
775.957
775.982
776.007
776.032
776.058
776.084
776.112
776.139
776.166
776.194
776.221
776.249
776.277
776.306
776.334
776.364
776.394
776.424
776.455
776.485
776.517
776.549
776.581
776.613
776.645
776.676
776.71
776.743
776.776
776.81
776.843
776.879
776.913
776.948
776.983
777.018
777.054
777.089
777.125
777.162
777.198
777.234
777.272
777.309
777.346
777.383
777.421
777.459
777.496
777.535
777.573
777.611
777.65
777.689
777.728
777.767
777.806
777.845
777.884
777.924
777.964
778.003
778.042
778.082
778.123
778.163
778.202
778.242
778.282
778.323
778.363
778.403
778.443
778.484
778.525
778.564
778.605
778.645
778.686
778.727
778.766
778.807
778.847
778.888
778.928
778.968
779.008
779.048
779.089
779.128
779.168
779.208
779.248
779.288
779.327
779.367
779.406
779.446
779.485
779.524
779.563
779.602
779.641
779.68
779.719
779.757
779.795
779.834
779.871
779.91
779.947
779.986
780.023
780.06
780.097
780.134
780.171
780.207
780.244
780.281
780.316
780.353
780.389
780.424
780.46
780.495
780.53
780.565
780.6
780.634
780.669
780.701
780.738
780.768
780.807
780.833
780.873
780.898
780.94
780.962
781.006
781.026
781.07
781.09
781.132
781.152
781.197
775.325
775.308
775.288
775.271
775.259
775.253
775.252
775.253
775.255
775.259
775.266
775.273
775.28
775.289
775.297
775.307
775.316
775.325
775.336
775.347
775.358
775.37
775.381
775.393
775.406
775.42
775.434
775.448
775.462
775.477
775.493
775.508
775.525
775.541
775.558
775.575
775.593
775.612
775.631
775.65
775.668
775.689
775.709
775.73
775.752
775.773
775.795
775.817
775.84
775.862
775.885
775.909
775.933
775.957
775.982
776.007
776.032
776.058
776.084
776.112
776.139
776.166
776.194
776.221
776.249
776.277
776.306
776.334
776.364
776.394
776.425
776.455
776.486
776.517
776.549
776.581
776.613
776.645
776.676
776.71
776.743
776.776
776.81
776.843
776.879
776.913
776.948
776.983
777.018
777.054
777.089
777.125
777.162
777.198
777.234
777.272
777.309
777.346
777.383
777.421
777.459
777.496
777.535
777.573
777.611
777.65
777.689
777.728
777.767
777.806
777.845
777.884
777.924
777.964
778.003
778.042
778.082
778.123
778.163
778.202
778.242
778.282
778.323
778.363
778.403
778.443
778.484
778.525
778.564
778.605
778.645
778.686
778.727
778.766
778.807
778.847
778.888
778.928
778.968
779.008
779.048
779.089
779.128
779.168
779.208
779.248
779.288
779.327
779.367
779.406
779.446
779.485
779.524
779.563
779.602
779.641
779.68
779.719
779.757
779.795
779.834
779.871
779.91
779.947
779.986
780.023
780.06
780.097
780.134
780.171
780.207
780.244
780.281
780.316
780.353
780.389
780.424
780.46
780.495
780.53
780.565
780.6
780.634
780.669
780.701
780.738
780.768
780.807
780.833
780.873
780.898
780.94
780.962
781.006
781.026
781.069
781.09
781.133
781.153
781.192
775.325
775.308
775.287
775.271
775.259
775.253
775.252
775.253
775.255
775.26
775.266
775.273
775.28
775.289
775.297
775.307
775.316
775.325
775.336
775.347
775.358
775.37
775.381
775.393
775.406
775.42
775.434
775.448
775.462
775.477
775.493
775.508
775.525
775.541
775.558
775.575
775.593
775.612
775.631
775.65
775.668
775.689
775.709
775.73
775.752
775.773
775.795
775.817
775.84
775.862
775.885
775.909
775.933
775.957
775.982
776.007
776.032
776.058
776.084
776.112
776.139
776.166
776.194
776.221
776.249
776.277
776.306
776.334
776.364
776.394
776.425
776.455
776.486
776.517
776.549
776.581
776.613
776.645
776.676
776.71
776.743
776.776
776.81
776.843
776.879
776.913
776.948
776.983
777.018
777.054
777.089
777.125
777.162
777.198
777.234
777.272
777.309
777.346
777.383
777.421
777.459
777.496
777.535
777.573
777.611
777.65
777.689
777.728
777.767
777.806
777.845
777.884
777.924
777.964
778.003
778.042
778.082
778.123
778.163
778.202
778.242
778.282
778.323
778.363
778.403
778.443
778.484
778.525
778.564
778.605
778.645
778.686
778.727
778.766
778.807
778.847
778.888
778.928
778.968
779.008
779.048
779.089
779.128
779.168
779.208
779.248
779.288
779.327
779.367
779.406
779.446
779.485
779.524
779.563
779.602
779.641
779.68
779.719
779.757
779.795
779.834
779.871
779.91
779.947
779.986
780.023
780.06
780.097
780.134
780.171
780.207
780.244
780.281
780.316
780.353
780.389
780.424
780.46
780.495
780.53
780.565
780.6
780.634
780.669
780.701
780.738
780.768
780.807
780.833
780.873
780.898
780.94
780.962
781.005
781.026
781.07
781.09
781.132
781.152
781.196
775.325
775.308
775.287
775.271
775.259
775.253
775.252
775.253
775.255
775.26
775.266
775.273
775.28
775.289
775.297
775.307
775.316
775.325
775.336
775.347
775.358
775.37
775.381
775.393
775.406
775.42
775.434
775.448
775.462
775.477
775.493
775.508
775.525
775.541
775.558
775.575
775.593
775.612
775.631
775.65
775.668
775.689
775.709
775.73
775.752
775.773
775.795
775.817
775.84
775.862
775.885
775.909
775.933
775.957
775.982
776.007
776.032
776.058
776.084
776.112
776.139
776.166
776.194
776.221
776.249
776.277
776.306
776.334
776.364
776.394
776.425
776.455
776.486
776.517
776.549
776.581
776.613
776.645
776.676
776.71
776.743
776.776
776.81
776.843
776.879
776.913
776.948
776.983
777.018
777.054
777.089
777.125
777.162
777.198
777.234
777.272
777.309
777.346
777.383
777.421
777.459
777.496
777.535
777.573
777.611
777.65
777.689
777.728
777.767
777.806
777.845
777.884
777.924
777.964
778.003
778.042
778.082
778.123
778.163
778.202
778.242
778.282
778.323
778.363
778.403
778.443
778.484
778.525
778.564
778.605
778.645
778.686
778.727
778.766
778.807
778.847
778.888
778.928
778.968
779.008
779.048
779.089
779.128
779.168
779.208
779.248
779.288
779.327
779.367
779.406
779.446
779.485
779.524
779.563
779.602
779.641
779.68
779.719
779.757
779.795
779.834
779.871
779.91
779.947
779.986
780.023
780.06
780.097
780.134
780.171
780.207
780.244
780.281
780.316
780.353
780.389
780.424
780.46
780.495
780.53
780.565
780.6
780.634
780.668
780.703
780.736
780.771
780.803
780.839
780.867
780.906
780.933
780.968
781.001
781.03
781.066
781.095
781.125
781.159
781.186
775.325
775.308
775.288
775.271
775.259
775.253
775.252
775.253
775.255
775.259
775.266
775.273
775.28
775.289
775.297
775.307
775.316
775.325
775.336
775.347
775.358
775.37
775.381
775.393
775.406
775.42
775.434
775.448
775.462
775.477
775.493
775.508
775.525
775.541
775.558
775.575
775.593
775.612
775.631
775.65
775.668
775.689
775.709
775.73
775.752
775.773
775.795
775.817
775.84
775.862
775.885
775.909
775.933
775.957
775.982
776.007
776.032
776.058
776.084
776.112
776.139
776.166
776.194
776.221
776.249
776.277
776.306
776.334
776.364
776.394
776.425
776.455
776.486
776.517
776.549
776.581
776.613
776.645
776.676
776.71
776.743
776.776
776.81
776.843
776.879
776.913
776.948
776.983
777.018
777.054
777.089
777.125
777.162
777.198
777.234
777.272
777.309
777.346
777.383
777.421
777.459
777.496
777.535
777.573
777.611
777.65
777.689
777.728
777.767
777.806
777.845
777.884
777.924
777.964
778.003
778.042
778.082
778.123
778.163
778.202
778.242
778.282
778.323
778.363
778.403
778.443
778.484
778.525
778.564
778.605
778.645
778.686
778.727
778.766
778.807
778.847
778.888
778.928
778.968
779.008
779.048
779.089
779.128
779.168
779.208
779.248
779.288
779.327
779.367
779.406
779.446
779.485
779.524
779.563
779.602
779.641
779.68
779.719
779.757
779.795
779.834
779.871
779.91
779.947
779.986
780.023
780.06
780.097
780.134
780.171
780.207
780.244
780.281
780.316
780.353
780.389
780.424
780.46
780.495
780.53
780.565
780.599
780.635
780.667
780.704
780.735
780.773
780.801
780.84
780.866
780.906
780.931
780.973
780.995
781.039
781.058
781.101
781.12
781.164
781.185
775.325
775.308
775.288
775.271
775.259
775.253
775.252
775.253
775.255
775.259
775.266
775.273
775.28
775.289
775.297
775.307
775.316
775.325
775.336
775.347
775.358
775.37
775.381
775.393
775.406
775.42
775.434
775.448
775.462
775.477
775.493
775.508
775.525
775.541
775.558
775.576
775.593
775.612
775.63
775.649
775.668
775.689
775.709
775.729
775.752
775.773
775.795
775.817
775.84
775.862
775.885
775.909
775.933
775.957
775.982
776.007
776.032
776.058
776.084
776.112
776.139
776.166
776.194
776.221
776.249
776.277
776.306
776.334
776.364
776.394
776.424
776.455
776.485
776.517
776.549
776.581
776.613
776.645
776.676
776.71
776.743
776.776
776.81
776.843
776.879
776.913
776.948
776.983
777.018
777.054
777.089
777.125
777.162
777.198
777.234
777.272
777.309
777.346
777.383
777.421
777.459
777.496
777.535
777.573
777.611
777.65
777.689
777.728
777.767
777.806
777.845
777.884
777.924
777.964
778.003
778.042
778.082
778.123
778.163
778.202
778.242
778.282
778.323
778.363
778.403
778.443
778.484
778.525
778.564
778.605
778.645
778.686
778.727
778.766
778.807
778.847
778.888
778.928
778.968
779.008
779.048
779.089
779.128
779.168
779.208
779.248
779.288
779.327
779.367
779.406
779.446
779.485
779.524
779.563
779.602
779.641
779.68
779.719
779.757
779.795
779.834
779.871
779.91
779.947
779.986
780.023
780.06
780.097
780.134
780.171
780.207
780.244
780.281
780.316
780.353
780.389
780.424
780.46
780.495
780.53
780.565
780.599
780.635
780.667
780.704
780.735
780.773
780.801
780.84
780.866
780.907
780.931
780.973
780.994
781.038
781.057
781.101
781.12
781.17
781.185
775.325
775.308
775.288
775.271
775.259
775.253
775.252
775.253
775.255
775.259
775.266
775.273
775.28
775.289
775.297
775.307
775.316
775.325
775.336
775.347
775.358
775.37
775.381
775.393
775.406
775.42
775.434
775.448
775.462
775.477
775.493
775.508
775.525
775.541
775.558
775.575
775.593
775.612
775.631
775.65
775.668
775.689
775.709
775.73
775.752
775.773
775.795
775.817
775.84
775.862
775.885
775.909
775.933
775.957
775.982
776.007
776.032
776.058
776.084
776.112
776.139
776.166
776.194
776.221
776.249
776.277
776.306
776.334
776.364
776.394
776.425
776.455
776.486
776.517
776.549
776.581
776.613
776.645
776.676
776.71
776.743
776.776
776.81
776.843
776.879
776.913
776.948
776.983
777.018
777.054
777.089
777.125
777.162
777.198
777.234
777.272
777.309
777.346
777.383
777.421
777.459
777.496
777.535
777.573
777.611
777.65
777.689
777.728
777.767
777.806
777.845
777.884
777.924
777.964
778.003
778.042
778.082
778.123
778.163
778.202
778.242
778.282
778.323
778.363
778.403
778.443
778.484
778.525
778.564
778.605
778.645
778.686
778.727
778.766
778.807
778.847
778.888
778.928
778.968
779.008
779.048
779.089
779.128
779.168
779.208
779.248
779.288
779.327
779.367
779.406
779.446
779.485
779.524
779.563
779.602
779.641
779.68
779.719
779.757
779.795
779.834
779.871
779.91
779.947
779.986
780.023
780.06
780.097
780.134
780.171
780.207
780.244
780.281
780.316
780.353
780.389
780.424
780.46
780.495
780.53
780.565
780.599
780.635
780.667
780.704
780.734
780.773
780.8
780.841
780.865
780.908
780.931
780.974
780.994
781.039
781.058
781.102
781.12
781.173
781.186
775.333
775.317
775.296
775.28
775.267
775.261
775.26
775.261
775.263
775.267
775.274
775.281
775.289
775.297
775.306
775.314
775.323
775.334
775.343
775.354
775.366
775.377
775.389
775.401
775.414
775.427
775.441
775.455
775.469
775.485
775.5
775.516
775.532
775.548
775.566
775.583
775.601
775.618
775.637
775.657
775.676
775.695
775.716
775.736
775.759
775.78
775.802
775.824
775.847
775.869
775.892
775.916
775.939
775.964
775.989
776.014
776.039
776.065
776.091
776.119
776.145
776.173
776.199
776.228
776.255
776.283
776.312
776.34
776.37
776.4
776.43
776.461
776.492
776.523
776.555
776.587
776.618
776.651
776.683
776.716
776.748
776.782
776.815
776.849
776.884
776.918
776.953
776.988
777.023
777.059
777.094
777.13
777.167
777.203
777.239
777.277
777.314
777.351
777.388
777.426
777.464
777.502
777.54
777.578
777.617
777.656
777.694
777.734
777.772
777.811
777.85
777.89
777.929
777.969
778.008
778.048
778.088
778.128
778.168
778.207
778.248
778.288
778.328
778.368
778.409
778.449
778.489
778.53
778.57
778.61
778.65
778.691
778.732
778.771
778.812
778.853
778.892
778.933
778.973
779.013
779.053
779.094
779.134
779.174
779.213
779.253
779.293
779.332
779.372
779.411
779.451
779.49
779.529
779.568
779.607
779.646
779.685
779.724
779.762
779.8
779.839
779.876
779.915
779.952
779.991
780.028
780.065
780.102
780.139
780.176
780.212
780.25
780.286
780.321
780.358
780.394
780.429
780.465
780.5
780.535
780.57
780.604
780.641
780.672
780.709
780.74
780.778
780.806
780.845
780.87
780.913
780.935
780.978
780.999
781.044
781.063
781.107
781.125
781.182
781.183
781.213
781.224
781.235
781.248
781.262
781.275
781.286
781.294
781.301
781.307
781.314
781.32
781.327
781.334
781.34
781.347
781.353
781.359
781.365
781.37
781.215
781.224
781.233
781.243
781.253
781.263
781.273
781.282
781.291
781.299
781.306
781.312
781.318
781.323
781.329
781.334
781.34
781.345
781.35
781.354
781.217
781.226
781.236
781.243
781.251
781.26
781.268
781.279
781.288
781.296
781.306
781.311
781.318
781.322
781.328
781.331
781.337
781.341
781.347
781.351
781.213
781.221
781.228
781.235
781.242
781.249
781.258
781.264
781.274
781.282
781.292
781.3
781.31
781.319
781.328
781.335
781.344
781.35
781.355
781.359
781.212
781.219
781.225
781.23
781.236
781.242
781.248
781.254
781.26
781.264
781.27
781.276
781.28
781.286
781.291
781.296
781.301
781.307
781.313
781.319
781.206
781.21
781.216
781.221
781.228
781.233
781.24
781.245
781.252
781.259
781.266
781.274
781.282
781.289
781.299
781.307
781.317
781.325
781.335
781.341
781.206
781.21
781.215
781.219
781.224
781.228
781.233
781.236
781.24
781.242
781.246
781.249
781.253
781.256
781.26
781.262
781.266
781.269
781.273
781.277
781.201
781.203
781.207
781.21
781.215
781.219
781.223
781.226
781.23
781.234
781.237
781.241
781.246
781.251
781.258
781.264
781.271
781.277
781.283
781.287
781.195
781.196
781.197
781.198
781.2
781.202
781.204
781.206
781.209
781.211
781.213
781.216
781.219
781.222
781.225
781.229
781.234
781.239
781.244
781.25
781.186
781.186
781.186
781.188
781.189
781.191
781.194
781.197
781.2
781.203
781.206
781.212
781.216
781.222
781.227
781.233
781.239
781.246
781.252
781.259
781.378
781.4
781.417
781.435
781.455
781.476
781.495
781.512
781.532
781.552
781.573
781.595
781.616
781.636
781.656
781.677
781.697
781.718
781.738
781.758
781.778
781.799
781.82
781.84
781.86
781.879
781.899
781.918
781.937
781.956
781.974
781.993
782.011
782.03
782.049
782.066
782.085
782.103
782.12
782.138
782.155
782.172
782.189
782.206
782.222
782.239
782.256
782.271
782.288
782.304
782.319
782.334
782.35
782.365
782.381
782.395
782.411
782.425
782.44
782.455
782.469
782.483
782.497
782.511
782.524
782.538
782.552
782.565
782.577
782.59
782.604
782.616
782.629
782.641
782.652
782.664
782.677
782.688
782.701
782.711
782.721
782.73
782.737
782.746
782.757
782.769
782.779
782.785
782.782
782.777
782.779
782.803
782.904
783.277
784.051
784.837
785.541
786.11
786.506
786.727
786.797
786.791
786.683
786.164
785.162
784.3
783.649
783.212
782.951
782.815
782.754
782.736
782.752
782.825
782.892
782.938
782.972
782.994
783.01
783.023
783.033
783.041
783.049
783.055
783.061
783.067
783.071
783.077
783.082
783.087
783.092
783.097
783.101
783.105
783.109
783.113
783.118
783.121
783.126
783.129
783.132
783.136
783.139
783.143
783.147
783.149
783.152
783.154
783.159
783.16
783.163
783.167
783.169
783.17
783.174
783.177
783.178
783.18
783.183
783.184
783.186
783.188
783.19
783.192
783.194
783.195
783.198
783.199
783.2
783.202
783.204
783.204
783.206
783.208
783.209
783.21
783.211
783.212
783.214
783.214
783.217
783.215
783.22
783.217
783.222
783.218
783.224
783.219
783.226
783.22
783.228
783.222
783.229
783.224
783.23
783.225
783.231
783.225
783.235
783.231
781.363
781.388
781.409
781.424
781.443
781.463
781.483
781.501
781.519
781.538
781.56
781.581
781.601
781.621
781.642
781.662
781.682
781.703
781.723
781.743
781.763
781.783
781.804
781.824
781.844
781.863
781.882
781.903
781.921
781.94
781.958
781.977
781.995
782.014
782.033
782.05
782.068
782.087
782.104
782.121
782.139
782.156
782.173
782.19
782.206
782.223
782.24
782.255
782.272
782.288
782.304
782.319
782.334
782.35
782.364
782.379
782.394
782.409
782.423
782.438
782.453
782.466
782.481
782.494
782.508
782.521
782.535
782.549
782.562
782.574
782.587
782.599
782.612
782.625
782.637
782.648
782.661
782.673
782.684
782.695
782.706
782.716
782.726
782.736
782.748
782.76
782.772
782.778
782.782
782.781
782.779
782.775
782.767
782.752
782.736
782.723
782.721
782.75
782.853
782.992
783.127
783.248
783.335
783.376
783.378
783.364
783.306
783.181
783.083
783.017
782.974
782.945
782.933
782.937
782.958
782.977
782.992
783.004
783.014
783.023
783.03
783.038
783.045
783.05
783.056
783.062
783.067
783.072
783.078
783.083
783.087
783.092
783.096
783.101
783.105
783.109
783.114
783.116
783.121
783.124
783.128
783.132
783.135
783.138
783.142
783.145
783.148
783.15
783.154
783.156
783.159
783.162
783.165
783.167
783.169
783.171
783.174
783.176
783.178
783.18
783.182
783.184
783.186
783.188
783.189
783.191
783.193
783.194
783.195
783.197
783.199
783.2
783.201
783.204
783.205
783.206
783.207
783.208
783.21
783.21
783.213
783.21
783.215
783.212
783.217
783.213
783.22
783.215
783.221
783.216
783.223
783.218
783.225
783.22
783.225
783.221
783.227
783.221
783.229
783.228
781.361
781.386
781.407
781.424
781.444
781.465
781.485
781.504
781.522
781.542
781.562
781.583
781.604
781.624
781.644
781.665
781.685
781.706
781.726
781.746
781.766
781.786
781.806
781.827
781.847
781.866
781.885
781.906
781.924
781.943
781.961
781.98
781.999
782.017
782.035
782.053
782.071
782.09
782.107
782.125
782.142
782.158
782.175
782.193
782.209
782.226
782.243
782.259
782.274
782.291
782.306
782.321
782.337
782.352
782.367
782.382
782.397
782.412
782.426
782.441
782.455
782.469
782.483
782.497
782.511
782.525
782.537
782.551
782.564
782.577
782.589
782.602
782.615
782.627
782.64
782.651
782.664
782.675
782.687
782.699
782.709
782.721
782.731
782.739
782.748
782.759
782.774
782.788
782.802
782.799
782.79
782.773
782.739
782.683
782.636
782.601
782.575
782.553
782.537
782.533
782.561
782.654
782.759
782.853
782.931
782.988
783.023
783.039
783.039
783.031
783.018
783.008
783
782.997
782.998
783.001
783.007
783.012
783.019
783.026
783.032
783.039
783.045
783.05
783.057
783.062
783.067
783.072
783.078
783.083
783.087
783.092
783.096
783.101
783.105
783.109
783.114
783.116
783.121
783.124
783.128
783.132
783.135
783.138
783.142
783.144
783.148
783.15
783.154
783.156
783.159
783.162
783.165
783.167
783.169
783.171
783.174
783.176
783.178
783.18
783.182
783.184
783.186
783.188
783.189
783.191
783.193
783.194
783.195
783.197
783.199
783.2
783.201
783.204
783.205
783.206
783.207
783.208
783.21
783.21
783.213
783.21
783.215
783.212
783.217
783.213
783.22
783.215
783.221
783.216
783.223
783.218
783.224
783.22
783.225
783.221
783.227
783.221
783.228
783.226
781.367
781.393
781.419
781.441
781.462
781.483
781.508
781.53
781.552
781.572
781.593
781.615
781.637
781.658
781.679
781.7
781.72
781.742
781.762
781.782
781.803
781.823
781.843
781.863
781.883
781.903
781.923
781.942
781.961
781.98
781.998
782.017
782.035
782.054
782.072
782.09
782.108
782.126
782.143
782.161
782.178
782.195
782.213
782.229
782.246
782.262
782.279
782.295
782.312
782.327
782.343
782.359
782.374
782.389
782.404
782.418
782.434
782.448
782.463
782.478
782.492
782.506
782.521
782.533
782.547
782.561
782.574
782.588
782.601
782.613
782.626
782.639
782.651
782.663
782.675
782.687
782.699
782.71
782.721
782.732
782.741
782.751
782.758
782.768
782.778
782.791
782.804
782.816
782.819
782.811
782.795
782.769
782.725
782.685
782.654
782.63
782.608
782.592
782.585
782.6
782.655
782.72
782.78
782.835
782.879
782.914
782.939
782.958
782.969
782.976
782.98
782.984
782.988
782.993
782.998
783.004
783.01
783.016
783.022
783.029
783.034
783.041
783.047
783.052
783.058
783.063
783.068
783.073
783.078
783.083
783.088
783.092
783.097
783.101
783.105
783.109
783.114
783.117
783.121
783.124
783.128
783.132
783.135
783.138
783.142
783.144
783.148
783.15
783.154
783.156
783.159
783.162
783.165
783.167
783.169
783.171
783.174
783.176
783.178
783.18
783.182
783.184
783.186
783.188
783.189
783.191
783.193
783.194
783.195
783.197
783.199
783.2
783.201
783.204
783.205
783.206
783.207
783.208
783.209
783.21
783.213
783.211
783.214
783.213
783.216
783.215
783.219
783.215
783.222
783.216
783.223
783.218
783.224
783.22
783.226
783.221
783.226
783.221
783.225
783.225
781.334
781.358
781.38
781.403
781.426
781.448
781.467
781.486
781.506
781.527
781.549
781.571
781.591
781.612
781.633
781.654
781.676
781.696
781.717
781.737
781.757
781.777
781.798
781.818
781.837
781.857
781.876
781.896
781.914
781.934
781.952
781.971
781.99
782.008
782.026
782.044
782.062
782.08
782.097
782.115
782.132
782.149
782.166
782.183
782.2
782.216
782.233
782.249
782.265
782.281
782.296
782.312
782.328
782.344
782.358
782.373
782.388
782.403
782.417
782.432
782.446
782.46
782.474
782.488
782.502
782.515
782.529
782.543
782.555
782.568
782.581
782.594
782.608
782.619
782.632
782.643
782.655
782.668
782.68
782.692
782.702
782.715
782.727
782.738
782.748
782.759
782.769
782.781
782.796
782.81
782.816
782.811
782.801
782.783
782.765
782.746
782.73
782.719
782.715
782.723
782.743
782.769
782.799
782.83
782.859
782.885
782.907
782.925
782.941
782.954
782.964
782.974
782.982
782.989
782.997
783.003
783.011
783.018
783.023
783.03
783.035
783.041
783.047
783.052
783.058
783.063
783.068
783.073
783.078
783.083
783.088
783.092
783.097
783.101
783.105
783.109
783.114
783.117
783.121
783.124
783.128
783.132
783.135
783.138
783.142
783.144
783.148
783.15
783.154
783.156
783.159
783.162
783.165
783.167
783.169
783.171
783.174
783.176
783.178
783.18
783.182
783.184
783.186
783.188
783.189
783.191
783.193
783.194
783.195
783.197
783.199
783.2
783.201
783.204
783.205
783.206
783.207
783.208
783.209
783.211
783.212
783.212
783.212
783.214
783.215
783.216
783.217
783.218
783.218
783.22
783.218
783.223
783.22
783.222
783.224
783.222
783.225
783.224
783.225
783.224
781.357
781.391
781.425
781.46
781.493
781.523
781.552
781.58
781.609
781.635
781.66
781.684
781.708
781.73
781.752
781.773
781.794
781.815
781.837
781.856
781.877
781.897
781.917
781.937
781.957
781.976
781.996
782.016
782.034
782.053
782.073
782.091
782.109
782.128
782.146
782.164
782.181
782.2
782.217
782.235
782.253
782.269
782.286
782.303
782.319
782.337
782.353
782.369
782.384
782.4
782.416
782.432
782.448
782.462
782.477
782.492
782.506
782.52
782.535
782.549
782.563
782.577
782.591
782.604
782.616
782.629
782.641
782.653
782.664
782.676
782.688
782.699
782.71
782.72
782.729
782.738
782.748
782.757
782.765
782.774
782.783
782.795
782.807
782.818
782.828
782.835
782.832
782.823
782.81
782.794
782.776
782.76
782.75
782.745
782.739
782.736
782.736
782.744
782.757
782.774
782.797
782.822
782.847
782.872
782.893
782.912
782.928
782.942
782.953
782.964
782.972
782.981
782.989
782.996
783.002
783.008
783.016
783.021
783.027
783.032
783.037
783.043
783.049
783.053
783.059
783.064
783.069
783.073
783.078
783.083
783.088
783.092
783.097
783.101
783.105
783.109
783.114
783.117
783.121
783.124
783.128
783.132
783.135
783.138
783.142
783.144
783.148
783.15
783.154
783.156
783.159
783.162
783.165
783.167
783.169
783.171
783.174
783.176
783.178
783.18
783.182
783.184
783.186
783.188
783.189
783.191
783.193
783.194
783.195
783.197
783.199
783.2
783.201
783.204
783.205
783.206
783.206
783.209
783.208
783.211
783.211
783.213
783.211
783.216
783.213
783.218
783.215
783.22
783.216
783.221
783.218
783.223
783.219
783.225
783.22
783.226
783.222
783.226
783.223
783.228
781.285
781.301
781.321
781.343
781.365
781.386
781.408
781.429
781.451
781.472
781.493
781.515
781.537
781.56
781.581
781.602
781.624
781.644
781.664
781.685
781.706
781.725
781.744
781.764
781.784
781.803
781.822
781.842
781.86
781.88
781.898
781.917
781.935
781.953
781.972
781.99
782.008
782.026
782.043
782.062
782.079
782.096
782.111
782.13
782.146
782.163
782.179
782.195
782.212
782.228
782.243
782.259
782.274
782.29
782.305
782.32
782.335
782.349
782.364
782.378
782.393
782.406
782.42
782.435
782.448
782.462
782.475
782.489
782.502
782.514
782.526
782.539
782.552
782.564
782.577
782.589
782.601
782.612
782.624
782.637
782.649
782.659
782.67
782.681
782.693
782.706
782.717
782.727
782.737
782.748
782.758
782.77
782.787
782.808
782.825
782.833
782.831
782.824
782.811
782.791
782.774
782.765
782.772
782.8
782.832
782.863
782.891
782.916
782.935
782.951
782.964
782.975
782.985
782.994
783.001
783.008
783.016
783.021
783.026
783.033
783.038
783.043
783.049
783.054
783.06
783.064
783.068
783.074
783.079
783.083
783.088
783.092
783.097
783.101
783.105
783.109
783.114
783.117
783.121
783.124
783.128
783.132
783.135
783.138
783.142
783.144
783.148
783.15
783.154
783.156
783.159
783.162
783.165
783.167
783.169
783.171
783.174
783.176
783.178
783.18
783.182
783.184
783.186
783.188
783.189
783.191
783.193
783.194
783.195
783.197
783.199
783.2
783.201
783.204
783.205
783.206
783.206
783.209
783.208
783.211
783.211
783.213
783.211
783.216
783.213
783.218
783.215
783.22
783.216
783.221
783.218
783.223
783.219
783.225
783.22
783.225
783.222
783.225
783.226
783.226
781.303
781.335
781.372
781.409
781.446
781.481
781.515
781.55
781.583
781.615
781.645
781.673
781.699
781.723
781.746
781.768
781.789
781.811
781.832
781.852
781.872
781.892
781.912
781.932
781.952
781.971
781.991
782.011
782.03
782.049
782.069
782.087
782.105
782.123
782.141
782.16
782.178
782.195
782.212
782.23
782.247
782.263
782.281
782.297
782.312
782.329
782.346
782.362
782.377
782.392
782.408
782.423
782.439
782.454
782.468
782.483
782.498
782.513
782.527
782.543
782.557
782.571
782.585
782.599
782.612
782.625
782.638
782.651
782.664
782.674
782.685
782.696
782.706
782.716
782.725
782.734
782.743
782.754
782.765
782.778
782.789
782.8
782.812
782.825
782.837
782.849
782.859
782.864