/*--------------------------------*- C++ -*----------------------------------*\
| =========                 |                                                 |
| \\      /  F ield         | OpenFOAM: The Open Source CFD Toolbox           |
|  \\    /   O peration     | Version:  3.0.x                                 |
|   \\  /    A nd           | Web:      www.OpenFOAM.org                      |
|    \\/     M anipulation  |                                                 |
\*---------------------------------------------------------------------------*/
FoamFile
{
    version     2.0;
    format      ascii;
    class       volScalarField;
    location    "0.40005";
    object      T;
}
// * * * * * * * * * * * * * * * * * * * * * * * * * * * * * * * * * * * * * //

dimensions      [0 0 0 1 0 0 0];

internalField   nonuniform List<scalar> 
13800
(
773.493
773.493
773.493
773.493
773.493
773.493
773.493
773.493
773.493
773.493
773.493
773.493
773.493
773.493
773.493
773.493
773.493
773.493
773.493
773.493
773.493
773.493
773.493
773.493
773.493
773.493
773.493
773.493
773.493
773.493
773.493
773.493
773.493
773.493
773.493
773.493
773.493
773.493
773.493
773.494
773.495
773.495
773.496
773.496
773.495
773.495
773.493
773.491
773.489
773.488
773.487
773.486
773.486
773.485
773.485
773.485
773.485
773.485
773.486
773.487
773.487
773.488
773.488
773.488
773.488
773.488
773.486
773.485
773.484
773.483
773.483
773.483
773.483
773.483
773.482
773.481
773.48
773.478
773.477
773.475
773.474
773.473
773.472
773.471
773.471
773.471
773.47
773.47
773.471
773.471
773.472
773.473
773.474
773.474
773.474
773.474
773.473
773.472
773.47
773.469
773.467
773.466
773.465
773.464
773.464
773.463
773.463
773.463
773.463
773.463
773.463
773.462
773.462
773.462
773.462
773.462
773.462
773.462
773.462
773.462
773.462
773.462
773.462
773.462
773.462
773.462
773.462
773.462
773.462
773.462
773.462
773.463
773.463
773.463
773.463
773.463
773.463
773.463
773.463
773.463
773.463
773.463
773.463
773.463
773.463
773.463
773.463
773.463
773.463
773.463
773.463
773.464
773.464
773.464
773.464
773.464
773.464
773.464
773.464
773.464
773.464
773.464
773.464
773.464
773.464
773.464
773.464
773.464
773.464
773.464
773.464
773.464
773.464
773.464
773.464
773.465
773.465
773.465
773.465
773.465
773.465
773.465
773.465
773.465
773.465
773.465
773.465
773.465
773.465
773.465
773.465
773.465
773.465
773.465
773.465
773.466
773.467
773.479
773.489
773.831
773.472
773.472
773.472
773.472
773.472
773.472
773.473
773.473
773.473
773.473
773.473
773.473
773.473
773.473
773.473
773.473
773.473
773.473
773.473
773.473
773.473
773.473
773.473
773.473
773.473
773.473
773.473
773.473
773.473
773.473
773.473
773.474
773.474
773.474
773.474
773.474
773.474
773.474
773.475
773.476
773.477
773.477
773.477
773.477
773.477
773.477
773.475
773.473
773.472
773.47
773.469
773.469
773.468
773.468
773.468
773.468
773.468
773.468
773.468
773.469
773.47
773.471
773.471
773.472
773.471
773.471
773.47
773.469
773.468
773.467
773.467
773.467
773.467
773.467
773.466
773.465
773.464
773.462
773.461
773.46
773.459
773.458
773.457
773.456
773.456
773.455
773.455
773.455
773.455
773.456
773.457
773.458
773.459
773.459
773.459
773.459
773.459
773.458
773.456
773.454
773.453
773.452
773.451
773.45
773.45
773.449
773.449
773.449
773.449
773.449
773.449
773.449
773.449
773.449
773.449
773.449
773.449
773.449
773.449
773.449
773.449
773.449
773.449
773.449
773.449
773.449
773.449
773.449
773.449
773.45
773.45
773.45
773.45
773.45
773.45
773.45
773.45
773.45
773.45
773.45
773.45
773.45
773.45
773.45
773.45
773.45
773.45
773.45
773.45
773.45
773.45
773.45
773.45
773.451
773.451
773.451
773.451
773.451
773.451
773.451
773.451
773.451
773.451
773.451
773.451
773.451
773.451
773.451
773.451
773.451
773.451
773.451
773.451
773.451
773.451
773.451
773.451
773.451
773.452
773.452
773.452
773.452
773.452
773.452
773.452
773.452
773.452
773.452
773.452
773.452
773.452
773.452
773.452
773.452
773.452
773.452
773.454
773.468
773.474
773.871
773.472
773.472
773.472
773.472
773.472
773.472
773.473
773.473
773.473
773.473
773.473
773.473
773.473
773.473
773.473
773.473
773.473
773.473
773.473
773.473
773.473
773.473
773.473
773.473
773.473
773.473
773.473
773.473
773.473
773.473
773.473
773.474
773.474
773.474
773.474
773.474
773.474
773.474
773.475
773.476
773.477
773.477
773.477
773.477
773.477
773.477
773.475
773.473
773.472
773.47
773.469
773.469
773.468
773.468
773.468
773.468
773.468
773.468
773.468
773.469
773.47
773.471
773.471
773.472
773.471
773.471
773.47
773.469
773.468
773.467
773.467
773.467
773.467
773.467
773.466
773.465
773.464
773.462
773.461
773.46
773.459
773.458
773.457
773.456
773.456
773.455
773.455
773.455
773.455
773.456
773.457
773.458
773.459
773.459
773.459
773.459
773.459
773.458
773.456
773.454
773.453
773.452
773.451
773.45
773.45
773.449
773.449
773.449
773.449
773.449
773.449
773.449
773.449
773.449
773.449
773.449
773.449
773.449
773.449
773.449
773.449
773.449
773.449
773.449
773.449
773.449
773.449
773.449
773.449
773.449
773.45
773.45
773.45
773.45
773.45
773.45
773.45
773.45
773.45
773.45
773.45
773.45
773.45
773.45
773.45
773.45
773.45
773.45
773.45
773.45
773.45
773.45
773.45
773.451
773.451
773.451
773.451
773.451
773.451
773.451
773.451
773.451
773.451
773.451
773.451
773.451
773.451
773.451
773.451
773.451
773.451
773.451
773.451
773.451
773.451
773.451
773.451
773.451
773.451
773.452
773.452
773.452
773.452
773.452
773.452
773.452
773.452
773.452
773.452
773.452
773.452
773.452
773.452
773.452
773.452
773.452
773.454
773.467
773.474
773.858
773.473
773.473
773.473
773.473
773.473
773.473
773.473
773.473
773.473
773.473
773.473
773.473
773.473
773.473
773.473
773.473
773.473
773.473
773.473
773.473
773.473
773.473
773.473
773.473
773.473
773.473
773.473
773.473
773.473
773.474
773.474
773.474
773.474
773.474
773.474
773.474
773.474
773.474
773.475
773.476
773.477
773.477
773.478
773.478
773.477
773.477
773.475
773.473
773.472
773.47
773.47
773.469
773.468
773.468
773.468
773.468
773.468
773.468
773.469
773.47
773.47
773.471
773.471
773.472
773.472
773.471
773.47
773.469
773.468
773.467
773.467
773.467
773.467
773.467
773.466
773.466
773.464
773.463
773.461
773.46
773.459
773.458
773.457
773.456
773.456
773.455
773.455
773.455
773.455
773.456
773.457
773.458
773.459
773.459
773.459
773.459
773.459
773.458
773.456
773.454
773.453
773.452
773.451
773.45
773.45
773.449
773.449
773.449
773.449
773.449
773.449
773.449
773.449
773.449
773.449
773.449
773.449
773.449
773.449
773.449
773.449
773.449
773.449
773.449
773.449
773.449
773.449
773.449
773.449
773.449
773.45
773.45
773.45
773.45
773.45
773.45
773.45
773.45
773.45
773.45
773.45
773.45
773.45
773.45
773.45
773.45
773.45
773.45
773.45
773.45
773.45
773.45
773.45
773.451
773.451
773.451
773.451
773.451
773.451
773.451
773.451
773.451
773.451
773.451
773.451
773.451
773.451
773.451
773.451
773.451
773.451
773.451
773.451
773.451
773.451
773.451
773.451
773.451
773.451
773.452
773.452
773.452
773.452
773.452
773.452
773.452
773.452
773.452
773.452
773.452
773.452
773.452
773.452
773.452
773.452
773.452
773.454
773.464
773.472
773.761
773.473
773.473
773.473
773.473
773.473
773.473
773.473
773.473
773.473
773.473
773.473
773.473
773.473
773.473
773.473
773.473
773.473
773.473
773.473
773.473
773.473
773.473
773.473
773.473
773.473
773.473
773.473
773.474
773.474
773.474
773.474
773.474
773.474
773.474
773.474
773.474
773.474
773.474
773.475
773.476
773.477
773.477
773.478
773.478
773.478
773.477
773.475
773.473
773.472
773.471
773.47
773.469
773.468
773.468
773.468
773.468
773.468
773.468
773.469
773.47
773.471
773.471
773.472
773.472
773.472
773.471
773.47
773.469
773.468
773.467
773.467
773.467
773.467
773.467
773.466
773.466
773.464
773.463
773.461
773.46
773.459
773.458
773.457
773.456
773.456
773.455
773.455
773.455
773.455
773.456
773.457
773.458
773.459
773.459
773.459
773.459
773.459
773.458
773.456
773.455
773.453
773.452
773.451
773.45
773.45
773.449
773.449
773.449
773.449
773.449
773.449
773.449
773.449
773.449
773.449
773.449
773.449
773.449
773.449
773.449
773.449
773.449
773.449
773.449
773.449
773.449
773.449
773.449
773.449
773.449
773.45
773.45
773.45
773.45
773.45
773.45
773.45
773.45
773.45
773.45
773.45
773.45
773.45
773.45
773.45
773.45
773.45
773.45
773.45
773.45
773.45
773.45
773.45
773.451
773.451
773.451
773.451
773.451
773.451
773.451
773.451
773.451
773.451
773.451
773.451
773.451
773.451
773.451
773.451
773.451
773.451
773.451
773.451
773.451
773.451
773.451
773.451
773.451
773.451
773.452
773.452
773.452
773.452
773.452
773.452
773.452
773.452
773.452
773.452
773.452
773.452
773.452
773.452
773.452
773.452
773.452
773.453
773.459
773.458
773.644
773.473
773.473
773.473
773.473
773.473
773.473
773.473
773.473
773.473
773.473
773.473
773.473
773.473
773.473
773.473
773.473
773.473
773.473
773.473
773.473
773.473
773.473
773.473
773.473
773.473
773.473
773.473
773.474
773.474
773.474
773.474
773.474
773.474
773.474
773.474
773.474
773.474
773.474
773.475
773.476
773.477
773.477
773.478
773.478
773.478
773.477
773.475
773.473
773.472
773.471
773.47
773.469
773.468
773.468
773.468
773.468
773.468
773.468
773.469
773.47
773.471
773.471
773.472
773.472
773.472
773.471
773.47
773.469
773.468
773.467
773.467
773.467
773.467
773.467
773.466
773.466
773.464
773.463
773.461
773.46
773.459
773.458
773.457
773.456
773.456
773.455
773.455
773.455
773.455
773.456
773.457
773.458
773.459
773.459
773.459
773.459
773.459
773.458
773.456
773.455
773.453
773.452
773.451
773.45
773.45
773.449
773.449
773.449
773.449
773.449
773.449
773.449
773.449
773.449
773.449
773.449
773.449
773.449
773.449
773.449
773.449
773.449
773.449
773.449
773.449
773.449
773.449
773.449
773.449
773.449
773.45
773.45
773.45
773.45
773.45
773.45
773.45
773.45
773.45
773.45
773.45
773.45
773.45
773.45
773.45
773.45
773.45
773.45
773.45
773.45
773.45
773.45
773.45
773.451
773.451
773.451
773.451
773.451
773.451
773.451
773.451
773.451
773.451
773.451
773.451
773.451
773.451
773.451
773.451
773.451
773.451
773.451
773.451
773.451
773.451
773.451
773.451
773.451
773.451
773.452
773.452
773.452
773.452
773.452
773.452
773.452
773.452
773.452
773.452
773.452
773.452
773.452
773.452
773.452
773.452
773.452
773.451
773.449
773.442
773.394
773.473
773.473
773.473
773.473
773.473
773.473
773.473
773.473
773.473
773.473
773.473
773.473
773.473
773.473
773.473
773.473
773.473
773.473
773.473
773.473
773.473
773.473
773.473
773.473
773.473
773.473
773.473
773.473
773.473
773.474
773.474
773.474
773.474
773.474
773.474
773.474
773.474
773.474
773.475
773.476
773.477
773.477
773.478
773.478
773.477
773.477
773.475
773.473
773.472
773.47
773.47
773.469
773.468
773.468
773.468
773.468
773.468
773.468
773.469
773.47
773.47
773.471
773.471
773.472
773.472
773.471
773.47
773.469
773.468
773.467
773.467
773.467
773.467
773.467
773.466
773.466
773.464
773.463
773.461
773.46
773.459
773.458
773.457
773.456
773.456
773.455
773.455
773.455
773.455
773.456
773.457
773.458
773.459
773.459
773.459
773.459
773.459
773.458
773.456
773.454
773.453
773.452
773.451
773.45
773.45
773.449
773.449
773.449
773.449
773.449
773.449
773.449
773.449
773.449
773.449
773.449
773.449
773.449
773.449
773.449
773.449
773.449
773.449
773.449
773.449
773.449
773.449
773.449
773.449
773.449
773.45
773.45
773.45
773.45
773.45
773.45
773.45
773.45
773.45
773.45
773.45
773.45
773.45
773.45
773.45
773.45
773.45
773.45
773.45
773.45
773.45
773.45
773.45
773.451
773.451
773.451
773.451
773.451
773.451
773.451
773.451
773.451
773.451
773.451
773.451
773.451
773.451
773.451
773.451
773.451
773.451
773.451
773.451
773.451
773.451
773.451
773.451
773.451
773.451
773.452
773.452
773.452
773.452
773.452
773.452
773.452
773.452
773.452
773.452
773.452
773.452
773.452
773.452
773.452
773.452
773.452
773.45
773.437
773.432
773.053
773.472
773.472
773.472
773.472
773.472
773.472
773.473
773.473
773.473
773.473
773.473
773.473
773.473
773.473
773.473
773.473
773.473
773.473
773.473
773.473
773.473
773.473
773.473
773.473
773.473
773.473
773.473
773.473
773.473
773.473
773.473
773.474
773.474
773.474
773.474
773.474
773.474
773.474
773.475
773.476
773.477
773.477
773.477
773.477
773.477
773.477
773.475
773.473
773.472
773.47
773.469
773.469
773.468
773.468
773.468
773.468
773.468
773.468
773.468
773.469
773.47
773.471
773.471
773.472
773.471
773.471
773.47
773.469
773.468
773.467
773.467
773.467
773.467
773.467
773.466
773.465
773.464
773.462
773.461
773.46
773.459
773.458
773.457
773.456
773.456
773.455
773.455
773.455
773.455
773.456
773.457
773.458
773.459
773.459
773.459
773.459
773.459
773.458
773.456
773.454
773.453
773.452
773.451
773.45
773.45
773.449
773.449
773.449
773.449
773.449
773.449
773.449
773.449
773.449
773.449
773.449
773.449
773.449
773.449
773.449
773.449
773.449
773.449
773.449
773.449
773.449
773.449
773.449
773.449
773.449
773.45
773.45
773.45
773.45
773.45
773.45
773.45
773.45
773.45
773.45
773.45
773.45
773.45
773.45
773.45
773.45
773.45
773.45
773.45
773.45
773.45
773.45
773.45
773.451
773.451
773.451
773.451
773.451
773.451
773.451
773.451
773.451
773.451
773.451
773.451
773.451
773.451
773.451
773.451
773.451
773.451
773.451
773.451
773.451
773.451
773.451
773.451
773.451
773.451
773.452
773.452
773.452
773.452
773.452
773.452
773.452
773.452
773.452
773.452
773.452
773.452
773.452
773.452
773.452
773.452
773.452
773.451
773.428
773.461
772.572
773.472
773.472
773.472
773.472
773.472
773.472
773.473
773.473
773.473
773.473
773.473
773.473
773.473
773.473
773.473
773.473
773.473
773.473
773.473
773.473
773.473
773.473
773.473
773.473
773.473
773.473
773.473
773.473
773.473
773.473
773.473
773.474
773.474
773.474
773.474
773.474
773.474
773.474
773.475
773.476
773.477
773.477
773.477
773.477
773.477
773.477
773.475
773.473
773.472
773.47
773.469
773.469
773.468
773.468
773.468
773.468
773.468
773.468
773.468
773.469
773.47
773.471
773.471
773.472
773.471
773.471
773.47
773.469
773.468
773.467
773.467
773.467
773.467
773.467
773.466
773.465
773.464
773.462
773.461
773.46
773.459
773.458
773.457
773.456
773.456
773.455
773.455
773.455
773.455
773.456
773.457
773.458
773.459
773.459
773.459
773.459
773.459
773.458
773.456
773.454
773.453
773.452
773.451
773.45
773.45
773.449
773.449
773.449
773.449
773.449
773.449
773.449
773.449
773.449
773.449
773.449
773.449
773.449
773.449
773.449
773.449
773.449
773.449
773.449
773.449
773.449
773.449
773.449
773.449
773.45
773.45
773.45
773.45
773.45
773.45
773.45
773.45
773.45
773.45
773.45
773.45
773.45
773.45
773.45
773.45
773.45
773.45
773.45
773.45
773.45
773.45
773.45
773.45
773.451
773.451
773.451
773.451
773.451
773.451
773.451
773.451
773.451
773.451
773.451
773.451
773.451
773.451
773.451
773.451
773.451
773.451
773.451
773.451
773.451
773.451
773.451
773.451
773.451
773.452
773.452
773.452
773.452
773.452
773.452
773.452
773.452
773.452
773.452
773.452
773.452
773.452
773.452
773.452
773.452
773.452
773.452
773.451
773.424
773.485
772.331
773.493
773.493
773.493
773.493
773.493
773.493
773.493
773.493
773.493
773.493
773.493
773.493
773.493
773.493
773.493
773.493
773.493
773.493
773.493
773.493
773.493
773.493
773.493
773.493
773.493
773.493
773.493
773.493
773.493
773.493
773.493
773.493
773.493
773.493
773.493
773.493
773.493
773.493
773.493
773.494
773.495
773.495
773.496
773.496
773.495
773.495
773.493
773.491
773.489
773.488
773.487
773.486
773.486
773.485
773.485
773.485
773.485
773.485
773.486
773.487
773.487
773.488
773.488
773.488
773.488
773.488
773.486
773.485
773.484
773.483
773.483
773.483
773.483
773.483
773.482
773.481
773.48
773.478
773.477
773.475
773.474
773.473
773.472
773.471
773.471
773.471
773.47
773.47
773.471
773.471
773.472
773.473
773.474
773.474
773.474
773.474
773.473
773.472
773.47
773.469
773.467
773.466
773.465
773.464
773.464
773.463
773.463
773.463
773.463
773.463
773.463
773.462
773.462
773.462
773.462
773.462
773.462
773.462
773.462
773.462
773.462
773.462
773.462
773.462
773.462
773.462
773.462
773.462
773.462
773.462
773.462
773.463
773.463
773.463
773.463
773.463
773.463
773.463
773.463
773.463
773.463
773.463
773.463
773.463
773.463
773.463
773.463
773.463
773.463
773.463
773.463
773.464
773.464
773.464
773.464
773.464
773.464
773.464
773.464
773.464
773.464
773.464
773.464
773.464
773.464
773.464
773.464
773.464
773.464
773.464
773.464
773.464
773.464
773.464
773.464
773.465
773.465
773.465
773.465
773.465
773.465
773.465
773.465
773.465
773.465
773.465
773.465
773.465
773.465
773.465
773.465
773.465
773.465
773.465
773.465
773.465
773.464
773.435
773.52
772.128
773.772
773.838
773.881
773.895
773.903
773.909
773.913
773.916
773.918
773.919
773.92
773.92
773.918
773.915
773.909
773.898
773.882
773.858
773.816
773.737
773.758
773.805
773.831
773.837
773.839
773.841
773.842
773.84
773.84
773.837
773.836
773.832
773.829
773.823
773.817
773.805
773.79
773.764
773.725
773.654
773.754
773.802
773.834
773.841
773.847
773.851
773.854
773.855
773.856
773.854
773.852
773.848
773.844
773.836
773.827
773.811
773.791
773.76
773.716
773.647
773.678
773.704
773.714
773.716
773.718
773.72
773.723
773.726
773.729
773.734
773.739
773.745
773.75
773.756
773.759
773.76
773.75
773.736
773.703
773.66
773.586
773.617
773.642
773.659
773.671
773.679
773.68
773.677
773.673
773.663
773.649
773.631
773.612
773.588
773.564
773.537
773.512
773.488
773.466
773.449
773.415
773.4
773.376
773.357
773.342
773.334
773.332
773.335
773.342
773.354
773.372
773.395
773.422
773.449
773.482
773.511
773.545
773.569
773.598
773.607
773.196
773.176
773.171
773.176
773.178
773.171
773.165
773.15
773.133
773.107
773.081
773.047
773.018
772.984
772.958
772.934
772.928
772.935
772.966
772.993
772.911
772.827
772.752
772.712
772.689
772.676
772.669
772.671
772.683
772.703
772.733
772.769
772.813
772.867
772.919
772.989
773.035
773.14
773.212
773.305
772.726
772.638
772.56
772.506
772.47
772.434
772.41
772.385
772.372
772.357
772.355
772.358
772.373
772.395
772.425
772.464
772.511
772.585
772.682
772.812
772.628
772.509
772.375
772.327
772.292
772.289
772.302
772.323
772.336
772.388
772.428
772.492
772.545
772.626
772.696
772.775
772.864
772.968
773.101
773.245
773.513
773.438
773.417
773.411
773.409
773.409
773.409
773.409
773.409
773.409
773.409
773.409
773.409
773.41
773.41
773.411
773.411
773.411
773.411
773.411
773.41
773.41
773.41
773.409
773.409
773.409
773.409
773.409
773.41
773.41
773.41
773.41
773.41
773.41
773.41
773.41
773.41
773.411
773.411
773.411
773.412
773.413
773.413
773.413
773.413
773.413
773.413
773.412
773.412
773.412
773.412
773.412
773.412
773.413
773.414
773.414
773.415
773.415
773.415
773.415
773.415
773.415
773.416
773.416
773.416
773.417
773.418
773.418
773.419
773.42
773.42
773.421
773.422
773.422
773.423
773.424
773.425
773.426
773.428
773.43
773.432
773.434
773.436
773.437
773.439
773.441
773.442
773.444
773.446
773.448
773.45
773.452
773.455
773.457
773.46
773.462
773.465
773.468
773.471
773.474
773.477
773.481
773.485
773.49
773.494
773.499
773.504
773.508
773.513
773.518
773.523
773.529
773.535
773.541
773.547
773.553
773.56
773.567
773.574
773.581
773.588
773.595
773.601
773.608
773.615
773.623
773.63
773.638
773.647
773.656
773.664
773.67
773.675
773.678
773.681
773.683
773.687
773.693
773.701
773.71
773.72
773.73
773.739
773.754
773.783
773.858
774.086
774.582
775.137
775.681
776.178
776.603
776.939
777.179
777.328
777.399
777.414
777.393
777.245
776.778
776.196
775.683
775.252
774.908
774.647
774.459
774.329
774.247
774.204
774.19
774.19
774.193
774.204
774.227
774.253
774.28
774.307
774.333
774.36
774.386
774.412
774.438
774.465
774.491
774.517
774.544
774.57
774.598
774.625
774.65
774.683
774.704
774.74
774.76
774.798
774.816
774.859
774.865
774.931
773.966
773.454
773.385
773.366
773.361
773.359
773.358
773.359
773.359
773.359
773.358
773.358
773.358
773.359
773.359
773.359
773.36
773.36
773.36
773.36
773.36
773.36
773.359
773.359
773.358
773.358
773.358
773.358
773.358
773.358
773.358
773.359
773.359
773.359
773.359
773.359
773.359
773.359
773.359
773.359
773.359
773.36
773.36
773.361
773.361
773.361
773.361
773.361
773.361
773.361
773.36
773.36
773.36
773.36
773.36
773.361
773.361
773.362
773.362
773.363
773.363
773.363
773.364
773.364
773.364
773.364
773.364
773.365
773.366
773.366
773.367
773.368
773.369
773.369
773.37
773.371
773.372
773.372
773.373
773.375
773.376
773.378
773.38
773.382
773.384
773.386
773.388
773.389
773.391
773.393
773.395
773.397
773.399
773.401
773.404
773.406
773.409
773.412
773.415
773.418
773.421
773.424
773.427
773.431
773.435
773.44
773.444
773.449
773.454
773.46
773.465
773.47
773.475
773.481
773.487
773.493
773.499
773.506
773.513
773.52
773.528
773.535
773.543
773.55
773.558
773.565
773.574
773.582
773.59
773.598
773.607
773.615
773.623
773.63
773.637
773.645
773.653
773.662
773.672
773.682
773.693
773.7
773.704
773.702
773.688
773.656
773.624
773.598
773.586
773.584
773.585
773.59
773.6
773.624
773.689
773.832
773.987
774.131
774.255
774.35
774.418
774.46
774.478
774.481
774.468
774.411
774.338
774.281
774.237
774.211
774.203
774.203
774.206
774.215
774.231
774.252
774.274
774.298
774.323
774.348
774.374
774.399
774.425
774.451
774.478
774.504
774.531
774.557
774.584
774.612
774.637
774.67
774.691
774.727
774.747
774.785
774.803
774.846
774.853
774.905
774.089
773.464
773.398
773.378
773.372
773.37
773.369
773.369
773.369
773.369
773.369
773.369
773.369
773.369
773.369
773.369
773.37
773.37
773.371
773.371
773.371
773.37
773.37
773.37
773.369
773.369
773.369
773.369
773.369
773.369
773.369
773.369
773.369
773.369
773.37
773.37
773.37
773.37
773.37
773.37
773.37
773.37
773.371
773.371
773.371
773.372
773.372
773.372
773.372
773.371
773.371
773.371
773.371
773.371
773.371
773.371
773.372
773.372
773.373
773.373
773.374
773.374
773.374
773.374
773.374
773.375
773.375
773.375
773.376
773.377
773.378
773.378
773.379
773.38
773.38
773.381
773.382
773.383
773.384
773.385
773.386
773.388
773.39
773.392
773.394
773.396
773.398
773.4
773.402
773.403
773.405
773.407
773.409
773.412
773.414
773.417
773.419
773.422
773.425
773.428
773.431
773.434
773.437
773.441
773.445
773.45
773.454
773.459
773.464
773.469
773.474
773.48
773.485
773.491
773.496
773.503
773.509
773.516
773.522
773.529
773.537
773.545
773.552
773.56
773.567
773.575
773.584
773.592
773.601
773.609
773.618
773.627
773.635
773.642
773.65
773.657
773.665
773.674
773.684
773.695
773.706
773.715
773.721
773.721
773.712
773.673
773.616
773.566
773.525
773.497
773.486
773.486
773.488
773.495
773.508
773.541
773.622
773.733
773.839
773.936
774.019
774.085
774.135
774.171
774.194
774.207
774.212
774.211
774.201
774.196
774.196
774.2
774.207
774.221
774.238
774.258
774.279
774.302
774.326
774.35
774.376
774.401
774.427
774.452
774.479
774.504
774.532
774.557
774.585
774.613
774.637
774.67
774.691
774.727
774.747
774.785
774.803
774.845
774.854
774.889
774.278
773.532
773.486
773.476
773.476
773.477
773.478
773.478
773.479
773.479
773.479
773.479
773.479
773.479
773.479
773.479
773.48
773.48
773.481
773.481
773.481
773.481
773.481
773.48
773.48
773.48
773.48
773.479
773.479
773.479
773.479
773.479
773.479
773.479
773.48
773.48
773.48
773.48
773.48
773.48
773.48
773.48
773.481
773.481
773.482
773.482
773.482
773.482
773.482
773.482
773.481
773.481
773.481
773.481
773.481
773.481
773.482
773.483
773.483
773.483
773.484
773.484
773.484
773.484
773.484
773.485
773.485
773.486
773.486
773.487
773.487
773.488
773.489
773.489
773.49
773.491
773.491
773.492
773.494
773.495
773.497
773.499
773.5
773.502
773.504
773.506
773.507
773.509
773.511
773.513
773.515
773.517
773.519
773.521
773.524
773.526
773.529
773.531
773.534
773.537
773.541
773.544
773.548
773.552
773.556
773.561
773.565
773.57
773.574
773.579
773.584
773.589
773.595
773.6
773.606
773.613
773.619
773.625
773.632
773.639
773.645
773.652
773.658
773.665
773.672
773.679
773.687
773.695
773.703
773.709
773.715
773.719
773.724
773.729
773.735
773.742
773.751
773.761
773.771
773.779
773.784
773.784
773.778
773.759
773.74
773.722
773.708
773.703
773.704
773.707
773.714
773.722
773.733
773.755
773.79
773.831
773.873
773.914
773.95
773.982
774.01
774.035
774.057
774.076
774.091
774.104
774.115
774.126
774.138
774.152
774.168
774.185
774.203
774.223
774.244
774.266
774.289
774.312
774.336
774.359
774.383
774.408
774.433
774.458
774.483
774.508
774.535
774.56
774.587
774.614
774.639
774.671
774.692
774.728
774.749
774.784
774.807
774.836
774.866
774.871
774.644
773.4
773.384
773.37
773.357
773.35
773.347
773.346
773.345
773.344
773.344
773.344
773.344
773.344
773.344
773.344
773.344
773.344
773.344
773.345
773.345
773.345
773.345
773.345
773.345
773.345
773.345
773.345
773.345
773.344
773.344
773.344
773.344
773.344
773.344
773.344
773.345
773.345
773.345
773.345
773.345
773.345
773.345
773.345
773.345
773.345
773.346
773.346
773.346
773.347
773.347
773.347
773.347
773.347
773.347
773.347
773.347
773.347
773.347
773.348
773.348
773.349
773.349
773.35
773.35
773.35
773.351
773.351
773.352
773.352
773.353
773.353
773.354
773.355
773.356
773.357
773.358
773.359
773.36
773.361
773.362
773.363
773.365
773.366
773.368
773.37
773.371
773.374
773.376
773.378
773.38
773.383
773.385
773.387
773.39
773.393
773.395
773.398
773.401
773.404
773.407
773.411
773.414
773.418
773.422
773.426
773.431
773.435
773.44
773.445
773.451
773.456
773.462
773.468
773.474
773.48
773.487
773.493
773.5
773.508
773.515
773.523
773.532
773.54
773.548
773.557
773.565
773.574
773.584
773.594
773.605
773.615
773.626
773.636
773.647
773.657
773.667
773.677
773.688
773.699
773.711
773.723
773.735
773.746
773.757
773.765
773.771
773.775
773.78
773.786
773.795
773.804
773.816
773.831
773.848
773.868
773.889
773.91
773.931
773.952
773.972
773.992
774.011
774.03
774.048
774.067
774.086
774.105
774.124
774.144
774.164
774.185
774.206
774.227
774.249
774.271
774.294
774.317
774.34
774.363
774.387
774.411
774.435
774.46
774.485
774.51
774.535
774.562
774.587
774.615
774.642
774.667
774.699
774.721
774.756
774.779
774.811
774.838
774.865
774.896
774.899
773.641
773.663
773.68
773.692
773.7
773.704
773.705
773.706
773.707
773.707
773.707
773.707
773.707
773.707
773.707
773.707
773.708
773.708
773.709
773.709
773.71
773.71
773.71
773.709
773.709
773.709
773.708
773.708
773.707
773.707
773.707
773.707
773.707
773.707
773.707
773.707
773.707
773.707
773.707
773.707
773.708
773.708
773.709
773.709
773.709
773.71
773.71
773.709
773.709
773.708
773.708
773.708
773.708
773.709
773.709
773.709
773.71
773.71
773.71
773.71
773.71
773.71
773.71
773.71
773.71
773.71
773.711
773.711
773.712
773.712
773.713
773.713
773.714
773.714
773.715
773.716
773.717
773.719
773.721
773.722
773.724
773.725
773.727
773.728
773.73
773.731
773.732
773.734
773.736
773.738
773.74
773.742
773.744
773.746
773.748
773.75
773.753
773.755
773.757
773.76
773.763
773.766
773.77
773.773
773.776
773.779
773.782
773.785
773.788
773.791
773.794
773.796
773.798
773.801
773.803
773.805
773.808
773.811
773.814
773.818
773.821
773.824
773.825
773.826
773.826
773.826
773.824
773.825
773.826
773.828
773.833
773.839
773.847
773.855
773.863
773.868
773.869
773.867
773.856
773.84
773.824
773.808
773.793
773.78
773.771
773.762
773.757
773.757
773.759
773.764
773.773
773.781
773.793
773.809
773.83
773.855
773.882
773.91
773.937
773.964
773.989
774.013
774.036
774.058
774.079
774.1
774.12
774.14
774.16
774.18
774.2
774.22
774.241
774.262
774.283
774.304
774.326
774.348
774.37
774.393
774.416
774.44
774.464
774.488
774.513
774.539
774.563
774.591
774.614
774.644
774.667
774.7
774.722
774.756
774.778
774.815
774.836
774.881
774.905
775.068
773.138
773.183
773.182
773.181
773.179
773.178
773.177
773.177
773.176
773.176
773.176
773.176
773.176
773.176
773.176
773.176
773.176
773.176
773.176
773.176
773.176
773.176
773.176
773.177
773.177
773.177
773.178
773.178
773.178
773.178
773.177
773.177
773.177
773.177
773.177
773.177
773.177
773.177
773.178
773.178
773.178
773.178
773.178
773.178
773.178
773.178
773.178
773.178
773.178
773.179
773.179
773.179
773.179
773.18
773.18
773.181
773.181
773.181
773.182
773.182
773.182
773.182
773.182
773.182
773.183
773.183
773.184
773.186
773.187
773.188
773.189
773.189
773.19
773.191
773.192
773.193
773.194
773.195
773.196
773.198
773.2
773.201
773.203
773.205
773.207
773.209
773.211
773.213
773.215
773.217
773.219
773.221
773.223
773.225
773.228
773.231
773.234
773.237
773.241
773.244
773.248
773.252
773.255
773.259
773.263
773.267
773.272
773.276
773.281
773.286
773.292
773.298
773.303
773.309
773.315
773.322
773.328
773.335
773.341
773.348
773.354
773.362
773.369
773.377
773.385
773.394
773.403
773.412
773.422
773.432
773.443
773.453
773.464
773.474
773.484
773.496
773.51
773.525
773.538
773.55
773.563
773.576
773.593
773.612
773.634
773.656
773.676
773.695
773.712
773.725
773.734
773.736
773.736
773.737
773.74
773.746
773.754
773.77
773.802
773.842
773.885
773.926
773.964
774
774.033
774.064
774.092
774.118
774.143
774.167
774.19
774.213
774.235
774.258
774.28
774.302
774.324
774.347
774.37
774.393
774.416
774.44
774.464
774.488
774.513
774.539
774.563
774.591
774.615
774.645
774.668
774.7
774.722
774.757
774.778
774.816
774.838
774.886
774.921
775.151
773.61
773.673
773.691
773.697
773.698
773.699
773.698
773.698
773.698
773.698
773.698
773.698
773.698
773.698
773.698
773.698
773.698
773.698
773.698
773.698
773.699
773.7
773.7
773.7
773.7
773.7
773.7
773.699
773.698
773.698
773.698
773.697
773.697
773.697
773.697
773.697
773.697
773.697
773.696
773.696
773.696
773.697
773.697
773.698
773.699
773.699
773.699
773.699
773.699
773.699
773.698
773.698
773.698
773.698
773.698
773.699
773.699
773.7
773.7
773.7
773.7
773.699
773.699
773.698
773.698
773.698
773.698
773.698
773.698
773.698
773.697
773.696
773.695
773.694
773.693
773.693
773.693
773.693
773.694
773.695
773.696
773.696
773.697
773.698
773.698
773.699
773.7
773.701
773.703
773.705
773.706
773.708
773.71
773.713
773.715
773.717
773.72
773.723
773.726
773.729
773.733
773.737
773.741