/*--------------------------------*- C++ -*----------------------------------*\
| =========                 |                                                 |
| \\      /  F ield         | OpenFOAM: The Open Source CFD Toolbox           |
|  \\    /   O peration     | Version:  3.0.x                                 |
|   \\  /    A nd           | Web:      www.OpenFOAM.org                      |
|    \\/     M anipulation  |                                                 |
\*---------------------------------------------------------------------------*/
FoamFile
{
    version     2.0;
    format      ascii;
    class       volScalarField;
    location    "0.530075";
    object      p;
}
// * * * * * * * * * * * * * * * * * * * * * * * * * * * * * * * * * * * * * //

dimensions      [1 -1 -2 0 0 0 0];

internalField   nonuniform List<scalar> 
13800
(
1.82391e+07
1.82395e+07
1.82402e+07
1.8241e+07
1.82418e+07
1.82427e+07
1.82438e+07
1.82449e+07
1.82461e+07
1.82473e+07
1.82487e+07
1.82502e+07
1.82517e+07
1.82534e+07
1.82551e+07
1.8257e+07
1.82589e+07
1.82609e+07
1.8263e+07
1.82652e+07
1.82675e+07
1.82699e+07
1.82724e+07
1.82749e+07
1.82776e+07
1.82804e+07
1.82832e+07
1.82861e+07
1.82892e+07
1.82923e+07
1.82955e+07
1.82989e+07
1.83023e+07
1.83058e+07
1.83094e+07
1.8313e+07
1.83168e+07
1.83207e+07
1.83247e+07
1.83287e+07
1.83329e+07
1.83371e+07
1.83414e+07
1.83459e+07
1.83504e+07
1.8355e+07
1.83597e+07
1.83645e+07
1.83694e+07
1.83743e+07
1.83794e+07
1.83846e+07
1.83898e+07
1.83951e+07
1.84006e+07
1.84061e+07
1.84117e+07
1.84174e+07
1.84232e+07
1.8429e+07
1.8435e+07
1.8441e+07
1.84471e+07
1.84533e+07
1.84596e+07
1.8466e+07
1.84725e+07
1.8479e+07
1.84856e+07
1.84923e+07
1.84991e+07
1.8506e+07
1.85129e+07
1.852e+07
1.85271e+07
1.85342e+07
1.85415e+07
1.85488e+07
1.85562e+07
1.85637e+07
1.85712e+07
1.85788e+07
1.85865e+07
1.85943e+07
1.86021e+07
1.861e+07
1.86179e+07
1.86259e+07
1.8634e+07
1.86421e+07
1.86503e+07
1.86586e+07
1.86669e+07
1.86753e+07
1.86837e+07
1.86922e+07
1.87007e+07
1.87093e+07
1.87179e+07
1.87266e+07
1.87354e+07
1.87441e+07
1.8753e+07
1.87618e+07
1.87707e+07
1.87797e+07
1.87887e+07
1.87977e+07
1.88068e+07
1.88159e+07
1.8825e+07
1.88341e+07
1.88433e+07
1.88525e+07
1.88618e+07
1.88711e+07
1.88803e+07
1.88897e+07
1.8899e+07
1.89084e+07
1.89177e+07
1.89271e+07
1.89365e+07
1.89459e+07
1.89554e+07
1.89648e+07
1.89742e+07
1.89837e+07
1.89932e+07
1.90026e+07
1.90121e+07
1.90215e+07
1.9031e+07
1.90405e+07
1.90499e+07
1.90594e+07
1.90688e+07
1.90783e+07
1.90877e+07
1.90971e+07
1.91066e+07
1.91159e+07
1.91253e+07
1.91347e+07
1.91441e+07
1.91534e+07
1.91627e+07
1.9172e+07
1.91813e+07
1.91905e+07
1.91997e+07
1.92089e+07
1.92181e+07
1.92272e+07
1.92363e+07
1.92454e+07
1.92545e+07
1.92635e+07
1.92725e+07
1.92814e+07
1.92903e+07
1.92992e+07
1.9308e+07
1.93168e+07
1.93256e+07
1.93343e+07
1.9343e+07
1.93516e+07
1.93602e+07
1.93688e+07
1.93773e+07
1.93857e+07
1.93942e+07
1.94025e+07
1.94108e+07
1.94191e+07
1.94273e+07
1.94355e+07
1.94436e+07
1.94517e+07
1.94597e+07
1.94677e+07
1.94756e+07
1.94834e+07
1.94912e+07
1.9499e+07
1.95067e+07
1.95143e+07
1.95219e+07
1.95294e+07
1.95369e+07
1.95443e+07
1.95516e+07
1.95589e+07
1.95662e+07
1.95734e+07
1.95805e+07
1.95876e+07
1.95946e+07
1.96014e+07
1.82391e+07
1.82395e+07
1.82402e+07
1.8241e+07
1.82418e+07
1.82427e+07
1.82438e+07
1.82449e+07
1.82461e+07
1.82473e+07
1.82487e+07
1.82502e+07
1.82517e+07
1.82534e+07
1.82551e+07
1.8257e+07
1.82589e+07
1.82609e+07
1.8263e+07
1.82652e+07
1.82675e+07
1.82699e+07
1.82724e+07
1.82749e+07
1.82776e+07
1.82804e+07
1.82832e+07
1.82861e+07
1.82892e+07
1.82923e+07
1.82955e+07
1.82989e+07
1.83023e+07
1.83058e+07
1.83094e+07
1.8313e+07
1.83168e+07
1.83207e+07
1.83247e+07
1.83287e+07
1.83329e+07
1.83371e+07
1.83414e+07
1.83459e+07
1.83504e+07
1.8355e+07
1.83597e+07
1.83645e+07
1.83694e+07
1.83743e+07
1.83794e+07
1.83846e+07
1.83898e+07
1.83951e+07
1.84006e+07
1.84061e+07
1.84117e+07
1.84174e+07
1.84232e+07
1.8429e+07
1.8435e+07
1.8441e+07
1.84471e+07
1.84533e+07
1.84596e+07
1.8466e+07
1.84725e+07
1.8479e+07
1.84856e+07
1.84923e+07
1.84991e+07
1.8506e+07
1.85129e+07
1.852e+07
1.85271e+07
1.85342e+07
1.85415e+07
1.85488e+07
1.85562e+07
1.85637e+07
1.85712e+07
1.85788e+07
1.85865e+07
1.85943e+07
1.86021e+07
1.861e+07
1.86179e+07
1.86259e+07
1.8634e+07
1.86421e+07
1.86503e+07
1.86586e+07
1.86669e+07
1.86753e+07
1.86837e+07
1.86922e+07
1.87007e+07
1.87093e+07
1.87179e+07
1.87266e+07
1.87354e+07
1.87441e+07
1.8753e+07
1.87618e+07
1.87707e+07
1.87797e+07
1.87887e+07
1.87977e+07
1.88068e+07
1.88159e+07
1.8825e+07
1.88341e+07
1.88433e+07
1.88525e+07
1.88618e+07
1.88711e+07
1.88803e+07
1.88897e+07
1.8899e+07
1.89084e+07
1.89177e+07
1.89271e+07
1.89365e+07
1.89459e+07
1.89554e+07
1.89648e+07
1.89742e+07
1.89837e+07
1.89932e+07
1.90026e+07
1.90121e+07
1.90215e+07
1.9031e+07
1.90405e+07
1.90499e+07
1.90594e+07
1.90688e+07
1.90783e+07
1.90877e+07
1.90971e+07
1.91066e+07
1.91159e+07
1.91253e+07
1.91347e+07
1.91441e+07
1.91534e+07
1.91627e+07
1.9172e+07
1.91813e+07
1.91905e+07
1.91997e+07
1.92089e+07
1.92181e+07
1.92272e+07
1.92363e+07
1.92454e+07
1.92545e+07
1.92635e+07
1.92725e+07
1.92814e+07
1.92903e+07
1.92992e+07
1.9308e+07
1.93168e+07
1.93256e+07
1.93343e+07
1.9343e+07
1.93516e+07
1.93602e+07
1.93688e+07
1.93773e+07
1.93857e+07
1.93942e+07
1.94025e+07
1.94108e+07
1.94191e+07
1.94273e+07
1.94355e+07
1.94436e+07
1.94517e+07
1.94597e+07
1.94677e+07
1.94756e+07
1.94834e+07
1.94912e+07
1.9499e+07
1.95067e+07
1.95143e+07
1.95219e+07
1.95294e+07
1.95369e+07
1.95443e+07
1.95516e+07
1.95589e+07
1.95662e+07
1.95734e+07
1.95805e+07
1.95876e+07
1.95946e+07
1.96014e+07
1.82391e+07
1.82395e+07
1.82402e+07
1.8241e+07
1.82418e+07
1.82427e+07
1.82438e+07
1.82449e+07
1.82461e+07
1.82473e+07
1.82487e+07
1.82502e+07
1.82517e+07
1.82534e+07
1.82551e+07
1.8257e+07
1.82589e+07
1.82609e+07
1.8263e+07
1.82652e+07
1.82675e+07
1.82699e+07
1.82724e+07
1.82749e+07
1.82776e+07
1.82804e+07
1.82832e+07
1.82861e+07
1.82892e+07
1.82923e+07
1.82955e+07
1.82989e+07
1.83023e+07
1.83058e+07
1.83094e+07
1.8313e+07
1.83168e+07
1.83207e+07
1.83247e+07
1.83287e+07
1.83329e+07
1.83371e+07
1.83414e+07
1.83459e+07
1.83504e+07
1.8355e+07
1.83597e+07
1.83645e+07
1.83694e+07
1.83743e+07
1.83794e+07
1.83846e+07
1.83898e+07
1.83951e+07
1.84006e+07
1.84061e+07
1.84117e+07
1.84174e+07
1.84232e+07
1.8429e+07
1.8435e+07
1.8441e+07
1.84471e+07
1.84533e+07
1.84596e+07
1.8466e+07
1.84725e+07
1.8479e+07
1.84856e+07
1.84923e+07
1.84991e+07
1.8506e+07
1.85129e+07
1.852e+07
1.85271e+07
1.85342e+07
1.85415e+07
1.85488e+07
1.85562e+07
1.85637e+07
1.85712e+07
1.85788e+07
1.85865e+07
1.85943e+07
1.86021e+07
1.861e+07
1.86179e+07
1.86259e+07
1.8634e+07
1.86421e+07
1.86503e+07
1.86586e+07
1.86669e+07
1.86753e+07
1.86837e+07
1.86922e+07
1.87007e+07
1.87093e+07
1.87179e+07
1.87266e+07
1.87354e+07
1.87441e+07
1.8753e+07
1.87618e+07
1.87707e+07
1.87797e+07
1.87887e+07
1.87977e+07
1.88068e+07
1.88159e+07
1.8825e+07
1.88341e+07
1.88433e+07
1.88525e+07
1.88618e+07
1.88711e+07
1.88803e+07
1.88897e+07
1.8899e+07
1.89084e+07
1.89177e+07
1.89271e+07
1.89365e+07
1.89459e+07
1.89554e+07
1.89648e+07
1.89742e+07
1.89837e+07
1.89932e+07
1.90026e+07
1.90121e+07
1.90215e+07
1.9031e+07
1.90405e+07
1.90499e+07
1.90594e+07
1.90688e+07
1.90783e+07
1.90877e+07
1.90971e+07
1.91066e+07
1.91159e+07
1.91253e+07
1.91347e+07
1.91441e+07
1.91534e+07
1.91627e+07
1.9172e+07
1.91813e+07
1.91905e+07
1.91997e+07
1.92089e+07
1.92181e+07
1.92272e+07
1.92363e+07
1.92454e+07
1.92545e+07
1.92635e+07
1.92725e+07
1.92814e+07
1.92903e+07
1.92992e+07
1.9308e+07
1.93168e+07
1.93256e+07
1.93343e+07
1.9343e+07
1.93516e+07
1.93602e+07
1.93688e+07
1.93773e+07
1.93857e+07
1.93942e+07
1.94025e+07
1.94108e+07
1.94191e+07
1.94273e+07
1.94355e+07
1.94436e+07
1.94517e+07
1.94597e+07
1.94677e+07
1.94756e+07
1.94834e+07
1.94912e+07
1.9499e+07
1.95067e+07
1.95143e+07
1.95219e+07
1.95294e+07
1.95369e+07
1.95443e+07
1.95516e+07
1.95589e+07
1.95662e+07
1.95734e+07
1.95805e+07
1.95876e+07
1.95946e+07
1.96014e+07
1.82391e+07
1.82395e+07
1.82402e+07
1.8241e+07
1.82418e+07
1.82427e+07
1.82438e+07
1.82449e+07
1.82461e+07
1.82473e+07
1.82487e+07
1.82502e+07
1.82517e+07
1.82534e+07
1.82551e+07
1.8257e+07
1.82589e+07
1.82609e+07
1.8263e+07
1.82652e+07
1.82675e+07
1.82699e+07
1.82724e+07
1.82749e+07
1.82776e+07
1.82804e+07
1.82832e+07
1.82861e+07
1.82892e+07
1.82923e+07
1.82955e+07
1.82989e+07
1.83023e+07
1.83058e+07
1.83094e+07
1.8313e+07
1.83168e+07
1.83207e+07
1.83247e+07
1.83287e+07
1.83329e+07
1.83371e+07
1.83414e+07
1.83459e+07
1.83504e+07
1.8355e+07
1.83597e+07
1.83645e+07
1.83694e+07
1.83743e+07
1.83794e+07
1.83846e+07
1.83898e+07
1.83951e+07
1.84006e+07
1.84061e+07
1.84117e+07
1.84174e+07
1.84232e+07
1.8429e+07
1.8435e+07
1.8441e+07
1.84471e+07
1.84533e+07
1.84596e+07
1.8466e+07
1.84725e+07
1.8479e+07
1.84856e+07
1.84923e+07
1.84991e+07
1.8506e+07
1.85129e+07
1.852e+07
1.85271e+07
1.85342e+07
1.85415e+07
1.85488e+07
1.85562e+07
1.85637e+07
1.85712e+07
1.85788e+07
1.85865e+07
1.85943e+07
1.86021e+07
1.861e+07
1.86179e+07
1.86259e+07
1.8634e+07
1.86421e+07
1.86503e+07
1.86586e+07
1.86669e+07
1.86753e+07
1.86837e+07
1.86922e+07
1.87007e+07
1.87093e+07
1.87179e+07
1.87266e+07
1.87354e+07
1.87441e+07
1.8753e+07
1.87618e+07
1.87707e+07
1.87797e+07
1.87887e+07
1.87977e+07
1.88068e+07
1.88159e+07
1.8825e+07
1.88341e+07
1.88433e+07
1.88525e+07
1.88618e+07
1.88711e+07
1.88803e+07
1.88897e+07
1.8899e+07
1.89084e+07
1.89177e+07
1.89271e+07
1.89365e+07
1.89459e+07
1.89554e+07
1.89648e+07
1.89742e+07
1.89837e+07
1.89932e+07
1.90026e+07
1.90121e+07
1.90215e+07
1.9031e+07
1.90405e+07
1.90499e+07
1.90594e+07
1.90688e+07
1.90783e+07
1.90877e+07
1.90971e+07
1.91066e+07
1.91159e+07
1.91253e+07
1.91347e+07
1.91441e+07
1.91534e+07
1.91627e+07
1.9172e+07
1.91813e+07
1.91905e+07
1.91997e+07
1.92089e+07
1.92181e+07
1.92272e+07
1.92363e+07
1.92454e+07
1.92545e+07
1.92635e+07
1.92725e+07
1.92814e+07
1.92903e+07
1.92992e+07
1.9308e+07
1.93168e+07
1.93256e+07
1.93343e+07
1.9343e+07
1.93516e+07
1.93602e+07
1.93688e+07
1.93773e+07
1.93857e+07
1.93942e+07
1.94025e+07
1.94108e+07
1.94191e+07
1.94273e+07
1.94355e+07
1.94436e+07
1.94517e+07
1.94597e+07
1.94677e+07
1.94756e+07
1.94834e+07
1.94912e+07
1.9499e+07
1.95067e+07
1.95143e+07
1.95219e+07
1.95294e+07
1.95369e+07
1.95443e+07
1.95516e+07
1.95589e+07
1.95662e+07
1.95734e+07
1.95805e+07
1.95876e+07
1.95946e+07
1.96014e+07
1.82391e+07
1.82395e+07
1.82402e+07
1.8241e+07
1.82418e+07
1.82427e+07
1.82438e+07
1.82449e+07
1.82461e+07
1.82473e+07
1.82487e+07
1.82502e+07
1.82517e+07
1.82534e+07
1.82551e+07
1.8257e+07
1.82589e+07
1.82609e+07
1.8263e+07
1.82652e+07
1.82675e+07
1.82699e+07
1.82724e+07
1.82749e+07
1.82776e+07
1.82804e+07
1.82832e+07
1.82861e+07
1.82892e+07
1.82923e+07
1.82955e+07
1.82989e+07
1.83023e+07
1.83058e+07
1.83094e+07
1.8313e+07
1.83168e+07
1.83207e+07
1.83247e+07
1.83287e+07
1.83329e+07
1.83371e+07
1.83414e+07
1.83459e+07
1.83504e+07
1.8355e+07
1.83597e+07
1.83645e+07
1.83694e+07
1.83743e+07
1.83794e+07
1.83846e+07
1.83898e+07
1.83951e+07
1.84006e+07
1.84061e+07
1.84117e+07
1.84174e+07
1.84232e+07
1.8429e+07
1.8435e+07
1.8441e+07
1.84471e+07
1.84533e+07
1.84596e+07
1.8466e+07
1.84725e+07
1.8479e+07
1.84856e+07
1.84923e+07
1.84991e+07
1.8506e+07
1.85129e+07
1.852e+07
1.85271e+07
1.85342e+07
1.85415e+07
1.85488e+07
1.85562e+07
1.85637e+07
1.85712e+07
1.85788e+07
1.85865e+07
1.85943e+07
1.86021e+07
1.861e+07
1.86179e+07
1.86259e+07
1.8634e+07
1.86421e+07
1.86503e+07
1.86586e+07
1.86669e+07
1.86753e+07
1.86837e+07
1.86922e+07
1.87007e+07
1.87093e+07
1.87179e+07
1.87266e+07
1.87354e+07
1.87441e+07
1.8753e+07
1.87618e+07
1.87707e+07
1.87797e+07
1.87887e+07
1.87977e+07
1.88068e+07
1.88159e+07
1.8825e+07
1.88341e+07
1.88433e+07
1.88525e+07
1.88618e+07
1.88711e+07
1.88803e+07
1.88897e+07
1.8899e+07
1.89084e+07
1.89177e+07
1.89271e+07
1.89365e+07
1.89459e+07
1.89554e+07
1.89648e+07
1.89742e+07
1.89837e+07
1.89932e+07
1.90026e+07
1.90121e+07
1.90215e+07
1.9031e+07
1.90405e+07
1.90499e+07
1.90594e+07
1.90688e+07
1.90783e+07
1.90877e+07
1.90971e+07
1.91066e+07
1.91159e+07
1.91253e+07
1.91347e+07
1.91441e+07
1.91534e+07
1.91627e+07
1.9172e+07
1.91813e+07
1.91905e+07
1.91997e+07
1.92089e+07
1.92181e+07
1.92272e+07
1.92363e+07
1.92454e+07
1.92545e+07
1.92635e+07
1.92725e+07
1.92814e+07
1.92903e+07
1.92992e+07
1.9308e+07
1.93168e+07
1.93256e+07
1.93343e+07
1.9343e+07
1.93516e+07
1.93602e+07
1.93688e+07
1.93773e+07
1.93857e+07
1.93942e+07
1.94025e+07
1.94108e+07
1.94191e+07
1.94273e+07
1.94355e+07
1.94436e+07
1.94517e+07
1.94597e+07
1.94677e+07
1.94756e+07
1.94834e+07
1.94912e+07
1.9499e+07
1.95067e+07
1.95143e+07
1.95219e+07
1.95294e+07
1.95369e+07
1.95443e+07
1.95516e+07
1.95589e+07
1.95662e+07
1.95734e+07
1.95805e+07
1.95875e+07
1.95946e+07
1.96015e+07
1.82391e+07
1.82395e+07
1.82402e+07
1.8241e+07
1.82418e+07
1.82427e+07
1.82438e+07
1.82449e+07
1.82461e+07
1.82473e+07
1.82487e+07
1.82502e+07
1.82517e+07
1.82534e+07
1.82551e+07
1.8257e+07
1.82589e+07
1.82609e+07
1.8263e+07
1.82652e+07
1.82675e+07
1.82699e+07
1.82724e+07
1.82749e+07
1.82776e+07
1.82804e+07
1.82832e+07
1.82861e+07
1.82892e+07
1.82923e+07
1.82955e+07
1.82989e+07
1.83023e+07
1.83058e+07
1.83094e+07
1.8313e+07
1.83168e+07
1.83207e+07
1.83247e+07
1.83287e+07
1.83329e+07
1.83371e+07
1.83414e+07
1.83459e+07
1.83504e+07
1.8355e+07
1.83597e+07
1.83645e+07
1.83694e+07
1.83743e+07
1.83794e+07
1.83846e+07
1.83898e+07
1.83951e+07
1.84006e+07
1.84061e+07
1.84117e+07
1.84174e+07
1.84232e+07
1.8429e+07
1.8435e+07
1.8441e+07
1.84471e+07
1.84533e+07
1.84596e+07
1.8466e+07
1.84725e+07
1.8479e+07
1.84856e+07
1.84923e+07
1.84991e+07
1.8506e+07
1.85129e+07
1.852e+07
1.85271e+07
1.85342e+07
1.85415e+07
1.85488e+07
1.85562e+07
1.85637e+07
1.85712e+07
1.85788e+07
1.85865e+07
1.85943e+07
1.86021e+07
1.861e+07
1.86179e+07
1.86259e+07
1.8634e+07
1.86421e+07
1.86503e+07
1.86586e+07
1.86669e+07
1.86753e+07
1.86837e+07
1.86922e+07
1.87007e+07
1.87093e+07
1.87179e+07
1.87266e+07
1.87354e+07
1.87441e+07
1.8753e+07
1.87618e+07
1.87707e+07
1.87797e+07
1.87887e+07
1.87977e+07
1.88068e+07
1.88159e+07
1.8825e+07
1.88341e+07
1.88433e+07
1.88525e+07
1.88618e+07
1.88711e+07
1.88803e+07
1.88897e+07
1.8899e+07
1.89084e+07
1.89177e+07
1.89271e+07
1.89365e+07
1.89459e+07
1.89554e+07
1.89648e+07
1.89742e+07
1.89837e+07
1.89932e+07
1.90026e+07
1.90121e+07
1.90215e+07
1.9031e+07
1.90405e+07
1.90499e+07
1.90594e+07
1.90688e+07
1.90783e+07
1.90877e+07
1.90971e+07
1.91066e+07
1.91159e+07
1.91253e+07
1.91347e+07
1.91441e+07
1.91534e+07
1.91627e+07
1.9172e+07
1.91813e+07
1.91905e+07
1.91997e+07
1.92089e+07
1.92181e+07
1.92272e+07
1.92363e+07
1.92454e+07
1.92545e+07
1.92635e+07
1.92725e+07
1.92814e+07
1.92903e+07
1.92992e+07
1.9308e+07
1.93168e+07
1.93256e+07
1.93343e+07
1.9343e+07
1.93516e+07
1.93602e+07
1.93688e+07
1.93773e+07
1.93857e+07
1.93942e+07
1.94025e+07
1.94108e+07
1.94191e+07
1.94273e+07
1.94355e+07
1.94436e+07
1.94517e+07
1.94597e+07
1.94677e+07
1.94756e+07
1.94834e+07
1.94912e+07
1.9499e+07
1.95067e+07
1.95143e+07
1.95219e+07
1.95294e+07
1.95369e+07
1.95443e+07
1.95516e+07
1.95589e+07
1.95662e+07
1.95734e+07
1.95805e+07
1.95875e+07
1.95945e+07
1.96014e+07
1.82391e+07
1.82395e+07
1.82402e+07
1.8241e+07
1.82418e+07
1.82427e+07
1.82438e+07
1.82449e+07
1.82461e+07
1.82473e+07
1.82487e+07
1.82502e+07
1.82517e+07
1.82534e+07
1.82551e+07
1.8257e+07
1.82589e+07
1.82609e+07
1.8263e+07
1.82652e+07
1.82675e+07
1.82699e+07
1.82724e+07
1.82749e+07
1.82776e+07
1.82804e+07
1.82832e+07
1.82861e+07
1.82892e+07
1.82923e+07
1.82955e+07
1.82989e+07
1.83023e+07
1.83058e+07
1.83094e+07
1.8313e+07
1.83168e+07
1.83207e+07
1.83247e+07
1.83287e+07
1.83329e+07
1.83371e+07
1.83414e+07
1.83459e+07
1.83504e+07
1.8355e+07
1.83597e+07
1.83645e+07
1.83694e+07
1.83743e+07
1.83794e+07
1.83846e+07
1.83898e+07
1.83951e+07
1.84006e+07
1.84061e+07
1.84117e+07
1.84174e+07
1.84232e+07
1.8429e+07
1.8435e+07
1.8441e+07
1.84471e+07
1.84533e+07
1.84596e+07
1.8466e+07
1.84725e+07
1.8479e+07
1.84856e+07
1.84923e+07
1.84991e+07
1.8506e+07
1.85129e+07
1.852e+07
1.85271e+07
1.85342e+07
1.85415e+07
1.85488e+07
1.85562e+07
1.85637e+07
1.85712e+07
1.85788e+07
1.85865e+07
1.85943e+07
1.86021e+07
1.861e+07
1.86179e+07
1.86259e+07
1.8634e+07
1.86421e+07
1.86503e+07
1.86586e+07
1.86669e+07
1.86753e+07
1.86837e+07
1.86922e+07
1.87007e+07
1.87093e+07
1.87179e+07
1.87266e+07
1.87354e+07
1.87441e+07
1.8753e+07
1.87618e+07
1.87707e+07
1.87797e+07
1.87887e+07
1.87977e+07
1.88068e+07
1.88159e+07
1.8825e+07
1.88341e+07
1.88433e+07
1.88525e+07
1.88618e+07
1.88711e+07
1.88803e+07
1.88897e+07
1.8899e+07
1.89084e+07
1.89177e+07
1.89271e+07
1.89365e+07
1.89459e+07
1.89554e+07
1.89648e+07
1.89742e+07
1.89837e+07
1.89932e+07
1.90026e+07
1.90121e+07
1.90215e+07
1.9031e+07
1.90405e+07
1.90499e+07
1.90594e+07
1.90688e+07
1.90783e+07
1.90877e+07
1.90971e+07
1.91066e+07
1.91159e+07
1.91253e+07
1.91347e+07
1.91441e+07
1.91534e+07
1.91627e+07
1.9172e+07
1.91813e+07
1.91905e+07
1.91997e+07
1.92089e+07
1.92181e+07
1.92272e+07
1.92363e+07
1.92454e+07
1.92545e+07
1.92635e+07
1.92725e+07
1.92814e+07
1.92903e+07
1.92992e+07
1.9308e+07
1.93168e+07
1.93256e+07
1.93343e+07
1.9343e+07
1.93516e+07
1.93602e+07
1.93688e+07
1.93773e+07
1.93857e+07
1.93942e+07
1.94025e+07
1.94108e+07
1.94191e+07
1.94273e+07
1.94355e+07
1.94436e+07
1.94517e+07
1.94597e+07
1.94677e+07
1.94756e+07
1.94834e+07
1.94912e+07
1.9499e+07
1.95067e+07
1.95143e+07
1.95219e+07
1.95294e+07
1.95369e+07
1.95443e+07
1.95516e+07
1.95589e+07
1.95662e+07
1.95734e+07
1.95805e+07
1.95875e+07
1.95945e+07
1.96015e+07
1.82391e+07
1.82395e+07
1.82402e+07
1.8241e+07
1.82418e+07
1.82427e+07
1.82438e+07
1.82449e+07
1.82461e+07
1.82473e+07
1.82487e+07
1.82502e+07
1.82517e+07
1.82534e+07
1.82551e+07
1.8257e+07
1.82589e+07
1.82609e+07
1.8263e+07
1.82652e+07
1.82675e+07
1.82699e+07
1.82724e+07
1.82749e+07
1.82776e+07
1.82804e+07
1.82832e+07
1.82861e+07
1.82892e+07
1.82923e+07
1.82955e+07
1.82989e+07
1.83023e+07
1.83058e+07
1.83094e+07
1.8313e+07
1.83168e+07
1.83207e+07
1.83247e+07
1.83287e+07
1.83329e+07
1.83371e+07
1.83414e+07
1.83459e+07
1.83504e+07
1.8355e+07
1.83597e+07
1.83645e+07
1.83694e+07
1.83743e+07
1.83794e+07
1.83846e+07
1.83898e+07
1.83951e+07
1.84006e+07
1.84061e+07
1.84117e+07
1.84174e+07
1.84232e+07
1.8429e+07
1.8435e+07
1.8441e+07
1.84471e+07
1.84533e+07
1.84596e+07
1.8466e+07
1.84725e+07
1.8479e+07
1.84856e+07
1.84923e+07
1.84991e+07
1.8506e+07
1.85129e+07
1.852e+07
1.85271e+07
1.85342e+07
1.85415e+07
1.85488e+07
1.85562e+07
1.85637e+07
1.85712e+07
1.85788e+07
1.85865e+07
1.85943e+07
1.86021e+07
1.861e+07
1.86179e+07
1.86259e+07
1.8634e+07
1.86421e+07
1.86503e+07
1.86586e+07
1.86669e+07
1.86753e+07
1.86837e+07
1.86922e+07
1.87007e+07
1.87093e+07
1.87179e+07
1.87266e+07
1.87354e+07
1.87441e+07
1.8753e+07
1.87618e+07
1.87707e+07
1.87797e+07
1.87887e+07
1.87977e+07
1.88068e+07
1.88159e+07
1.8825e+07
1.88341e+07
1.88433e+07
1.88525e+07
1.88618e+07
1.88711e+07
1.88803e+07
1.88897e+07
1.8899e+07
1.89084e+07
1.89177e+07
1.89271e+07
1.89365e+07
1.89459e+07
1.89554e+07
1.89648e+07
1.89742e+07
1.89837e+07
1.89932e+07
1.90026e+07
1.90121e+07
1.90215e+07
1.9031e+07
1.90405e+07
1.90499e+07
1.90594e+07
1.90688e+07
1.90783e+07
1.90877e+07
1.90971e+07
1.91066e+07
1.91159e+07
1.91253e+07
1.91347e+07
1.91441e+07
1.91534e+07
1.91627e+07
1.9172e+07
1.91813e+07
1.91905e+07
1.91997e+07
1.92089e+07
1.92181e+07
1.92272e+07
1.92363e+07
1.92454e+07
1.92545e+07
1.92635e+07
1.92725e+07
1.92814e+07
1.92903e+07
1.92992e+07
1.9308e+07
1.93168e+07
1.93256e+07
1.93343e+07
1.9343e+07
1.93516e+07
1.93602e+07
1.93688e+07
1.93773e+07
1.93857e+07
1.93942e+07
1.94025e+07
1.94108e+07
1.94191e+07
1.94273e+07
1.94355e+07
1.94436e+07
1.94517e+07
1.94597e+07
1.94677e+07
1.94756e+07
1.94834e+07
1.94912e+07
1.9499e+07
1.95067e+07
1.95143e+07
1.95219e+07
1.95294e+07
1.95369e+07
1.95443e+07
1.95516e+07
1.95589e+07
1.95662e+07
1.95734e+07
1.95805e+07
1.95875e+07
1.95945e+07
1.96015e+07
1.82391e+07
1.82395e+07
1.82402e+07
1.8241e+07
1.82418e+07
1.82427e+07
1.82438e+07
1.82449e+07
1.82461e+07
1.82473e+07
1.82487e+07
1.82502e+07
1.82517e+07
1.82534e+07
1.82551e+07
1.8257e+07
1.82589e+07
1.82609e+07
1.8263e+07
1.82652e+07
1.82675e+07
1.82699e+07
1.82724e+07
1.82749e+07
1.82776e+07
1.82804e+07
1.82832e+07
1.82861e+07
1.82892e+07
1.82923e+07
1.82955e+07
1.82989e+07
1.83023e+07
1.83058e+07
1.83094e+07
1.8313e+07
1.83168e+07
1.83207e+07
1.83247e+07
1.83287e+07
1.83329e+07
1.83371e+07
1.83414e+07
1.83459e+07
1.83504e+07
1.8355e+07
1.83597e+07
1.83645e+07
1.83694e+07
1.83743e+07
1.83794e+07
1.83846e+07
1.83898e+07
1.83951e+07
1.84006e+07
1.84061e+07
1.84117e+07
1.84174e+07
1.84232e+07
1.8429e+07
1.8435e+07
1.8441e+07
1.84471e+07
1.84533e+07
1.84596e+07
1.8466e+07
1.84725e+07
1.8479e+07
1.84856e+07
1.84923e+07
1.84991e+07
1.8506e+07
1.85129e+07
1.852e+07
1.85271e+07
1.85342e+07
1.85415e+07
1.85488e+07
1.85562e+07
1.85637e+07
1.85712e+07
1.85788e+07
1.85865e+07
1.85943e+07
1.86021e+07
1.861e+07
1.86179e+07
1.86259e+07
1.8634e+07
1.86421e+07
1.86503e+07
1.86586e+07
1.86669e+07
1.86753e+07
1.86837e+07
1.86922e+07
1.87007e+07
1.87093e+07
1.87179e+07
1.87266e+07
1.87354e+07
1.87441e+07
1.8753e+07
1.87618e+07
1.87707e+07
1.87797e+07
1.87887e+07
1.87977e+07
1.88068e+07
1.88159e+07
1.8825e+07
1.88341e+07
1.88433e+07
1.88525e+07
1.88618e+07
1.88711e+07
1.88803e+07
1.88897e+07
1.8899e+07
1.89084e+07
1.89177e+07
1.89271e+07
1.89365e+07
1.89459e+07
1.89554e+07
1.89648e+07
1.89742e+07
1.89837e+07
1.89932e+07
1.90026e+07
1.90121e+07
1.90215e+07
1.9031e+07
1.90405e+07
1.90499e+07
1.90594e+07
1.90688e+07
1.90783e+07
1.90877e+07
1.90971e+07
1.91066e+07
1.91159e+07
1.91253e+07
1.91347e+07
1.91441e+07
1.91534e+07
1.91627e+07
1.9172e+07
1.91813e+07
1.91905e+07
1.91997e+07
1.92089e+07
1.92181e+07
1.92272e+07
1.92363e+07
1.92454e+07
1.92545e+07
1.92635e+07
1.92725e+07
1.92814e+07
1.92903e+07
1.92992e+07
1.9308e+07
1.93168e+07
1.93256e+07
1.93343e+07
1.9343e+07
1.93516e+07
1.93602e+07
1.93688e+07
1.93773e+07
1.93857e+07
1.93942e+07
1.94025e+07
1.94108e+07
1.94191e+07
1.94273e+07
1.94355e+07
1.94436e+07
1.94517e+07
1.94597e+07
1.94677e+07
1.94756e+07
1.94834e+07
1.94912e+07
1.9499e+07
1.95067e+07
1.95143e+07
1.95219e+07
1.95294e+07
1.95369e+07
1.95443e+07
1.95516e+07
1.95589e+07
1.95662e+07
1.95734e+07
1.95805e+07
1.95875e+07
1.95945e+07
1.96015e+07
1.82391e+07
1.82395e+07
1.82402e+07
1.8241e+07
1.82418e+07
1.82427e+07
1.82438e+07
1.82449e+07
1.82461e+07
1.82473e+07
1.82487e+07
1.82502e+07
1.82517e+07
1.82534e+07
1.82551e+07
1.8257e+07
1.82589e+07
1.82609e+07
1.8263e+07
1.82652e+07
1.82675e+07
1.82699e+07
1.82724e+07
1.82749e+07
1.82776e+07
1.82804e+07
1.82832e+07
1.82861e+07
1.82892e+07
1.82923e+07
1.82955e+07
1.82989e+07
1.83023e+07
1.83058e+07
1.83094e+07
1.8313e+07
1.83168e+07
1.83207e+07
1.83247e+07
1.83287e+07
1.83329e+07
1.83371e+07
1.83414e+07
1.83459e+07
1.83504e+07
1.8355e+07
1.83597e+07
1.83645e+07
1.83694e+07
1.83743e+07
1.83794e+07
1.83846e+07
1.83898e+07
1.83951e+07
1.84006e+07
1.84061e+07
1.84117e+07
1.84174e+07
1.84232e+07
1.8429e+07
1.8435e+07
1.8441e+07
1.84471e+07
1.84533e+07
1.84596e+07
1.8466e+07
1.84725e+07
1.8479e+07
1.84856e+07
1.84923e+07
1.84991e+07
1.8506e+07
1.85129e+07
1.852e+07
1.85271e+07
1.85342e+07
1.85415e+07
1.85488e+07
1.85562e+07
1.85637e+07
1.85712e+07
1.85788e+07
1.85865e+07
1.85943e+07
1.86021e+07
1.861e+07
1.86179e+07
1.86259e+07
1.8634e+07
1.86421e+07
1.86503e+07
1.86586e+07
1.86669e+07
1.86753e+07
1.86837e+07
1.86922e+07
1.87007e+07
1.87093e+07
1.87179e+07
1.87266e+07
1.87354e+07
1.87441e+07
1.8753e+07
1.87618e+07
1.87707e+07
1.87797e+07
1.87887e+07
1.87977e+07
1.88068e+07
1.88159e+07
1.8825e+07
1.88341e+07
1.88433e+07
1.88525e+07
1.88618e+07
1.88711e+07
1.88803e+07
1.88897e+07
1.8899e+07
1.89084e+07
1.89177e+07
1.89271e+07
1.89365e+07
1.89459e+07
1.89554e+07
1.89648e+07
1.89742e+07
1.89837e+07
1.89932e+07
1.90026e+07
1.90121e+07
1.90215e+07
1.9031e+07
1.90405e+07
1.90499e+07
1.90594e+07
1.90688e+07
1.90783e+07
1.90877e+07
1.90971e+07
1.91066e+07
1.91159e+07
1.91253e+07
1.91347e+07
1.91441e+07
1.91534e+07
1.91627e+07
1.9172e+07
1.91813e+07
1.91905e+07
1.91997e+07
1.92089e+07
1.92181e+07
1.92272e+07
1.92363e+07
1.92454e+07
1.92545e+07
1.92635e+07
1.92725e+07
1.92814e+07
1.92903e+07
1.92992e+07
1.9308e+07
1.93168e+07
1.93256e+07
1.93343e+07
1.9343e+07
1.93516e+07
1.93602e+07
1.93688e+07
1.93773e+07
1.93857e+07
1.93942e+07
1.94025e+07
1.94108e+07
1.94191e+07
1.94273e+07
1.94355e+07
1.94436e+07
1.94517e+07
1.94597e+07
1.94677e+07
1.94756e+07
1.94834e+07
1.94912e+07
1.9499e+07
1.95067e+07
1.95143e+07
1.95219e+07
1.95294e+07
1.95369e+07
1.95443e+07
1.95516e+07
1.95589e+07
1.95662e+07
1.95734e+07
1.95805e+07
1.95875e+07
1.95945e+07
1.96015e+07
1.96062e+07
1.9608e+07
1.96095e+07
1.96108e+07
1.96121e+07
1.96134e+07
1.96147e+07
1.9616e+07
1.96173e+07
1.96185e+07
1.96198e+07
1.9621e+07
1.96223e+07
1.96235e+07
1.96247e+07
1.96259e+07
1.96271e+07
1.96283e+07
1.96295e+07
1.96307e+07
1.96061e+07
1.96079e+07
1.96094e+07
1.96107e+07
1.9612e+07
1.96133e+07
1.96146e+07
1.96159e+07
1.96172e+07
1.96184e+07
1.96197e+07
1.96209e+07
1.96222e+07
1.96234e+07
1.96246e+07
1.96258e+07
1.9627e+07
1.96282e+07
1.96294e+07
1.96306e+07
1.96061e+07
1.96079e+07
1.96094e+07
1.96107e+07
1.9612e+07
1.96133e+07
1.96146e+07
1.96159e+07
1.96171e+07
1.96184e+07
1.96197e+07
1.96209e+07
1.96222e+07
1.96234e+07
1.96246e+07
1.96258e+07
1.9627e+07
1.96282e+07
1.96294e+07
1.96305e+07
1.96058e+07
1.96074e+07
1.96087e+07
1.96101e+07
1.96114e+07
1.96127e+07
1.9614e+07
1.96153e+07
1.96166e+07
1.96179e+07
1.96191e+07
1.96204e+07
1.96216e+07
1.96228e+07
1.9624e+07
1.96252e+07
1.96263e+07
1.96275e+07
1.96286e+07
1.96298e+07
1.9606e+07
1.96076e+07
1.9609e+07
1.96103e+07
1.96116e+07
1.96129e+07
1.96141e+07
1.96153e+07
1.96166e+07
1.96178e+07
1.9619e+07
1.96203e+07
1.96215e+07
1.96227e+07
1.96239e+07
1.96251e+07
1.96263e+07
1.96275e+07
1.96287e+07
1.96298e+07
1.96051e+07
1.96061e+07
1.96072e+07
1.96083e+07
1.96096e+07
1.96108e+07
1.9612e+07
1.96133e+07
1.96146e+07
1.96159e+07
1.96172e+07
1.96184e+07
1.96197e+07
1.96209e+07
1.96222e+07
1.96234e+07
1.96246e+07
1.96258e+07
1.9627e+07
1.96283e+07
1.96053e+07
1.96064e+07
1.96077e+07
1.96089e+07
1.96101e+07
1.96113e+07
1.96124e+07
1.96136e+07
1.96148e+07
1.9616e+07
1.96171e+07
1.96183e+07
1.96195e+07
1.96207e+07
1.96219e+07
1.96231e+07
1.96244e+07
1.96256e+07
1.96269e+07
1.96282e+07
1.96041e+07
1.96045e+07
1.9605e+07
1.96058e+07
1.96068e+07
1.9608e+07
1.96092e+07
1.96104e+07
1.96117e+07
1.9613e+07
1.96143e+07
1.96156e+07
1.96169e+07
1.96183e+07
1.96197e+07
1.96211e+07
1.96225e+07
1.9624e+07
1.96254e+07
1.96269e+07
1.96039e+07
1.96043e+07
1.9605e+07
1.96059e+07
1.9607e+07
1.96081e+07
1.96093e+07
1.96105e+07
1.96117e+07
1.9613e+07
1.96143e+07
1.96156e+07
1.96169e+07
1.96182e+07
1.96196e+07
1.9621e+07
1.96224e+07
1.96239e+07
1.96253e+07
1.96268e+07
1.96035e+07
1.96036e+07
1.96042e+07
1.9605e+07
1.9606e+07
1.96071e+07
1.96083e+07
1.96095e+07
1.96108e+07
1.96121e+07
1.96134e+07
1.96147e+07
1.96161e+07
1.96174e+07
1.96188e+07
1.96203e+07
1.96217e+07
1.96232e+07
1.96248e+07
1.96263e+07
1.96328e+07
1.96375e+07
1.96424e+07
1.96473e+07
1.96523e+07
1.96572e+07
1.96621e+07
1.9667e+07
1.96718e+07
1.96766e+07
1.96814e+07
1.96862e+07
1.96909e+07
1.96956e+07
1.97002e+07
1.97049e+07
1.97094e+07
1.9714e+07
1.97185e+07
1.9723e+07
1.97275e+07
1.97319e+07
1.97363e+07
1.97406e+07
1.97449e+07
1.97492e+07
1.97534e+07
1.97576e+07
1.97618e+07
1.97659e+07
1.977e+07
1.9774e+07
1.9778e+07
1.9782e+07
1.9786e+07
1.97899e+07
1.97937e+07
1.97975e+07
1.98013e+07
1.98051e+07
1.98088e+07
1.98125e+07
1.98161e+07
1.98197e+07
1.98233e+07
1.98268e+07
1.98303e+07
1.98338e+07
1.98372e+07
1.98406e+07
1.98439e+07
1.98472e+07
1.98505e+07
1.98537e+07
1.98569e+07
1.98601e+07
1.98632e+07
1.98663e+07
1.98694e+07
1.98724e+07
1.98754e+07
1.98784e+07
1.98813e+07
1.98842e+07
1.9887e+07
1.98898e+07
1.98926e+07
1.98954e+07
1.98981e+07
1.99008e+07
1.99034e+07
1.9906e+07
1.99086e+07
1.99111e+07
1.99136e+07
1.99161e+07
1.99185e+07
1.99209e+07
1.99233e+07
1.99256e+07
1.99279e+07
1.99302e+07
1.99325e+07
1.99347e+07
1.99368e+07
1.9939e+07
1.99411e+07
1.99432e+07
1.99452e+07
1.99472e+07
1.99492e+07
1.99512e+07
1.99531e+07
1.9955e+07
1.99569e+07
1.99587e+07
1.99605e+07
1.99623e+07
1.9964e+07
1.99657e+07
1.99674e+07
1.99691e+07
1.99707e+07
1.99723e+07
1.99739e+07
1.99754e+07
1.9977e+07
1.99784e+07
1.99799e+07
1.99813e+07
1.99827e+07
1.99841e+07
1.99855e+07
1.99868e+07
1.99881e+07
1.99893e+07
1.99906e+07
1.99918e+07
1.9993e+07
1.99942e+07
1.99953e+07
1.99964e+07
1.99975e+07
1.99986e+07
1.99997e+07
2.00007e+07
2.00017e+07
2.00027e+07
2.00036e+07
2.00045e+07
2.00054e+07
2.00063e+07
2.00072e+07
2.0008e+07
2.00088e+07
2.00096e+07
2.00103e+07
2.0011e+07
2.00117e+07
2.00124e+07
2.00131e+07
2.00137e+07
2.00143e+07
2.00149e+07
2.00155e+07
2.00161e+07
2.00166e+07
2.00172e+07
2.00177e+07
2.00182e+07
2.00187e+07
2.00191e+07
2.00196e+07
2.002e+07
2.00204e+07
2.00209e+07
2.00212e+07
2.00216e+07
2.0022e+07
2.00224e+07
2.00227e+07
2.00231e+07
2.00234e+07
2.00237e+07
2.0024e+07
2.00243e+07
2.00246e+07
2.00249e+07
2.00252e+07
2.00254e+07
2.00257e+07
2.00259e+07
2.00262e+07
2.00264e+07
2.00266e+07
2.00268e+07
2.0027e+07
2.00273e+07
2.00275e+07
2.00276e+07
2.00278e+07
2.0028e+07
2.00282e+07
2.00283e+07
2.00285e+07
2.00287e+07
2.00288e+07
2.0029e+07
2.00291e+07
2.00292e+07
2.00293e+07
2.00295e+07
2.00296e+07
2.00297e+07
2.00298e+07
2.00299e+07
2.003e+07
2.00301e+07
2.00302e+07
2.00302e+07
1.96328e+07
1.96375e+07
1.96424e+07
1.96473e+07
1.96523e+07
1.96572e+07
1.96621e+07
1.9667e+07
1.96718e+07
1.96766e+07
1.96814e+07
1.96862e+07
1.96909e+07
1.96956e+07
1.97002e+07
1.97049e+07
1.97094e+07
1.9714e+07
1.97185e+07
1.9723e+07
1.97275e+07
1.97319e+07
1.97363e+07
1.97406e+07
1.97449e+07
1.97492e+07
1.97534e+07
1.97576e+07
1.97618e+07
1.97659e+07
1.977e+07
1.9774e+07
1.9778e+07
1.9782e+07
1.9786e+07
1.97899e+07
1.97937e+07
1.97975e+07
1.98013e+07
1.98051e+07
1.98088e+07
1.98125e+07
1.98161e+07
1.98197e+07
1.98233e+07
1.98268e+07
1.98303e+07
1.98338e+07
1.98372e+07
1.98406e+07
1.98439e+07
1.98472e+07
1.98505e+07