/*--------------------------------*- C++ -*----------------------------------*\
| =========                 |                                                 |
| \\      /  F ield         | OpenFOAM: The Open Source CFD Toolbox           |
|  \\    /   O peration     | Version:  3.0.x                                 |
|   \\  /    A nd           | Web:      www.OpenFOAM.org                      |
|    \\/     M anipulation  |                                                 |
\*---------------------------------------------------------------------------*/
FoamFile
{
    version     2.0;
    format      ascii;
    class       volScalarField;
    location    "0.530075";
    object      rho;
}
// * * * * * * * * * * * * * * * * * * * * * * * * * * * * * * * * * * * * * //

dimensions      [1 -3 0 0 0 0 0];

internalField   nonuniform List<scalar> 
13800
(
51.0183
51.0202
51.0231
51.026
51.0286
51.0312
51.0339
51.0368
51.0397
51.0427
51.046
51.0494
51.053
51.0569
51.0609
51.0652
51.0697
51.0744
51.0793
51.0845
51.0898
51.0954
51.1011
51.1071
51.1133
51.1198
51.1264
51.1333
51.1403
51.1476
51.1551
51.1629
51.1708
51.1789
51.1873
51.1959
51.2047
51.2137
51.223
51.2324
51.2421
51.252
51.262
51.2724
51.2829
51.2936
51.3045
51.3157
51.3271
51.3387
51.3505
51.3625
51.3747
51.3871
51.3997
51.4125
51.4256
51.4388
51.4522
51.4659
51.4797
51.4937
51.5079
51.5224
51.537
51.5519
51.5669
51.5822
51.5977
51.6133
51.6291
51.6451
51.6612
51.6775
51.694
51.7107
51.7275
51.7445
51.7617
51.7791
51.7966
51.8143
51.8322
51.8502
51.8684
51.8867
51.9052
51.9239
51.9427
51.9617
51.9808
52
52.0193
52.0388
52.0584
52.078
52.0978
52.1177
52.1378
52.1579
52.1782
52.1985
52.219
52.2397
52.2604
52.2812
52.302
52.323
52.344
52.3651
52.3863
52.4076
52.4289
52.4502
52.4717
52.4931
52.5147
52.5363
52.5579
52.5796
52.6013
52.623
52.6448
52.6666
52.6884
52.7103
52.7321
52.754
52.7759
52.7978
52.8197
52.8416
52.8635
52.8854
52.9073
52.9291
52.951
52.9728
52.9947
53.0165
53.0382
53.0599
53.0816
53.1033
53.1249
53.1465
53.168
53.1895
53.2109
53.2323
53.2536
53.2748
53.296
53.3171
53.3381
53.3591
53.38
53.4008
53.4216
53.4422
53.4628
53.4833
53.5037
53.524
53.5442
53.5643
53.5844
53.6043
53.6241
53.6438
53.6635
53.683
53.7024
53.7217
53.7408
53.7599
53.7789
53.7977
53.8164
53.8349
53.8536
53.8717
53.8902
53.908
53.9264
53.9437
53.962
53.979
53.9972
54.0137
54.0319
54.0478
54.066
54.0815
54.0995
54.1148
54.1322
54.148
54.1635
54.1806
51.0193
51.0213
51.0241
51.027
51.0296
51.0322
51.0349
51.0378
51.0407
51.0437
51.047
51.0504
51.054
51.0579
51.0619
51.0662
51.0707
51.0754
51.0803
51.0854
51.0908
51.0963
51.1021
51.1081
51.1143
51.1207
51.1274
51.1342
51.1413
51.1486
51.1561
51.1638
51.1717
51.1799
51.1883
51.1968
51.2056
51.2147
51.2239
51.2333
51.243
51.2529
51.263
51.2733
51.2838
51.2945
51.3055
51.3166
51.328
51.3396
51.3513
51.3633
51.3755
51.388
51.4006
51.4134
51.4265
51.4397
51.4531
51.4667
51.4805
51.4946
51.5088
51.5232
51.5378
51.5527
51.5678
51.583
51.5985
51.6141
51.6299
51.6459
51.662
51.6784
51.6948
51.7115
51.7283
51.7453
51.7625
51.7799
51.7974
51.8151
51.833
51.851
51.8691
51.8875
51.906
51.9247
51.9435
51.9624
51.9815
52.0007
52.0201
52.0395
52.0591
52.0788
52.0986
52.1185
52.1385
52.1586
52.1789
52.1993
52.2197
52.2403
52.261
52.2818
52.3027
52.3237
52.3447
52.3658
52.387
52.4082
52.4295
52.4509
52.4723
52.4938
52.5153
52.5369
52.5585
52.5802
52.6019
52.6236
52.6454
52.6672
52.689
52.7109
52.7328
52.7546
52.7765
52.7984
52.8203
52.8422
52.8641
52.886
52.9079
52.9298
52.9517
52.9735
52.9953
53.0171
53.0389
53.0606
53.0823
53.1039
53.1256
53.1471
53.1687
53.1901
53.2115
53.2329
53.2542
53.2755
53.2966
53.3178
53.3388
53.3598
53.3807
53.4015
53.4222
53.4429
53.4635
53.484
53.5044
53.5247
53.5449
53.565
53.585
53.6049
53.6248
53.6445
53.6641
53.6836
53.703
53.7223
53.7415
53.7605
53.7795
53.7983
53.8171
53.8356
53.8542
53.8723
53.8909
53.9086
53.927
53.9444
53.9627
53.9796
53.9979
54.0143
54.0325
54.0485
54.0666
54.0822
54.1001
54.1154
54.133
54.1481
54.1653
54.1796
51.0193
51.0213
51.0241
51.027
51.0296
51.0322
51.0349
51.0378
51.0407
51.0437
51.047
51.0504
51.054
51.0579
51.0619
51.0662
51.0707
51.0754
51.0803
51.0854
51.0908
51.0963
51.1021
51.1081
51.1143
51.1207
51.1274
51.1342
51.1413
51.1486
51.1561
51.1638
51.1717
51.1799
51.1883
51.1968
51.2056
51.2147
51.2239
51.2333
51.243
51.2529
51.263
51.2733
51.2838
51.2945
51.3055
51.3166
51.328
51.3396
51.3513
51.3633
51.3755
51.388
51.4006
51.4134
51.4265
51.4397
51.4531
51.4667
51.4805
51.4946
51.5088
51.5232
51.5378
51.5527
51.5678
51.583
51.5985
51.6141
51.6299
51.6459
51.662
51.6784
51.6948
51.7115
51.7283
51.7453
51.7625
51.7799
51.7974
51.8151
51.833
51.851
51.8691
51.8875
51.906
51.9247
51.9435
51.9624
51.9815
52.0007
52.0201
52.0395
52.0591
52.0788
52.0986
52.1185
52.1385
52.1586
52.1789
52.1993
52.2197
52.2403
52.2611
52.2818
52.3027
52.3237
52.3447
52.3658
52.387
52.4082
52.4295
52.4509
52.4723
52.4938
52.5153
52.5369
52.5585
52.5802
52.6019
52.6236
52.6454
52.6672
52.689
52.7109
52.7328
52.7546
52.7765
52.7984
52.8203
52.8422
52.8641
52.886
52.9079
52.9298
52.9517
52.9735
52.9953
53.0171
53.0389
53.0606
53.0823
53.1039
53.1256
53.1471
53.1687
53.1901
53.2115
53.2329
53.2542
53.2755
53.2966
53.3178
53.3388
53.3598
53.3807
53.4015
53.4222
53.4429
53.4635
53.484
53.5044
53.5247
53.5449
53.565
53.585
53.6049
53.6248
53.6445
53.6641
53.6836
53.703
53.7223
53.7415
53.7605
53.7795
53.7983
53.8171
53.8356
53.8542
53.8724
53.8909
53.9086
53.927
53.9444
53.9627
53.9796
53.9979
54.0143
54.0325
54.0485
54.0666
54.0822
54.1001
54.1154
54.133
54.1481
54.1654
54.1796
51.0193
51.0213
51.0241
51.027
51.0296
51.0322
51.0349
51.0378
51.0407
51.0437
51.047
51.0504
51.054
51.0579
51.0619
51.0662
51.0707
51.0754
51.0803
51.0854
51.0908
51.0963
51.1021
51.1081
51.1143
51.1207
51.1274
51.1342
51.1413
51.1486
51.1561
51.1638
51.1717
51.1799
51.1883
51.1968
51.2056
51.2146
51.2239
51.2333
51.243
51.2529
51.263
51.2733
51.2838
51.2945
51.3054
51.3166
51.328
51.3396
51.3513
51.3633
51.3755
51.388
51.4006
51.4134
51.4264
51.4397
51.4531
51.4667
51.4805
51.4946
51.5088
51.5232
51.5378
51.5527
51.5678
51.583
51.5985
51.6141
51.6299
51.6459
51.662
51.6784
51.6948
51.7115
51.7283
51.7453
51.7625
51.7799
51.7974
51.8151
51.833
51.851
51.8691
51.8875
51.906
51.9247
51.9435
51.9624
51.9815
52.0007
52.0201
52.0395
52.0591
52.0788
52.0986
52.1185
52.1385
52.1586
52.1789
52.1993
52.2197
52.2403
52.261
52.2818
52.3027
52.3237
52.3447
52.3658
52.387
52.4082
52.4295
52.4509
52.4723
52.4938
52.5153
52.5369
52.5585
52.5802
52.6019
52.6236
52.6454
52.6672
52.689
52.7109
52.7328
52.7546
52.7765
52.7984
52.8203
52.8422
52.8641
52.886
52.9079
52.9298
52.9517
52.9735
52.9953
53.0171
53.0389
53.0606
53.0823
53.1039
53.1256
53.1471
53.1687
53.1901
53.2115
53.2329
53.2542
53.2755
53.2966
53.3178
53.3388
53.3598
53.3807
53.4015
53.4222
53.4429
53.4635
53.484
53.5044
53.5247
53.5449
53.565
53.585
53.6049
53.6248
53.6445
53.6641
53.6836
53.703
53.7223
53.7415
53.7605
53.7795
53.7983
53.8171
53.8356
53.8542
53.8724
53.8909
53.9086
53.927
53.9444
53.9627
53.9796
53.9979
54.0143
54.0325
54.0485
54.0666
54.0822
54.1001
54.1154
54.133
54.1481
54.1653
54.1802
51.0193
51.0213
51.0241
51.027
51.0296
51.0322
51.0349
51.0378
51.0407
51.0437
51.047
51.0504
51.054
51.0579
51.0619
51.0662
51.0707
51.0754
51.0803
51.0854
51.0908
51.0963
51.1021
51.1081
51.1143
51.1207
51.1274
51.1342
51.1413
51.1486
51.1561
51.1638
51.1717
51.1799
51.1882
51.1968
51.2056
51.2146
51.2239
51.2333
51.243
51.2529
51.2629
51.2733
51.2838
51.2945
51.3054
51.3166
51.328
51.3395
51.3513
51.3633
51.3755
51.388
51.4006
51.4134
51.4264
51.4397
51.4531
51.4667
51.4805
51.4946
51.5088
51.5232
51.5378
51.5527
51.5678
51.583
51.5985
51.6141
51.6299
51.6459
51.662
51.6783
51.6948
51.7115
51.7283
51.7453
51.7625
51.7799
51.7974
51.8151
51.833
51.851
51.8691
51.8875
51.906
51.9247
51.9435
51.9624
51.9815
52.0007
52.0201
52.0395
52.0591
52.0788
52.0986
52.1185
52.1385
52.1586
52.1789
52.1993
52.2197
52.2403
52.261
52.2818
52.3027
52.3237
52.3447
52.3658
52.387
52.4082
52.4295
52.4509
52.4723
52.4938
52.5153
52.5369
52.5585
52.5802
52.6019
52.6236
52.6454
52.6672
52.689
52.7109
52.7328
52.7546
52.7765
52.7984
52.8203
52.8422
52.8641
52.886
52.9079
52.9298
52.9517
52.9735
52.9953
53.0171
53.0389
53.0606
53.0823
53.1039
53.1256
53.1471
53.1687
53.1901
53.2115
53.2329
53.2542
53.2755
53.2966
53.3178
53.3388
53.3598
53.3807
53.4015
53.4222
53.4429
53.4635
53.484
53.5044
53.5247
53.5449
53.565
53.585
53.6049
53.6248
53.6445
53.6641
53.6836
53.703
53.7223
53.7415
53.7605
53.7795
53.7983
53.8171
53.8356
53.8542
53.8724
53.8909
53.9086
53.927
53.9444
53.9627
53.9796
53.9979
54.0143
54.0325
54.0485
54.0666
54.0822
54.1001
54.1154
54.133
54.1481
54.1654
54.1799
51.0193
51.0213
51.0241
51.027
51.0296
51.0322
51.0349
51.0378
51.0407
51.0437
51.047
51.0504
51.054
51.0579
51.0619
51.0662
51.0707
51.0754
51.0803
51.0854
51.0908
51.0963
51.1021
51.1081
51.1143
51.1207
51.1274
51.1342
51.1413
51.1486
51.1561
51.1638
51.1717
51.1799
51.1882
51.1968
51.2056
51.2146
51.2239
51.2333
51.243
51.2529
51.2629
51.2733
51.2838
51.2945
51.3054
51.3166
51.328
51.3395
51.3513
51.3633
51.3755
51.388
51.4006
51.4134
51.4264
51.4397
51.4531
51.4667
51.4805
51.4946
51.5088
51.5232
51.5378
51.5527
51.5678
51.583
51.5985
51.6141
51.6299
51.6459
51.662
51.6783
51.6948
51.7115
51.7283
51.7453
51.7625
51.7799
51.7974
51.8151
51.833
51.851
51.8691
51.8875
51.906
51.9247
51.9435
51.9624
51.9815
52.0007
52.0201
52.0395
52.0591
52.0788
52.0986
52.1185
52.1385
52.1586
52.1789
52.1993
52.2197
52.2403
52.261
52.2818
52.3027
52.3237
52.3447
52.3658
52.387
52.4082
52.4295
52.4509
52.4723
52.4938
52.5153
52.5369
52.5585
52.5802
52.6019
52.6236
52.6454
52.6672
52.689
52.7109
52.7328
52.7546
52.7765
52.7984
52.8203
52.8422
52.8641
52.886
52.9079
52.9298
52.9517
52.9735
52.9953
53.0171
53.0389
53.0606
53.0823
53.1039
53.1256
53.1471
53.1687
53.1901
53.2115
53.2329
53.2542
53.2755
53.2966
53.3178
53.3388
53.3598
53.3807
53.4015
53.4222
53.4429
53.4635
53.484
53.5044
53.5247
53.5449
53.565
53.585
53.6049
53.6248
53.6445
53.6641
53.6836
53.703
53.7223
53.7415
53.7606
53.7795
53.7983
53.8171
53.8356
53.8541
53.8725
53.8907
53.9088
53.9268
53.9448
53.9621
53.9803
53.997
54.0152
54.0317
54.0492
54.066
54.0827
54.0998
54.1158
54.1325
54.1488
54.1648
54.1808
51.0193
51.0213
51.0241
51.027
51.0296
51.0322
51.0349
51.0378
51.0407
51.0437
51.047
51.0504
51.054
51.0579
51.0619
51.0662
51.0707
51.0754
51.0803
51.0854
51.0908
51.0963
51.1021
51.1081
51.1143
51.1207
51.1274
51.1342
51.1413
51.1486
51.1561
51.1638
51.1717
51.1799
51.1883
51.1968
51.2056
51.2146
51.2239
51.2333
51.243
51.2529
51.263
51.2733
51.2838
51.2945
51.3054
51.3166
51.328
51.3396
51.3513
51.3633
51.3755
51.388
51.4006
51.4134
51.4264
51.4397
51.4531
51.4667
51.4805
51.4946
51.5088
51.5232
51.5378
51.5527
51.5678
51.583
51.5985
51.6141
51.6299
51.6459
51.662
51.6784
51.6948
51.7115
51.7283
51.7453
51.7625
51.7799
51.7974
51.8151
51.833
51.851
51.8691
51.8875
51.906
51.9247
51.9435
51.9624
51.9815
52.0007
52.0201
52.0395
52.0591
52.0788
52.0986
52.1185
52.1385
52.1586
52.1789
52.1993
52.2197
52.2403
52.261
52.2818
52.3027
52.3237
52.3447
52.3658
52.387
52.4082
52.4295
52.4509
52.4723
52.4938
52.5153
52.5369
52.5585
52.5802
52.6019
52.6236
52.6454
52.6672
52.689
52.7109
52.7328
52.7546
52.7765
52.7984
52.8203
52.8422
52.8641
52.886
52.9079
52.9298
52.9517
52.9735
52.9953
53.0171
53.0389
53.0606
53.0823
53.1039
53.1256
53.1471
53.1687
53.1901
53.2115
53.2329
53.2542
53.2755
53.2966
53.3178
53.3388
53.3598
53.3807
53.4015
53.4222
53.4429
53.4635
53.484
53.5044
53.5247
53.5449
53.565
53.585
53.6049
53.6248
53.6445
53.6641
53.6836
53.703
53.7223
53.7415
53.7606
53.7795
53.7984
53.817
53.8357
53.854
53.8726
53.8905
53.9091
53.9265
53.945
53.9621
53.9803
53.9971
54.0152
54.0315
54.0496
54.0654
54.0835
54.0988
54.1166
54.1318
54.1493
54.1642
54.1811
51.0193
51.0213
51.0241
51.027
51.0296
51.0322
51.0349
51.0378
51.0407
51.0437
51.047
51.0504
51.054
51.0579
51.0619
51.0662
51.0707
51.0754
51.0803
51.0854
51.0908
51.0963
51.1021
51.1081
51.1143
51.1207
51.1274
51.1342
51.1413
51.1486
51.1561
51.1638
51.1717
51.1799
51.1883
51.1968
51.2056
51.2147
51.2239
51.2333
51.243
51.2529
51.263
51.2733
51.2838
51.2945
51.3055
51.3166
51.328
51.3396
51.3513
51.3633
51.3755
51.388
51.4006
51.4134
51.4265
51.4397
51.4531
51.4667
51.4805
51.4946
51.5088
51.5232
51.5378
51.5527
51.5678
51.583
51.5985
51.6141
51.6299
51.6459
51.662
51.6784
51.6948
51.7115
51.7283
51.7453
51.7625
51.7799
51.7974
51.8151
51.833
51.851
51.8691
51.8875
51.906
51.9247
51.9435
51.9624
51.9815
52.0007
52.0201
52.0395
52.0591
52.0788
52.0986
52.1185
52.1385
52.1586
52.1789
52.1993
52.2197
52.2403
52.2611
52.2818
52.3027
52.3237
52.3447
52.3658
52.387
52.4082
52.4295
52.4509
52.4723
52.4938
52.5153
52.5369
52.5585
52.5802
52.6019
52.6236
52.6454
52.6672
52.689
52.7109
52.7328
52.7546
52.7765
52.7984
52.8203
52.8422
52.8641
52.886
52.9079
52.9298
52.9517
52.9735
52.9953
53.0171
53.0389
53.0606
53.0823
53.1039
53.1256
53.1471
53.1687
53.1901
53.2115
53.2329
53.2542
53.2755
53.2966
53.3178
53.3388
53.3598
53.3807
53.4015
53.4222
53.4429
53.4635
53.484
53.5044
53.5247
53.5449
53.565
53.585
53.6049
53.6248
53.6445
53.6641
53.6836
53.703
53.7223
53.7415
53.7606
53.7795
53.7984
53.817
53.8357
53.854
53.8727
53.8905
53.9091
53.9265
53.945
53.962
53.9804
53.997
54.0153
54.0315
54.0496
54.0654
54.0835
54.0988
54.1166
54.1318
54.1494
54.1633
54.1813
51.0193
51.0213
51.0241
51.027
51.0296
51.0322
51.0349
51.0378
51.0407
51.0437
51.047
51.0504
51.054
51.0579
51.0619
51.0662
51.0707
51.0754
51.0803
51.0854
51.0908
51.0963
51.1021
51.1081
51.1143
51.1207
51.1274
51.1342
51.1413
51.1486
51.1561
51.1638
51.1717
51.1799
51.1883
51.1968
51.2056
51.2147
51.2239
51.2333
51.243
51.2529
51.263
51.2733
51.2838
51.2945
51.3055
51.3166
51.328
51.3396
51.3513
51.3633
51.3755
51.388
51.4006
51.4134
51.4265
51.4397
51.4531
51.4667
51.4805
51.4946
51.5088
51.5232
51.5378
51.5527
51.5678
51.583
51.5985
51.6141
51.6299
51.6459
51.662
51.6784
51.6948
51.7115
51.7283
51.7453
51.7625
51.7799
51.7974
51.8151
51.833
51.851
51.8691
51.8875
51.906
51.9247
51.9435
51.9624
51.9815
52.0007
52.0201
52.0395
52.0591
52.0788
52.0986
52.1185
52.1385
52.1586
52.1789
52.1993
52.2197
52.2403
52.261
52.2818
52.3027
52.3237
52.3447
52.3658
52.387
52.4082
52.4295
52.4509
52.4723
52.4938
52.5153
52.5369
52.5585
52.5802
52.6019
52.6236
52.6454
52.6672
52.689
52.7109
52.7328
52.7546
52.7765
52.7984
52.8203
52.8422
52.8641
52.886
52.9079
52.9298
52.9517
52.9735
52.9953
53.0171
53.0389
53.0606
53.0823
53.1039
53.1256
53.1471
53.1687
53.1901
53.2115
53.2329
53.2542
53.2755
53.2966
53.3178
53.3388
53.3598
53.3807
53.4015
53.4222
53.4429
53.4635
53.484
53.5044
53.5247
53.5449
53.565
53.585
53.6049
53.6248
53.6445
53.6641
53.6836
53.703
53.7223
53.7415
53.7606
53.7795
53.7984
53.817
53.8357
53.854
53.8727
53.8905
53.9091
53.9265
53.945
53.962
53.9804
53.997
54.0153
54.0314
54.0497
54.0654
54.0834
54.0988
54.1166
54.1318
54.1494
54.163
54.1813
51.0183
51.0202
51.0231
51.026
51.0286
51.0312
51.0339
51.0368
51.0397
51.0427
51.046
51.0494
51.053
51.0569
51.0609
51.0652
51.0697
51.0744
51.0793
51.0845
51.0898
51.0954
51.1011
51.1071
51.1133
51.1198
51.1264
51.1333
51.1403
51.1476
51.1551
51.1629
51.1708
51.1789
51.1873
51.1959
51.2047
51.2137
51.223
51.2324
51.2421
51.252
51.262
51.2724
51.2829
51.2936
51.3045
51.3157
51.3271
51.3387
51.3505
51.3625
51.3747
51.3871
51.3997
51.4125
51.4256
51.4388
51.4522
51.4659
51.4797
51.4937
51.5079
51.5224
51.537
51.5519
51.5669
51.5822
51.5977
51.6133
51.6291
51.6451
51.6612
51.6775
51.694
51.7107
51.7275
51.7445
51.7617
51.7791
51.7966
51.8143
51.8322
51.8502
51.8684
51.8867
51.9052
51.9239
51.9427
51.9617
51.9808
52
52.0193
52.0388
52.0584
52.078
52.0978
52.1177
52.1378
52.1579
52.1782
52.1985
52.219
52.2397
52.2604
52.2812
52.302
52.323
52.344
52.3651
52.3863
52.4076
52.4289
52.4502
52.4717
52.4931
52.5147
52.5363
52.5579
52.5796
52.6013
52.623
52.6448
52.6666
52.6884
52.7103
52.7321
52.754
52.7759
52.7978
52.8197
52.8416
52.8635
52.8854
52.9073
52.9291
52.951
52.9728
52.9947
53.0165
53.0382
53.0599
53.0816
53.1033
53.1249
53.1465
53.168
53.1895
53.2109
53.2323
53.2536
53.2748
53.296
53.3171
53.3381
53.3591
53.38
53.4008
53.4216
53.4422
53.4628
53.4833
53.5037
53.524
53.5442
53.5643
53.5844
53.6043
53.6241
53.6438
53.6635
53.683
53.7024
53.7217
53.7408
53.7599
53.7788
53.7977
53.8163
53.8351
53.8534
53.872
53.8899
53.9084
53.9259
53.9443
53.9614
53.9798
53.9963
54.0147
54.0308
54.049
54.0647
54.0828
54.0982
54.116
54.1311
54.1487
54.162
54.1817
54.1912
54.195
54.1979
54.2003
54.2025
54.2047
54.2072
54.21
54.2128
54.2157
54.2185
54.2214
54.2242
54.227
54.2297
54.2323
54.2349
54.2376
54.2402
54.243
54.1907
54.1946
54.1978
54.2006
54.2033
54.2059
54.2085
54.2111
54.2137
54.2164
54.2191
54.222
54.2248
54.2277
54.2305
54.2333
54.236
54.2387
54.2414
54.2442
54.1904
54.1945
54.1977
54.2007
54.2034
54.2061
54.2088
54.2114
54.2139
54.2167
54.2192
54.2221
54.2247
54.2277
54.2305
54.2335
54.2362
54.2392
54.2418
54.2446
54.1902
54.1936
54.1967
54.1997
54.2026
54.2056
54.2084
54.2113
54.2139
54.2167
54.2191
54.2217
54.224
54.2265
54.2288
54.2313
54.2336
54.2362
54.2387
54.2415
54.1909
54.1945
54.1977
54.2009
54.2038
54.2067
54.2095
54.2124
54.2153
54.2181
54.221
54.2238
54.2267
54.2295
54.2324
54.2351
54.238
54.2407
54.2433
54.2458
54.1889
54.1914
54.1937
54.1963
54.1991
54.2019
54.2047
54.2077
54.2105
54.2133
54.216
54.2187
54.2213
54.2239
54.2263
54.2288
54.231
54.2334
54.2358
54.2385
54.1897
54.1924
54.1952
54.1982
54.201
54.2038
54.2065
54.2094
54.2123
54.2152
54.2181
54.221
54.2239
54.2268
54.2297
54.2328
54.2357
54.2389
54.242
54.245
54.1868
54.1877
54.1889
54.1907
54.1931
54.1959
54.1988
54.2018
54.2049
54.208
54.2111
54.2142
54.2172
54.2203
54.2234
54.2265
54.2297
54.2331
54.2364
54.2399
54.187
54.1883
54.1901
54.1924
54.195
54.1979
54.2009
54.204
54.2071
54.2104
54.2136
54.2169
54.2202
54.2235
54.2268
54.2301
54.2335
54.237
54.2404
54.2439
54.1869
54.1872
54.1888
54.1909
54.1935
54.1963
54.1993
54.2023
54.2055
54.2085
54.2117
54.2148
54.218
54.2211
54.2244
54.2277
54.2311
54.2345
54.238
54.2414
54.2479
54.2585
54.2706
54.2824
54.2938
54.305
54.3163
54.3278
54.3393
54.3507
54.3617
54.3725
54.3833
54.3941
54.4049
54.4156
54.4263
54.4368
54.4473
54.4576
54.4678
54.478
54.4881
54.4981
54.508
54.5178
54.5275
54.5372
54.5467
54.5562
54.5656
54.5749
54.5841
54.5933
54.6023
54.6112
54.6201
54.6289
54.6376
54.6462
54.6548
54.6632
54.6716
54.6799
54.6881
54.6962
54.7042
54.7122
54.72
54.7278
54.7355
54.7431
54.7506
54.758
54.7653
54.7726
54.7798
54.7869
54.794
54.8009
54.8078
54.8146
54.8213
54.8279
54.8344
54.8409
54.8473
54.8536
54.8599
54.866
54.8721
54.878
54.884
54.8898
54.8956
54.9013
54.9069
54.9124
54.9178
54.9232
54.9284
54.9336
54.9387
54.9438
54.9488
54.9537
54.9585
54.9633
54.968
54.9726
54.9772
54.9817
54.9861
54.9905
54.9948
54.999
55.0031
55.0072
55.0112
55.0151
55.019
55.0228
55.0266
55.0302
55.0338
55.0373
55.0408
55.0442
55.0477
55.051
55.0542
55.0573
55.0604
55.0635
55.0666
55.0698
55.0731
55.0763
55.0794
55.0822
55.0846
55.087
55.0901
55.0941
55.0982
55.1017
55.1033
55.0977
55.0736
55.0396
55.0061
54.9754
54.9494
54.9295
54.917
54.9124
54.9137
54.917
54.9261
54.9555
55.0028
55.0443
55.0774
55.1013
55.1175
55.1281
55.1353
55.1404
55.1435
55.1449
55.1443
55.1438
55.1438
55.1441
55.1445
55.1451
55.1458
55.1465
55.1472
55.1479
55.1486
55.1493
55.15
55.1507
55.1514
55.1521
55.1527
55.1533
55.1539
55.1545
55.1551
55.1557
55.1562
55.1568
55.1572
55.1579
55.1581
55.1589
55.159
55.1598
55.1598
55.1607
55.1606
55.1615
55.1613
55.1622
55.162
55.1629
55.1627
55.1635
55.1633
55.164
55.1638
55.1646
55.1643
55.165
55.1647
55.1655
55.1648
55.1654
54.2496
54.26
54.2716
54.2835
54.2951
54.3064
54.3177
54.3292
54.3407
54.3522
54.3633
54.3743
54.3851
54.3958
54.4066
54.4174
54.428
54.4386
54.4491
54.4594
54.4697
54.4799
54.49
54.4999
54.5099
54.5197
54.5294
54.5391
54.5486
54.5581
54.5675
54.5768
54.5861
54.5952
54.6042
54.6132
54.622
54.6308
54.6395
54.6481
54.6567
54.6652
54.6735
54.6818
54.69
54.6982
54.7062
54.7141
54.722
54.7298
54.7374
54.7451
54.7526
54.76
54.7673
54.7746
54.7818
54.7889
54.7959
54.8029
54.8098
54.8166
54.8233
54.8299
54.8364
54.8429
54.8493
54.8556
54.8618
54.868
54.8741
54.8801
54.886
54.8918
54.8976
54.9032
54.9089
54.9144
54.9199
54.9252
54.9305
54.9357
54.9408
54.9458
54.9508
54.9557
54.9606
54.9653
54.97
54.9747
54.9792
54.9837
54.9881
54.9925
54.9968
55.001
55.0052
55.0092
55.0132
55.0172
55.021
55.0248
55.0286
55.0322
55.0358
55.0394
55.0428
55.0462
55.0495
55.0528
55.0561
55.0592
55.0623
55.0654
55.0685
55.0715
55.0746
55.0776
55.0804
55.083
55.0855
55.0879
55.0905
55.0937
55.0974
55.1016
55.1055
55.1093
55.1133
55.1178
55.1223
55.1263
55.1288
55.1287
55.1243
55.1187
55.113
55.1077
55.1035
55.1008
55.1016
55.1039
55.1074
55.1128
55.1189
55.1247
55.1299
55.1344
55.1379
55.1401
55.1414
55.1422
55.1431
55.1439
55.1447
55.1455
55.1462
55.147
55.1477
55.1485
55.1492
55.1499
55.1506
55.1513
55.152
55.1526
55.1533
55.1539
55.1545
55.1551
55.1557
55.1563
55.1568
55.1574
55.1578
55.1584
55.1587
55.1595
55.1595
55.1604
55.1604
55.1612
55.1612
55.162
55.1619
55.1627
55.1626
55.1634
55.1633
55.164
55.1639
55.1646
55.1644
55.1651
55.1649
55.1656
55.1653
55.166
55.1656
55.166
54.2499
54.2601
54.2716
54.2835
54.295
54.3063
54.3175
54.3289
54.3404
54.3518
54.363
54.3739
54.3847
54.3955
54.4063
54.4171
54.4278
54.4383
54.4488
54.4591
54.4694
54.4796
54.4896
54.4996
54.5095
54.5194
54.5291
54.5387
54.5483
54.5578
54.5672
54.5765
54.5857
54.5949
54.6039
54.6129
54.6217
54.6305
54.6392
54.6478
54.6564
54.6648
54.6732
54.6815
54.6897
54.6978
54.7058
54.7138
54.7216
54.7294
54.7371
54.7447
54.7522
54.7597
54.767
54.7743
54.7814
54.7886
54.7956
54.8026
54.8094
54.8162
54.823
54.8296
54.8361
54.8426
54.849
54.8553
54.8615
54.8677
54.8738
54.8798
54.8857
54.8915
54.8972
54.9029
54.9085
54.9141
54.9195
54.9249
54.9302
54.9354
54.9405
54.9455
54.9505
54.9554
54.9603
54.965
54.9697
54.9744
54.9789
54.9834
54.9879
54.9922
54.9965
55.0007
55.0049
55.0089
55.013
55.0169
55.0207
55.0245
55.0283
55.032
55.0355
55.0391
55.0425
55.0459
55.0493
55.0525
55.0557
55.0589
55.062
55.0651
55.068
55.0711
55.0741
55.0772
55.0801
55.0828
55.0852
55.0874
55.0896
55.0925
55.0964
55.1011
55.1064
55.112
55.1175
55.1227
55.1275
55.132
55.136
55.1388
55.1398
55.1376
55.1344
55.1308
55.1273
55.1243
55.1222
55.1211
55.1213
55.1226
55.1248
55.1276
55.1306
55.1334
55.1359
55.138
55.1397
55.1412
55.1424
55.1435
55.1444
55.1453
55.1461
55.1469
55.1477
55.1484
55.1492
55.1499
55.1506
55.1513
55.152
55.1526
55.1533
55.1539
55.1545
55.1551
55.1557
55.1563
55.1568
55.1574
55.1578
55.1584
55.1587
55.1595
55.1595
55.1604
55.1604
55.1612
55.1612
55.162
55.1619
55.1627
55.1626
55.1634
55.1633
55.164
55.1639
55.1646
55.1644
55.1651
55.1649
55.1656
55.1653
55.166
55.1658
55.1662
54.2479
54.2588
54.2698
54.2811
54.2926
54.3039
54.3149
54.3259
54.3369
54.3479
54.359
54.37
54.3808
54.3914
54.402
54.4126
54.4231
54.4337
54.4441
54.4544
54.4647
54.4748
54.4849
54.4949
54.5048
54.5146
54.5243
54.5339
54.5435
54.553
54.5624
54.5717
54.5809
54.59
54.5991
54.608
54.6169
54.6257
54.6344
54.643
54.6516
54.66
54.6684
54.6767
54.6849
54.693
54.701
54.709
54.7168
54.7246
54.7323
54.7399
54.7474
54.7548
54.7621
54.7694
54.7766
54.7837
54.7908
54.7977
54.8046
54.8114
54.8181
54.8247
54.8313
54.8377
54.8441
54.8505
54.8567
54.8628
54.8689
54.8749
54.8808
54.8867
54.8924
54.8981
54.9037
54.9092
54.9147
54.92
54.9253
54.9305
54.9356
54.9407
54.9457
54.9506
54.9554
54.9602
54.9649
54.9695
54.9741
54.9786
54.983
54.9874
54.9917
54.9959
55
55.0041
55.0081
55.0121
55.0159
55.0197
55.0235
55.0272
55.0308
55.0344
55.0379
55.0413
55.0446
55.048
55.0513
55.0545
55.0578
55.0611
55.0643
55.0675
55.0707
55.0735
55.0761
55.0787
55.0813
55.0842
55.0877
55.0917
55.0961
55.1004
55.1044
55.1083
55.1122
55.1159
55.1192
55.1218
55.1235
55.1243
55.1245
55.1244
55.1243
55.1241
55.1241
55.1244
55.1251
55.1261
55.1274
55.129
55.1307
55.1324
55.1341
55.1357
55.1372
55.1386
55.1398
55.141
55.142
55.143
55.144
55.1449
55.1458
55.1466
55.1474
55.1482
55.149
55.1498
55.1505
55.1512
55.1519
55.1526
55.1532
55.1539
55.1545
55.1551
55.1557
55.1562
55.1568
55.1573
55.1578
55.1584
55.1587
55.1594
55.1596
55.1603
55.1605
55.1611
55.1613
55.162
55.1619
55.1628
55.1626
55.1634
55.1633
55.164
55.1639
55.1646
55.1644
55.1651
55.1649
55.1656
55.1653
55.166
55.166
55.1662
54.2521
54.263
54.2742
54.2854
54.2967
54.308
54.3195
54.3309
54.3423
54.3536
54.3646
54.3755
54.3864
54.3972
54.4079
54.4186
54.4292
54.4397
54.4501
54.4604
54.4706
54.4808
54.4909
54.5009
54.5108
54.5207
54.5304
54.5401
54.5497
54.5591
54.5685
54.5778
54.5871
54.5962
54.6053
54.6142
54.6231
54.6319
54.6406
54.6492
54.6578
54.6662
54.6746
54.6828
54.691
54.6992
54.7072
54.7151
54.723
54.7308
54.7384
54.7461
54.7536
54.761
54.7684
54.7757
54.7829
54.79
54.797
54.8039
54.8108
54.8176
54.8243
54.8309
54.8375
54.8439
54.8503
54.8566
54.8629
54.869
54.8751
54.881
54.887
54.8928
54.8986
54.9042
54.9098
54.9153
54.9208
54.9262
54.9315
54.9367
54.9418
54.9469
54.9519
54.9568
54.9616
54.9664
54.9711
54.9757
54.9802
54.9847
54.9891
54.9935
54.9977
55.0019
55.0061
55.0101
55.0141
55.018
55.0219
55.0257
55.0294
55.0331
55.0367
55.0402
55.0436
55.047
55.0503
55.0536
55.0568
55.0599
55.063
55.066
55.0689
55.0718
55.0747
55.0774
55.0802
55.083
55.0857
55.0881
55.0904
55.0927
55.0952
55.0979
55.1008
55.1038
55.1069
55.1099
55.1128
55.1155
55.1177
55.1196
55.1212
55.1225
55.1237
55.1247
55.1258
55.1268
55.1279
55.1291
55.1303
55.1315
55.1328
55.134
55.1352
55.1364
55.1376
55.1387
55.1398
55.1408
55.1419
55.1428
55.1438
55.1447
55.1456
55.1465
55.1473
55.1481
55.1489
55.1497
55.1505
55.1512
55.1519
55.1526
55.1532
55.1539
55.1545
55.1551
55.1557
55.1562
55.1568
55.1573
55.1578
55.1583
55.1589
55.1592
55.1598
55.1601
55.1606
55.1611
55.1613
55.1619
55.162
55.1626
55.1628
55.1632
55.1636
55.1636
55.1643
55.1642
55.1647
55.1649
55.165
55.1655
55.1656
55.1657
55.1659
55.1662
54.2461
54.2574
54.268
54.2783
54.2885
54.2988
54.3091
54.3196
54.3301
54.3406
54.351
54.3615
54.372
54.3825
54.3929
54.4034
54.4139
54.4243
54.4347
54.445
54.4552
54.4653
54.4754
54.4854
54.4953
54.5051
54.5148
54.5244
54.534
54.5435
54.5529
54.5622
54.5714
54.5805
54.5896
54.5985
54.6074
54.6161
54.6248
54.6335
54.642
54.6505
54.6589
54.6671
54.6754
54.6835
54.6915
54.6995
54.7073
54.7151
54.7227
54.7303
54.7378
54.7453
54.7526
54.7599
54.7671
54.7742
54.7813
54.7882
54.7951
54.8019
54.8086
54.8153
54.8218
54.8283
54.8347
54.841
54.8473
54.8534
54.8595
54.8655
54.8714
54.8773
54.883
54.8887
54.8943
54.8998
54.9053
54.9106
54.9159
54.9212
54.9263
54.9314
54.9364
54.9414
54.9463
54.9511
54.9559
54.9606
54.9653
54.9699
54.9744
54.9788
54.9832
54.9876
54.9919
54.9962
55.0004
55.0045
55.0086
55.0126
55.0165
55.0203
55.0242
55.028
55.0318
55.0356
55.0393
55.043
55.0466
55.0502
55.0535
55.0567
55.0598
55.0627
55.0656
55.0687
55.072
55.0755
55.0793
55.0832
55.0873
55.0914
55.0952
55.0988
55.1021
55.1052
55.1082
55.111
55.1136
55.1159
55.118
55.1199
55.1214
55.1227
55.1238
55.1248
55.1257
55.1266
55.1276
55.1286
55.1297
55.1309
55.1321
55.1333
55.1345
55.1357
55.1369
55.1381
55.1392
55.1403
55.1414
55.1424
55.1434
55.1444
55.1453
55.1462
55.1471
55.148
55.1488
55.1496
55.1504
55.1511
55.1518
55.1525
55.1532
55.1538
55.1545
55.1551
55.1557
55.1562
55.1568
55.1572
55.1579
55.1582
55.1589
55.1592
55.1599
55.16
55.1608
55.1608
55.1616
55.1616
55.1624
55.1623
55.1631
55.163
55.1637
55.1636
55.1643
55.1641
55.1649
55.1647
55.1653
55.1651
55.1658
55.1655
55.1661
55.166
54.2547
54.2675
54.2795
54.2912
54.3027
54.3142
54.3256
54.337
54.3483
54.3595
54.3706
54.3816
54.3926
54.4035
54.4143
54.425
54.4356
54.4461
54.4566
54.4669
54.4772
54.4874
54.4975
54.5075
54.5175
54.5274
54.5371
54.5468
54.5564
54.566
54.5754
54.5847
54.5939
54.6031
54.6122
54.6211
54.63
54.6388
54.6475
54.6561
54.6647
54.6732
54.6815
54.6898
54.698
54.7061
54.7141
54.7221
54.7299
54.7377
54.7454
54.753
54.7605
54.7679
54.7753
54.7826
54.7898
54.7969
54.8039
54.8108
54.8177
54.8245
54.8312
54.8378
54.8444
54.8508
54.8572
54.8635
54.8697
54.8758
54.8819
54.8879
54.8938
54.8997
54.9054
54.9111
54.9167
54.9222
54.9276
54.933
54.9383
54.9435
54.9486
54.9537
54.9587
54.9636
54.9685
54.9732
54.9779
54.9825
54.9871
54.9916
54.996
55.0004
55.0047
55.0089
55.0131
55.0171
55.0211
55.0251
55.029
55.0328
55.0365
55.0402
55.0438
55.0473
55.0508
55.0543
55.0576
55.0608
55.064
55.0672
55.0704
55.0734
55.0763
55.0791
55.082
55.085
55.0877
55.0901
55.0926
55.0951
55.0975
55.0999
55.1024
55.1048
55.1069
55.1086
55.1101
55.1117
55.1132
55.115
55.1174
55.1203
55.1238
55.1269
55.1295
55.1312
55.132
55.1323
55.1323
55.1325
55.1327
55.1332
55.1338
55.1345
55.1354
55.1363
55.1373
55.1384
55.1394
55.1404
55.1414
55.1425
55.1434
55.1444
55.1453
55.1462
55.1471
55.148
55.1488
55.1496
55.1503
55.1511
55.1518
55.1525
55.1532
55.1538
55.1545
55.1551
55.1557
55.1562
55.1568
55.1573
55.1579
55.1582
55.1589
55.1591
55.1599
55.16
55.1608
55.1608
55.1616
55.1616
55.1624
55.1623
55.1631
55.163
55.1637
55.1636
55.1643
55.1641
55.1649
55.1647
55.1653
55.1652
55.1658
55.1657
55.1659
55.166
54.2511
54.2629
54.2736
54.2837
54.2936
54.3035
54.3135
54.3235
54.3335
54.3435
54.3535
54.3636
54.3737
54.3838
54.3941
54.4043
54.4147
54.425
54.4353
54.4455
54.4557
54.4658
54.4759
54.4859
54.4958
54.5056
54.5154
54.525
54.5346
54.544
54.5534
54.5628
54.572
54.5811
54.5902
54.5991
54.608
54.6168
54.6255
54.6341
54.6426
54.6511
54.6594
54.6677
54.6759
54.6841
54.6921
54.7001
54.7079
54.7157
54.7234
54.731
54.7385
54.7459
54.7533
54.7606
54.7678
54.775
54.7821
54.7891
54.796
54.8028
54.8096
54.8162
54.8229
54.8294
54.8358
54.8422
54.8485
54.8547
54.8608
54.8669
54.8729
54.8788
54.8846
54.8903
54.8959
54.9014
54.9068
54.9121
54.9174
54.9226
54.9277
54.9327
54.9377
54.9426
54.9474
54.9522
54.957
54.9617
54.9663
54.9709
54.9754
54.9799
54.9843
54.9886