/*--------------------------------*- C++ -*----------------------------------*\
| =========                 |                                                 |
| \\      /  F ield         | OpenFOAM: The Open Source CFD Toolbox           |
|  \\    /   O peration     | Version:  3.0.x                                 |
|   \\  /    A nd           | Web:      www.OpenFOAM.org                      |
|    \\/     M anipulation  |                                                 |
\*---------------------------------------------------------------------------*/
FoamFile
{
    version     2.0;
    format      ascii;
    class       volVectorField;
    location    "0.530075";
    object      U;
}
// * * * * * * * * * * * * * * * * * * * * * * * * * * * * * * * * * * * * * //

dimensions      [0 1 -1 0 0 0 0];

internalField   nonuniform List<vector> 
13800
(
(57.8368 0.000141596 0)
(57.6813 0.000123684 0)
(57.4972 0.000122689 0)
(57.3245 0.000124977 0)
(57.16 0.000126945 0)
(56.9961 0.000128576 0)
(56.8303 0.00012997 0)
(56.6634 0.000131067 0)
(56.4959 0.000131978 0)
(56.3279 0.000132735 0)
(56.1593 0.000133368 0)
(55.99 0.000133903 0)
(55.82 0.00013436 0)
(55.6494 0.000134754 0)
(55.478 0.000135095 0)
(55.3059 0.000135395 0)
(55.1331 0.000135659 0)
(54.9595 0.000135894 0)
(54.7851 0.000136104 0)
(54.61 0.000136293 0)
(54.434 0.000136465 0)
(54.2573 0.000136622 0)
(54.0797 0.000136767 0)
(53.9012 0.000136901 0)
(53.7219 0.000137025 0)
(53.5417 0.000137143 0)
(53.3605 0.000137253 0)
(53.1785 0.000137359 0)
(52.9956 0.000137459 0)
(52.8117 0.000137557 0)
(52.6268 0.000137651 0)
(52.441 0.000137742 0)
(52.2541 0.000137831 0)
(52.0663 0.000137919 0)
(51.8775 0.000138006 0)
(51.6876 0.000138092 0)
(51.4967 0.000138178 0)
(51.3048 0.000138264 0)
(51.1118 0.000138349 0)
(50.9177 0.000138436 0)
(50.7225 0.000138522 0)
(50.5262 0.000138609 0)
(50.3288 0.000138698 0)
(50.1303 0.000138787 0)
(49.9306 0.000138878 0)
(49.7298 0.000138969 0)
(49.5279 0.000139061 0)
(49.3248 0.000139154 0)
(49.1204 0.000139248 0)
(48.915 0.000139344 0)
(48.7083 0.000139442 0)
(48.5004 0.000139543 0)
(48.2913 0.000139648 0)
(48.0809 0.000139753 0)
(47.8694 0.000139859 0)
(47.6566 0.000139963 0)
(47.4426 0.000140067 0)
(47.2273 0.000140172 0)
(47.0107 0.000140284 0)
(46.7929 0.000140399 0)
(46.5739 0.000140517 0)
(46.3536 0.000140635 0)
(46.1319 0.000140754 0)
(45.9091 0.000140874 0)
(45.6849 0.000140997 0)
(45.4595 0.000141125 0)
(45.2328 0.000141257 0)
(45.0048 0.000141397 0)
(44.7755 0.000141539 0)
(44.545 0.000141682 0)
(44.3131 0.000141823 0)
(44.08 0.000141961 0)
(43.8456 0.000142099 0)
(43.61 0.00014224 0)
(43.3731 0.000142381 0)
(43.1349 0.000142524 0)
(42.8954 0.00014267 0)
(42.6547 0.00014282 0)
(42.4128 0.000142969 0)
(42.1696 0.00014312 0)
(41.9252 0.00014327 0)
(41.6796 0.000143417 0)
(41.4328 0.000143562 0)
(41.1848 0.000143707 0)
(40.9355 0.000143853 0)
(40.6852 0.000144002 0)
(40.4336 0.000144151 0)
(40.1809 0.000144294 0)
(39.9271 0.000144431 0)
(39.6721 0.000144559 0)
(39.4161 0.000144673 0)
(39.159 0.000144759 0)
(38.9008 0.000144807 0)
(38.6416 0.000144813 0)
(38.3813 0.000144773 0)
(38.1201 0.000144677 0)
(37.8579 0.000144509 0)
(37.5948 0.00014425 0)
(37.3307 0.000143884 0)
(37.0657 0.000143398 0)
(36.7999 0.000142779 0)
(36.5332 0.00014201 0)
(36.2658 0.000141071 0)
(35.9976 0.000139934 0)
(35.7286 0.000138574 0)
(35.4589 0.000136967 0)
(35.1886 0.000135091 0)
(34.9177 0.00013293 0)
(34.6461 0.00013047 0)
(34.374 0.000127702 0)
(34.1015 0.000124624 0)
(33.8284 0.000121237 0)
(33.5549 0.000117551 0)
(33.2811 0.000113576 0)
(33.0069 0.000109331 0)
(32.7324 0.000104838 0)
(32.4576 0.000100126 0)
(32.1827 9.52296e-05 0)
(31.9075 9.01858e-05 0)
(31.6322 8.50365e-05 0)
(31.3569 7.98251e-05 0)
(31.0814 7.45961e-05 0)
(30.806 6.93942e-05 0)
(30.5305 6.42631e-05 0)
(30.2551 5.92445e-05 0)
(29.9798 5.4377e-05 0)
(29.7046 4.9695e-05 0)
(29.4295 4.52287e-05 0)
(29.1546 4.10029e-05 0)
(28.8799 3.70368e-05 0)
(28.6054 3.33443e-05 0)
(28.3312 2.99335e-05 0)
(28.0573 2.68075e-05 0)
(27.7838 2.39644e-05 0)
(27.5105 2.13979e-05 0)
(27.2377 1.90981e-05 0)
(26.9653 1.70518e-05 0)
(26.6933 1.52438e-05 0)
(26.4218 1.36569e-05 0)
(26.1507 1.22728e-05 0)
(25.8802 1.10729e-05 0)
(25.6103 1.00379e-05 0)
(25.341 9.14952e-06 0)
(25.0723 8.39017e-06 0)
(24.8043 7.7434e-06 0)
(24.5369 7.19397e-06 0)
(24.2703 6.72783e-06 0)
(24.0044 6.33232e-06 0)
(23.7393 5.99595e-06 0)
(23.475 5.70891e-06 0)
(23.2116 5.46252e-06 0)
(22.949 5.2495e-06 0)
(22.6873 5.06338e-06 0)
(22.4266 4.89863e-06 0)
(22.1669 4.75043e-06 0)
(21.9081 4.61486e-06 0)
(21.6504 4.48897e-06 0)
(21.3937 4.37023e-06 0)
(21.1381 4.25689e-06 0)
(20.8836 4.14716e-06 0)
(20.6303 4.0398e-06 0)
(20.3781 3.93381e-06 0)
(20.1271 3.82825e-06 0)
(19.8773 3.72263e-06 0)
(19.6287 3.61623e-06 0)
(19.3814 3.50875e-06 0)
(19.1354 3.40002e-06 0)
(18.8907 3.29035e-06 0)
(18.6473 3.17921e-06 0)
(18.4053 3.0671e-06 0)
(18.1646 2.95238e-06 0)
(17.9253 2.83772e-06 0)
(17.6875 2.7184e-06 0)
(17.4511 2.60224e-06 0)
(17.2161 2.47777e-06 0)
(16.9826 2.35991e-06 0)
(16.7505 2.23441e-06 0)
(16.52 2.10476e-06 0)
(16.291 1.99999e-06 0)
(16.0635 1.8217e-06 0)
(15.8376 1.78645e-06 0)
(15.6132 1.50157e-06 0)
(15.3905 1.59461e-06 0)
(15.1692 1.14655e-06 0)
(14.9497 1.42605e-06 0)
(14.7316 6.93599e-07 0)
(14.5153 1.30817e-06 0)
(14.3006 1.87002e-07 0)
(14.0875 1.21457e-06 0)
(13.8761 -1.22451e-07 0)
(13.6664 1.0714e-06 0)
(13.4582 -2.85213e-07 0)
(13.2519 1.98092e-06 0)
(13.0469 4.80432e-06 0)
(12.8434 2.58334e-05 0)
(12.6389 0.000115461 0)
(12.4256 0.000526345 0)
(12.1639 0.00233603 0)
(11.8615 0.0132178 0)
(9.95462 0.0358167 0)
(57.8407 0.000221067 0)
(57.6891 0.00016186 0)
(57.5089 0.000150122 0)
(57.34 0.000148324 0)
(57.1795 0.000146784 0)
(57.0195 0.000145568 0)
(56.8577 0.000144729 0)
(56.6947 0.000143968 0)
(56.5311 0.000143347 0)
(56.367 0.000142826 0)
(56.2024 0.000142385 0)
(56.037 0.000142012 0)
(55.871 0.000141697 0)
(55.7043 0.000141431 0)
(55.5368 0.000141209 0)
(55.3687 0.000141025 0)
(55.1998 0.000140873 0)
(55.0302 0.00014075 0)
(54.8598 0.000140654 0)
(54.6885 0.000140579 0)
(54.5165 0.000140525 0)
(54.3437 0.000140489 0)
(54.17 0.00014047 0)
(53.9955 0.000140465 0)
(53.8201 0.000140473 0)
(53.6439 0.000140494 0)
(53.4667 0.000140525 0)
(53.2886 0.000140568 0)
(53.1096 0.000140619 0)
(52.9297 0.000140679 0)
(52.7487 0.000140748 0)
(52.5669 0.000140824 0)
(52.384 0.000140907 0)
(52.2001 0.000140997 0)
(52.0153 0.000141093 0)
(51.8294 0.000141195 0)
(51.6424 0.000141303 0)
(51.4544 0.000141416 0)
(51.2654 0.000141534 0)
(51.0753 0.000141658 0)
(50.884 0.000141786 0)
(50.6917 0.000141918 0)
(50.4983 0.000142056 0)
(50.3037 0.000142198 0)
(50.108 0.000142344 0)
(49.9112 0.000142494 0)
(49.7132 0.000142647 0)
(49.5141 0.000142803 0)
(49.3137 0.000142962 0)
(49.1122 0.000143125 0)
(48.9095 0.000143293 0)
(48.7056 0.000143467 0)
(48.5005 0.000143647 0)
(48.2942 0.000143829 0)
(48.0866 0.000144012 0)
(47.8778 0.000144193 0)
(47.6677 0.000144372 0)
(47.4565 0.000144556 0)
(47.2439 0.000144749 0)
(47.0301 0.00014495 0)
(46.8151 0.000145152 0)
(46.5987 0.000145355 0)
(46.3812 0.000145558 0)
(46.1623 0.000145764 0)
(45.9422 0.000145975 0)
(45.7207 0.000146191 0)
(45.498 0.000146416 0)
(45.2741 0.00014665 0)
(45.0488 0.000146889 0)
(44.8223 0.000147126 0)
(44.5945 0.000147361 0)
(44.3654 0.000147591 0)
(44.1351 0.000147821 0)
(43.9035 0.000148055 0)
(43.6706 0.000148289 0)
(43.4365 0.000148527 0)
(43.2011 0.000148767 0)
(42.9644 0.000149014 0)
(42.7266 0.000149259 0)
(42.4874 0.000149508 0)
(42.2471 0.000149754 0)
(42.0056 0.000149995 0)
(41.7628 0.000150232 0)
(41.5188 0.000150469 0)
(41.2737 0.000150709 0)
(41.0274 0.000150956 0)
(40.7799 0.000151202 0)
(40.5313 0.000151441 0)
(40.2816 0.000151673 0)
(40.0307 0.000151898 0)
(39.7788 0.000152104 0)
(39.5258 0.000152275 0)
(39.2717 0.000152398 0)
(39.0165 0.000152471 0)
(38.7604 0.00015249 0)
(38.5033 0.000152446 0)
(38.2451 0.000152318 0)
(37.9861 0.000152082 0)
(37.7261 0.000151721 0)
(37.4652 0.000151223 0)
(37.2034 0.000150579 0)
(36.9407 0.000149769 0)
(36.6773 0.00014877 0)
(36.413 0.000147552 0)
(36.148 0.000146086 0)
(35.8822 0.000144344 0)
(35.6157 0.000142305 0)
(35.3485 0.000139952 0)
(35.0807 0.000137272 0)
(34.8122 0.000134259 0)
(34.5432 0.000130913 0)
(34.2736 0.000127241 0)
(34.0034 0.000123254 0)
(33.7328 0.000118969 0)
(33.4617 0.000114406 0)
(33.1902 0.000109593 0)
(32.9183 0.000104562 0)
(32.646 9.93522e-05 0)
(32.3735 9.40048e-05 0)
(32.1006 8.85655e-05 0)
(31.8275 8.30809e-05 0)
(31.5541 7.75978e-05 0)
(31.2806 7.21629e-05 0)
(31.007 6.68214e-05 0)
(30.7332 6.16156e-05 0)
(30.4594 5.65839e-05 0)
(30.1855 5.17603e-05 0)
(29.9117 4.71736e-05 0)
(29.6379 4.28473e-05 0)
(29.3642 3.87985e-05 0)
(29.0906 3.50388e-05 0)
(28.8172 3.15743e-05 0)
(28.5439 2.84056e-05 0)
(28.2709 2.55289e-05 0)
(27.9982 2.29357e-05 0)
(27.7258 2.06144e-05 0)
(27.4537 1.85505e-05 0)
(27.182 1.67273e-05 0)
(26.9107 1.5127e-05 0)
(26.6399 1.37303e-05 0)
(26.3696 1.2518e-05 0)
(26.0998 1.14703e-05 0)
(25.8305 1.05684e-05 0)
(25.5619 9.79457e-06 0)
(25.2939 9.13207e-06 0)
(25.0266 8.56557e-06 0)
(24.76 8.08081e-06 0)
(24.4941 7.66507e-06 0)
(24.229 7.30663e-06 0)
(23.9647 6.99572e-06 0)
(23.7012 6.7237e-06 0)
(23.4387 6.48349e-06 0)
(23.177 6.26869e-06 0)
(22.9162 6.07387e-06 0)
(22.6564 5.89417e-06 0)
(22.3976 5.7258e-06 0)
(22.1398 5.5661e-06 0)
(21.8831 5.41258e-06 0)
(21.6274 5.26383e-06 0)
(21.3729 5.11806e-06 0)
(21.1195 4.97417e-06 0)
(20.8672 4.8314e-06 0)
(20.6161 4.68861e-06 0)
(20.3662 4.54573e-06 0)
(20.1176 4.40182e-06 0)
(19.8702 4.25677e-06 0)
(19.6241 4.11049e-06 0)
(19.3793 3.96352e-06 0)
(19.1359 3.81527e-06 0)
(18.8937 3.66623e-06 0)
(18.653 3.51495e-06 0)
(18.4136 3.36325e-06 0)
(18.1757 3.2091e-06 0)
(17.9391 3.05313e-06 0)
(17.7041 2.90167e-06 0)
(17.4704 2.72813e-06 0)
(17.2383 2.60837e-06 0)
(17.0077 2.36084e-06 0)
(16.7785 2.36639e-06 0)
(16.5509 1.91612e-06 0)
(16.3249 2.2057e-06 0)
(16.1004 1.387e-06 0)
(15.8775 2.10494e-06 0)
(15.6561 8.24725e-07 0)
(15.4365 2.06352e-06 0)
(15.2183 1.76418e-07 0)
(15.0018 2.19713e-06 0)
(14.7869 -6.98622e-07 0)
(14.5738 2.4146e-06 0)
(14.3621 -1.32434e-06 0)
(14.1523 2.5892e-06 0)
(13.944 -7.78266e-07 0)
(13.7375 6.92421e-06 0)
(13.5324 1.62983e-05 0)
(13.3287 8.90106e-05 0)
(13.124 0.000394875 0)
(12.9105 0.00180311 0)
(12.6482 0.00800884 0)
(12.3354 0.0420077 0)
(10.5514 0.104742 0)
(57.8407 0.000162128 0)
(57.6891 0.000113254 0)
(57.5089 0.000107877 0)
(57.34 0.000111038 0)
(57.1795 0.000112215 0)
(57.0195 0.000112812 0)
(56.8577 0.000113384 0)
(56.6947 0.000113784 0)
(56.5311 0.000114115 0)
(56.367 0.000114393 0)
(56.2024 0.00011463 0)
(56.037 0.000114836 0)
(55.871 0.000115017 0)
(55.7043 0.00011518 0)
(55.5369 0.000115328 0)
(55.3687 0.000115466 0)
(55.1998 0.000115593 0)
(55.0302 0.000115714 0)
(54.8598 0.000115828 0)
(54.6886 0.000115938 0)
(54.5166 0.000116043 0)
(54.3438 0.000116146 0)
(54.1701 0.000116247 0)
(53.9956 0.000116345 0)
(53.8202 0.000116443 0)
(53.6439 0.000116539 0)
(53.4668 0.000116635 0)
(53.2887 0.00011673 0)
(53.1097 0.000116826 0)
(52.9298 0.000116922 0)
(52.7489 0.000117018 0)
(52.567 0.000117116 0)
(52.3841 0.000117213 0)
(52.2003 0.000117312 0)
(52.0154 0.000117412 0)
(51.8295 0.000117514 0)
(51.6426 0.000117616 0)
(51.4546 0.00011772 0)
(51.2656 0.000117826 0)
(51.0755 0.000117933 0)
(50.8843 0.000118042 0)
(50.6919 0.000118153 0)
(50.4985 0.000118266 0)
(50.304 0.00011838 0)
(50.1083 0.000118497 0)
(49.9115 0.000118615 0)
(49.7135 0.000118734 0)
(49.5144 0.000118855 0)
(49.3141 0.000118977 0)
(49.1126 0.000119102 0)
(48.9099 0.000119229 0)
(48.706 0.00011936 0)
(48.5009 0.000119495 0)
(48.2945 0.000119631 0)
(48.087 0.000119767 0)
(47.8782 0.000119902 0)
(47.6682 0.000120035 0)
(47.4569 0.000120172 0)
(47.2444 0.000120314 0)
(47.0306 0.000120462 0)
(46.8156 0.00012061 0)
(46.5993 0.000120758 0)
(46.3817 0.000120907 0)
(46.1628 0.000121059 0)
(45.9427 0.000121213 0)
(45.7213 0.000121372 0)
(45.4986 0.000121537 0)
(45.2747 0.000121708 0)
(45.0495 0.000121883 0)
(44.823 0.000122056 0)
(44.5952 0.000122227 0)
(44.3661 0.000122395 0)
(44.1358 0.000122563 0)
(43.9042 0.000122733 0)
(43.6714 0.000122903 0)
(43.4372 0.000123077 0)
(43.2019 0.000123251 0)
(42.9653 0.000123431 0)
(42.7274 0.000123609 0)
(42.4883 0.00012379 0)
(42.248 0.000123968 0)
(42.0065 0.000124143 0)
(41.7637 0.000124314 0)
(41.5198 0.000124485 0)
(41.2747 0.000124658 0)
(41.0284 0.000124835 0)
(40.7809 0.000125011 0)
(40.5324 0.00012518 0)
(40.2826 0.000125342 0)
(40.0318 0.000125496 0)
(39.7799 0.000125634 0)
(39.5269 0.000125741 0)
(39.2728 0.000125808 0)
(39.0177 0.000125832 0)
(38.7616 0.00012581 0)
(38.5045 0.000125732 0)
(38.2464 0.00012558 0)
(37.9874 0.000125336 0)
(37.7274 0.000124984 0)
(37.4665 0.000124516 0)
(37.2047 0.000123919 0)
(36.9421 0.000123179 0)
(36.6787 0.000122276 0)
(36.4144 0.000121184 0)
(36.1494 0.000119879 0)
(35.8836 0.000118341 0)
(35.6171 0.000116552 0)
(35.35 0.000114497 0)
(35.0821 0.000112169 0)
(34.8137 0.000109562 0)
(34.5446 0.000106678 0)
(34.275 0.000103524 0)
(34.0049 0.000100109 0)
(33.7342 9.64498e-05 0)
(33.4631 9.25656e-05 0)
(33.1916 8.84805e-05 0)
(32.9197 8.42233e-05 0)
(32.6474 7.98273e-05 0)
(32.3748 7.53289e-05 0)
(32.1019 7.07668e-05 0)
(31.8287 6.61805e-05 0)
(31.5553 6.16097e-05 0)
(31.2818 5.70934e-05 0)
(31.0081 5.26689e-05 0)
(30.7343 4.83708e-05 0)
(30.4604 4.42304e-05 0)
(30.1866 4.02749e-05 0)
(29.9127 3.65269e-05 0)
(29.6388 3.30045e-05 0)
(29.3651 2.97204e-05 0)
(29.0915 2.66827e-05 0)
(28.818 2.38947e-05 0)
(28.5447 2.13552e-05 0)
(28.2717 1.90594e-05 0)
(27.9989 1.6999e-05 0)
(27.7265 1.51626e-05 0)
(27.4544 1.35371e-05 0)
(27.1827 1.21076e-05 0)
(26.9114 1.08583e-05 0)
(26.6406 9.77251e-06 0)
(26.3702 8.83383e-06 0)
(26.1004 8.0256e-06 0)
(25.8312 7.33216e-06 0)
(25.5626 6.73881e-06 0)
(25.2946 6.23195e-06 0)
(25.0272 5.79916e-06 0)
(24.7606 5.429e-06 0)
(24.4947 5.11142e-06 0)
(24.2296 4.83718e-06 0)
(23.9653 4.5986e-06 0)
(23.7019 4.38908e-06 0)
(23.4393 4.20333e-06 0)
(23.1776 4.03657e-06 0)
(22.9168 3.88476e-06 0)
(22.657 3.74426e-06 0)
(22.3982 3.61239e-06 0)
(22.1405 3.48729e-06 0)
(21.8837 3.3671e-06 0)
(21.6281 3.25084e-06 0)
(21.3735 3.13729e-06 0)
(21.1201 3.02565e-06 0)
(20.8678 2.91552e-06 0)
(20.6168 2.80585e-06 0)
(20.3669 2.69691e-06 0)
(20.1182 2.58781e-06 0)
(19.8709 2.47864e-06 0)
(19.6248 2.36944e-06 0)
(19.38 2.2598e-06 0)
(19.1365 2.15134e-06 0)
(18.8944 2.03992e-06 0)
(18.6536 1.93365e-06 0)
(18.4143 1.81579e-06 0)
(18.1763 1.71965e-06 0)
(17.9398 1.58015e-06 0)
(17.7047 1.52246e-06 0)
(17.4711 1.31296e-06 0)
(17.2389 1.37669e-06 0)
(17.0083 9.62521e-07 0)
(16.7792 1.3393e-06 0)
(16.5516 4.60155e-07 0)
(16.3255 1.43414e-06 0)
(16.101 -1.52947e-07 0)
(15.8781 1.62948e-06 0)
(15.6568 -8.56527e-07 0)
(15.4371 2.00191e-06 0)
(15.2189 -1.86011e-06 0)
(15.0025 2.83798e-06 0)
(14.7876 -3.30568e-06 0)
(14.5744 3.81768e-06 0)
(14.3628 -4.32189e-06 0)
(14.153 4.33715e-06 0)
(13.9446 -3.17413e-06 0)
(13.7382 1.24725e-05 0)
(13.5331 2.9722e-05 0)
(13.3294 0.000173885 0)
(13.1249 0.00077378 0)
(12.9123 0.00355127 0)
(12.6541 0.015766 0)
(12.3583 0.0836396 0)
(10.6758 0.212123 0)
(57.8407 0.000118162 0)
(57.689 0.000102998 0)
(57.5088 0.000100417 0)
(57.34 0.000104512 0)
(57.1795 0.000106763 0)
(57.0194 0.000108127 0)
(56.8576 0.000109312 0)
(56.6947 0.000110265 0)
(56.5311 0.000111052 0)
(56.367 0.00011171 0)
(56.2023 0.000112265 0)
(56.037 0.000112738 0)
(55.871 0.000113145 0)
(55.7042 0.000113499 0)
(55.5368 0.00011381 0)
(55.3687 0.000114085 0)
(55.1998 0.00011433 0)
(55.0302 0.000114551 0)
(54.8598 0.000114751 0)
(54.6886 0.000114934 0)
(54.5166 0.000115101 0)
(54.3437 0.000115257 0)
(54.1701 0.000115402 0)
(53.9956 0.000115538 0)
(53.8202 0.000115666 0)
(53.6439 0.000115788 0)
(53.4667 0.000115905 0)
(53.2887 0.000116017 0)
(53.1097 0.000116125 0)
(52.9297 0.00011623 0)
(52.7488 0.000116333 0)
(52.567 0.000116434 0)
(52.3841 0.000116533 0)
(52.2003 0.000116631 0)
(52.0154 0.000116729 0)
(51.8295 0.000116825 0)
(51.6426 0.000116922 0)
(51.4546 0.000117019 0)
(51.2655 0.000117116 0)
(51.0754 0.000117213 0)
(50.8842 0.000117311 0)
(50.6919 0.00011741 0)
(50.4985 0.000117509 0)
(50.3039 0.00011761 0)
(50.1083 0.000117712 0)
(49.9115 0.000117814 0)
(49.7135 0.000117918 0)
(49.5143 0.000118023 0)
(49.314 0.000118128 0)
(49.1125 0.000118235 0)
(48.9098 0.000118345 0)
(48.7059 0.000118456 0)
(48.5008 0.000118571 0)
(48.2945 0.000118687 0)
(48.087 0.000118803 0)
(47.8782 0.000118919 0)
(47.6681 0.000119034 0)
(47.4569 0.000119151 0)
(47.2443 0.000119273 0)
(47.0306 0.000119399 0)
(46.8155 0.000119525 0)
(46.5992 0.000119652 0)
(46.3816 0.000119781 0)
(46.1628 0.000119911 0)
(45.9427 0.000120044 0)
(45.7213 0.000120182 0)
(45.4986 0.000120324 0)
(45.2747 0.000120472 0)
(45.0494 0.000120622 0)
(44.8229 0.000120771 0)
(44.5951 0.00012092 0)
(44.3661 0.000121068 0)
(44.1358 0.000121215 0)
(43.9042 0.000121364 0)
(43.6713 0.000121513 0)
(43.4372 0.000121665 0)
(43.2018 0.000121818 0)
(42.9652 0.000121975 0)
(42.7274 0.000122132 0)
(42.4883 0.00012229 0)
(42.248 0.000122448 0)
(42.0064 0.000122604 0)
(41.7637 0.000122757 0)
(41.5198 0.00012291 0)
(41.2746 0.000123064 0)
(41.0284 0.000123221 0)
(40.7809 0.000123378 0)
(40.5323 0.000123531 0)
(40.2826 0.000123677 0)
(40.0318 0.000123816 0)
(39.7799 0.00012394 0)
(39.5269 0.000124041 0)
(39.2728 0.000124108 0)
(39.0177 0.000124139 0)
(38.7616 0.000124131 0)
(38.5045 0.000124072 0)
(38.2464 0.000123949 0)
(37.9873 0.000123747 0)
(37.7274 0.000123451 0)
(37.4665 0.000123052 0)
(37.2047 0.000122537 0)
(36.9421 0.000121893 0)
(36.6786 0.0001211 0)
(36.4144 0.000120136 0)
(36.1494 0.000118978 0)
(35.8836 0.000117607 0)
(35.6171 0.000116003 0)
(35.3499 0.000114154 0)
(35.0821 0.000112047 0)
(34.8137 0.000109676 0)
(34.5446 0.000107039 0)
(34.275 0.000104139 0)
(34.0048 0.000100982 0)
(33.7342 9.75808e-05 0)
(33.4631 9.39499e-05 0)
(33.1916 9.01098e-05 0)
(32.9196 8.60854e-05 0)
(32.6474 8.1906e-05 0)
(32.3747 7.76047e-05 0)
(32.1018 7.32171e-05 0)
(31.8287 6.87806e-05 0)
(31.5553 6.43332e-05 0)
(31.2818 5.99131e-05 0)
(31.0081 5.55576e-05 0)
(30.7343 5.13017e-05 0)
(30.4604 4.7178e-05 0)
(30.1865 4.32156e-05 0)
(29.9127 3.94394e-05 0)
(29.6388 3.58702e-05 0)
(29.3651 3.25238e-05 0)
(29.0915 2.94114e-05 0)
(28.818 2.65397e-05 0)
(28.5447 2.39104e-05 0)
(28.2717 2.15216e-05 0)
(27.9989 1.93678e-05 0)
(27.7265 1.744e-05 0)
(27.4544 1.57268e-05 0)
(27.1827 1.4215e-05 0)
(26.9114 1.28899e-05 0)
(26.6406 1.17357e-05 0)
(26.3702 1.07367e-05 0)
(26.1004 9.87649e-06 0)
(25.8312 9.13922e-06 0)
(25.5626 8.51034e-06 0)
(25.2946 7.97574e-06 0)
(25.0272 7.52252e-06 0)
(24.7606 7.13872e-06 0)
(24.4947 6.81389e-06 0)
(24.2296 6.53817e-06 0)
(23.9653 6.30317e-06 0)
(23.7019 6.10186e-06 0)
(23.4393 5.92811e-06 0)
(23.1776 5.77697e-06 0)
(22.9168 5.64348e-06 0)
(22.657 5.52384e-06 0)
(22.3982 5.41485e-06 0)
(22.1405 5.31445e-06 0)
(21.8837 5.22035e-06 0)
(21.6281 5.13088e-06 0)
(21.3735 5.04525e-06 0)
(21.1201 4.96161e-06 0)
(20.8678 4.88036e-06 0)
(20.6168 4.79935e-06 0)
(20.3669 4.71943e-06 0)
(20.1182 4.63944e-06 0)
(19.8709 4.55928e-06 0)
(19.6248 4.47822e-06 0)
(19.38 4.39792e-06 0)
(19.1365 4.31533e-06 0)
(18.8944 4.23584e-06 0)
(18.6536 4.14953e-06 0)
(18.4143 4.07042e-06 0)
(18.1763 3.9823e-06 0)
(17.9398 3.8915e-06 0)
(17.7047 3.83509e-06 0)
(17.4711 3.64116e-06 0)
(17.2389 3.80754e-06 0)
(17.0083 3.20415e-06 0)
(16.7792 4.12145e-06 0)
(16.5516 2.35812e-06 0)
(16.3255 4.91194e-06 0)
(16.101 1.13673e-06 0)
(15.8781 5.8756e-06 0)
(15.6568 -7.99692e-08 0)
(15.4371 6.70551e-06 0)
(15.2189 -1.315e-06 0)
(15.0025 7.82812e-06 0)
(14.7876 -3.18673e-06 0)
(14.5744 9.43408e-06 0)
(14.3628 -4.97913e-06 0)
(14.153 1.23198e-05 0)
(13.9446 -1.88158e-06 0)
(13.7382 3.82665e-05 0)
(13.5331 8.06825e-05 0)
(13.3295 0.000449338 0)
(13.1253 0.00197234 0)
(12.9141 0.00894679 0)
(12.6647 0.0383892 0)
(12.387 0.168385 0)
(11.2158 0.403183 0)
(57.8407 3.54387e-05 0)
(57.689 2.7689e-05 0)
(57.5088 1.95994e-05 0)
(57.34 1.63426e-05 0)
(57.1795 1.38292e-05 0)
(57.0194 1.16866e-05 0)
(56.8576 1.0017e-05 0)
(56.6946 8.67212e-06 0)
(56.5311 7.56295e-06 0)
(56.367 6.63791e-06 0)
(56.2023 5.85839e-06 0)
(56.037 5.19609e-06 0)
(55.8709 4.6295e-06 0)
(55.7042 4.14195e-06 0)
(55.5368 3.72076e-06 0)
(55.3687 3.35561e-06 0)
(55.1998 3.038e-06 0)
(55.0301 2.76123e-06 0)
(54.8597 2.51964e-06 0)
(54.6885 2.30848e-06 0)
(54.5165 2.12378e-06 0)
(54.3437 1.96246e-06 0)
(54.17 1.82141e-06 0)
(53.9955 1.69835e-06 0)
(53.8202 1.59109e-06 0)
(53.6439 1.49779e-06 0)
(53.4667 1.41693e-06 0)
(53.2887 1.34715e-06 0)
(53.1097 1.28721e-06 0)
(52.9297 1.23618e-06 0)
(52.7488 1.19313e-06 0)
(52.5669 1.15711e-06 0)
(52.3841 1.12742e-06 0)
(52.2002 1.10343e-06 0)
(52.0154 1.08469e-06 0)
(51.8295 1.07063e-06 0)
(51.6425 1.06085e-06 0)
(51.4546 1.05489e-06 0)
(51.2655 1.05241e-06 0)
(51.0754 1.05309e-06 0)
(50.8842 1.05668e-06 0)
(50.6919 1.06281e-06 0)
(50.4985 1.07147e-06 0)
(50.3039 1.08232e-06 0)
(50.1082 1.09523e-06 0)
(49.9114 1.10987e-06 0)
(49.7135 1.1261e-06 0)
(49.5143 1.14403e-06 0)
(49.314 1.16313e-06 0)
(49.1125 1.18384e-06 0)
(48.9098 1.20576e-06 0)
(48.7059 1.22904e-06 0)
(48.5008 1.25379e-06 0)
(48.2945 1.27953e-06 0)
(48.0869 1.30599e-06 0)
(47.8781 1.33258e-06 0)
(47.6681 1.35934e-06 0)
(47.4568 1.38685e-06 0)
(47.2443 1.41575e-06 0)
(47.0305 1.44569e-06 0)
(46.8155 1.4758e-06 0)
(46.5992 1.50579e-06 0)
(46.3816 1.53598e-06 0)
(46.1628 1.5669e-06 0)
(45.9427 1.59864e-06 0)
(45.7213 1.63163e-06 0)
(45.4986 1.66576e-06 0)
(45.2746 1.70101e-06 0)
(45.0494 1.73663e-06 0)
(44.8229 1.77182e-06 0)
(44.5951 1.80665e-06 0)
(44.3661 1.84089e-06 0)
(44.1357 1.87482e-06 0)
(43.9041 1.90916e-06 0)
(43.6713 1.94345e-06 0)
(43.4372 1.97807e-06 0)
(43.2018 2.01299e-06 0)
(42.9652 2.04889e-06 0)
(42.7273 2.08467e-06 0)
(42.4882 2.12074e-06 0)
(42.2479 2.15635e-06 0)
(42.0064 2.19098e-06 0)
(41.7637 2.22493e-06 0)
(41.5197 2.2586e-06 0)
(41.2746 2.29293e-06 0)
(41.0283 2.32848e-06 0)
(40.7809 2.36446e-06 0)
(40.5323 2.39986e-06 0)
(40.2826 2.43462e-06 0)
(40.0318 2.46882e-06 0)
(39.7798 2.50122e-06 0)
(39.5268 2.52968e-06 0)
(39.2728 2.55312e-06 0)
(39.0177 2.572e-06 0)
(38.7616 2.58675e-06 0)
(38.5044 2.5964e-06 0)
(38.2464 2.59886e-06 0)
(37.9873 2.5922e-06 0)
(37.7273 2.57577e-06 0)
(37.4665 2.55002e-06 0)
(37.2047 2.51555e-06 0)
(36.9421 2.4721e-06 0)
(36.6786 2.41838e-06 0)
(36.4144 2.35245e-06 0)
(36.1493 2.27243e-06 0)
(35.8836 2.17717e-06 0)
(35.6171 2.0663e-06 0)
(35.3499 1.94017e-06 0)
(35.0821 1.79968e-06 0)
(34.8136 1.64627e-06 0)
(34.5446 1.4819e-06 0)
(34.275 1.30897e-06 0)
(34.0048 1.13008e-06 0)
(33.7342 9.47888e-07 0)
(33.4631 7.64911e-07 0)
(33.1916 5.83685e-07 0)
(32.9196 4.0673e-07 0)
(32.6473 2.36638e-07 0)
(32.3747 7.58292e-08 0)
(32.1018 -7.35306e-08 0)
(31.8287 -2.0975e-07 0)
(31.5553 -3.31516e-07 0)
(31.2818 -4.38087e-07 0)
(31.0081 -5.28953e-07 0)
(30.7343 -6.04375e-07 0)
(30.4604 -6.64728e-07 0)
(30.1865 -7.11155e-07 0)
(29.9127 -7.44727e-07 0)
(29.6388 -7.67168e-07 0)
(29.3651 -7.79937e-07 0)
(29.0915 -7.85214e-07 0)
(28.818 -7.84297e-07 0)
(28.5447 -7.79311e-07 0)
(28.2717 -7.71711e-07 0)
(27.9989 -7.62578e-07 0)
(27.7265 -7.53524e-07 0)
(27.4544 -7.45282e-07 0)
(27.1827 -7.38228e-07 0)
(26.9114 -7.33332e-07 0)
(26.6406 -7.30797e-07 0)
(26.3702 -7.30456e-07 0)
(26.1004 -7.32801e-07 0)
(25.8312 -7.38077e-07 0)
(25.5626 -7.4571e-07 0)
(25.2946 -7.55778e-07 0)
(25.0272 -7.68368e-07 0)
(24.7606 -7.83358e-07 0)
(24.4947 -8.00346e-07 0)
(24.2296 -8.19295e-07 0)
(23.9653 -8.40443e-07 0)
(23.7019 -8.63288e-07 0)
(23.4393 -8.87685e-07 0)
(23.1776 -9.13041e-07 0)
(22.9168 -9.40121e-07 0)
(22.657 -9.68208e-07 0)
(22.3982 -9.9767e-07 0)
(22.1405 -1.02725e-06 0)
(21.8837 -1.05806e-06 0)
(21.6281 -1.08936e-06 0)
(21.3735 -1.12125e-06 0)
(21.1201 -1.15358e-06 0)
(20.8678 -1.18606e-06 0)
(20.6168 -1.21922e-06 0)
(20.3669 -1.25275e-06 0)
(20.1182 -1.28562e-06 0)
(19.8709 -1.31986e-06 0)
(19.6248 -1.35196e-06 0)
(19.38 -1.38929e-06 0)
(19.1365 -1.41601e-06 0)
(18.8944 -1.46563e-06 0)
(18.6536 -1.46729e-06 0)
(18.4143 -1.56695e-06 0)
(18.1763 -1.47176e-06 0)
(17.9398 -1.75493e-06 0)
(17.7047 -1.3272e-06 0)
(17.4711 -2.19943e-06 0)
(17.2389 -8.05398e-07 0)
(17.0083 -3.18951e-06 0)
(16.7792 4.69148e-07 0)
(16.5516 -5.08845e-06 0)
(16.3255 2.54631e-06 0)
(16.101 -7.71822e-06 0)
(15.8781 5.37912e-06 0)
(15.6568 -1.14518e-05 0)
(15.4371 1.03103e-05 0)
(15.2189 -1.84805e-05 0)
(15.0025 1.92924e-05 0)
(14.7876 -2.87578e-05 0)
(14.5744 2.88811e-05 0)
(14.3628 -3.495e-05 0)
(14.153 3.31901e-05 0)
(13.9447 -2.77388e-05 0)
(13.7382 6.8404e-05 0)
(13.5332 0.000116598 0)
(13.3299 0.000748787 0)
(13.1273 0.00325104 0)
(12.9228 0.0149693 0)
(12.6987 0.065762 0)
(12.4568 0.290039 0)
(11.3359 0.746186 0)
(57.8407 -3.54387e-05 0)
(57.689 -2.7689e-05 0)
(57.5088 -1.95994e-05 0)
(57.34 -1.63426e-05 0)
(57.1795 -1.38292e-05 0)
(57.0194 -1.16866e-05 0)
(56.8576 -1.0017e-05 0)
(56.6946 -8.67212e-06 0)
(56.5311 -7.56295e-06 0)
(56.367 -6.63791e-06 0)
(56.2023 -5.85839e-06 0)
(56.037 -5.19609e-06 0)
(55.8709 -4.62949e-06 0)
(55.7042 -4.14195e-06 0)
(55.5368 -3.72076e-06 0)
(55.3687 -3.35561e-06 0)
(55.1998 -3.038e-06 0)
(55.0301 -2.76123e-06 0)
(54.8597 -2.51964e-06 0)
(54.6885 -2.30848e-06 0)
(54.5165 -2.12379e-06 0)
(54.3437 -1.96246e-06 0)
(54.17 -1.82141e-06 0)
(53.9955 -1.69835e-06 0)
(53.8202 -1.59109e-06 0)
(53.6439 -1.49779e-06 0)
(53.4667 -1.41693e-06 0)
(53.2887 -1.34715e-06 0)
(53.1097 -1.28721e-06 0)
(52.9297 -1.23618e-06 0)
(52.7488 -1.19313e-06 0)
(52.5669 -1.15711e-06 0)
(52.3841 -1.12742e-06 0)
(52.2002 -1.10343e-06 0)
(52.0154 -1.08469e-06 0)
(51.8295 -1.07064e-06 0)
(51.6425 -1.06085e-06 0)
(51.4546 -1.05489e-06 0)
(51.2655 -1.05241e-06 0)
(51.0754 -1.05309e-06 0)
(50.8842 -1.05668e-06 0)
(50.6919 -1.06281e-06 0)
(50.4985 -1.07147e-06 0)
(50.3039 -1.08232e-06 0)
(50.1082 -1.09524e-06 0)
(49.9114 -1.10987e-06 0)
(49.7135 -1.1261e-06 0)
(49.5143 -1.14403e-06 0)
(49.314 -1.16313e-06 0)
(49.1125 -1.18384e-06 0)
(48.9098 -1.20576e-06 0)
(48.7059 -1.22904e-06 0)
(48.5008 -1.25378e-06 0)
(48.2945 -1.27953e-06 0)
(48.0869 -1.30599e-06 0)
(47.8781 -1.33258e-06 0)
(47.6681 -1.35934e-06 0)
(47.4568 -1.38685e-06 0)
(47.2443 -1.41576e-06 0)
(47.0305 -1.44569e-06 0)
(46.8155 -1.4758e-06 0)
(46.5992 -1.50578e-06 0)
(46.3816 -1.53598e-06 0)
(46.1628 -1.5669e-06 0)
(45.9427 -1.59864e-06 0)
(45.7213 -1.63162e-06 0)
(45.4986 -1.66576e-06 0)
(45.2746 -1.701e-06 0)
(45.0494 -1.73663e-06 0)
(44.8229 -1.77182e-06 0)
(44.5951 -1.80665e-06 0)
(44.3661 -1.84089e-06 0)
(44.1357 -1.87482e-06 0)
(43.9041 -1.90916e-06 0)
(43.6713 -1.94345e-06 0)
(43.4372 -1.97807e-06 0)
(43.2018 -2.01299e-06 0)
(42.9652 -2.04889e-06 0)
(42.7273 -2.08467e-06 0)
(42.4882 -2.12074e-06 0)
(42.2479 -2.15635e-06 0)
(42.0064 -2.19098e-06 0)
(41.7637 -2.22493e-06 0)
(41.5197 -2.2586e-06 0)
(41.2746 -2.29293e-06 0)
(41.0283 -2.32848e-06 0)
(40.7809 -2.36446e-06 0)
(40.5323 -2.39986e-06 0)
(40.2826 -2.43462e-06 0)
(40.0318 -2.46882e-06 0)
(39.7798 -2.50122e-06 0)
(39.5268 -2.52968e-06 0)
(39.2728 -2.55312e-06 0)
(39.0177 -2.572e-06 0)
(38.7616 -2.58675e-06 0)
(38.5044 -2.59641e-06 0)
(38.2464 -2.59886e-06 0)
(37.9873 -2.5922e-06 0)
(37.7273 -2.57577e-06 0)
(37.4665 -2.55002e-06 0)
(37.2047 -2.51555e-06 0)
(36.9421 -2.4721e-06 0)
(36.6786 -2.41839e-06 0)
(36.4144 -2.35245e-06 0)
(36.1493 -2.27244e-06 0)
(35.8836 -2.17717e-06 0)
(35.6171 -2.0663e-06 0)
(35.3499 -1.94018e-06 0)
(35.0821 -1.79968e-06 0)
(34.8136 -1.64627e-06 0)
(34.5446 -1.4819e-06 0)
(34.275 -1.30897e-06 0)
(34.0048 -1.13008e-06 0)
(33.7342 -9.47884e-07 0)
(33.4631 -7.64912e-07 0)
(33.1916 -5.83679e-07 0)
(32.9196 -4.06735e-07 0)
(32.6473 -2.36637e-07 0)
(32.3747 -7.58286e-08 0)
(32.1018 7.35311e-08 0)
(31.8287 2.09739e-07 0)
(31.5553 3.31534e-07 0)
(31.2818 4.38065e-07 0)
(31.0081 5.28982e-07 0)
(30.7343 6.04341e-07 0)
(30.4604 6.64768e-07 0)
(30.1865 7.11116e-07 0)
(29.9127 7.44777e-07 0)
(29.6388 7.67089e-07 0)
(29.3651 7.80061e-07 0)
(29.0915 7.85061e-07 0)
(28.818 7.84395e-07 0)
(28.5447 7.79357e-07 0)
(28.2717 7.71537e-07 0)
(27.9989 7.62729e-07 0)
(27.7265 7.53549e-07 0)
(27.4544 7.4508e-07 0)
(27.1827 7.38391e-07 0)
(26.9114 7.33417e-07 0)
(26.6406 7.30569e-07 0)
(26.3702 7.30508e-07 0)
(26.1004 7.33044e-07 0)
(25.8312 7.37908e-07 0)
(25.5626 7.45548e-07 0)
(25.2946 7.55943e-07 0)
(25.0272 7.68489e-07 0)
(24.7606 7.83195e-07 0)
(24.4947 8.0022e-07 0)
(24.2296 8.1951e-07 0)
(23.9653 8.40515e-07 0)
(23.7019 8.63088e-07 0)
(23.4393 8.8745e-07 0)
(23.1776 9.13357e-07 0)
(22.9168 9.40291e-07 0)
(22.657 9.68268e-07 0)
(22.3982 9.97105e-07 0)
(22.1405 1.02736e-06 0)
(21.8837 1.05808e-06 0)
(21.6281 1.08971e-06 0)
(21.3735 1.12127e-06 0)
(21.1201 1.15381e-06 0)
(20.8678 1.18581e-06 0)
(20.6168 1.21902e-06 0)
(20.3669 1.25175e-06 0)
(20.1182 1.28638e-06 0)
(19.8709 1.31864e-06 0)
(19.6248 1.35622e-06 0)
(19.38 1.38217e-06 0)
(19.1365 1.43151e-06 0)
(18.8944 1.43365e-06 0)
(18.6536 1.5299e-06 0)
(18.4143 1.44448e-06 0)
(18.1763 1.70329e-06 0)
(17.9398 1.32392e-06 0)
(17.7047 2.1064e-06 0)
(17.4711 8.2942e-07 0)
(17.2389 3.13836e-06 0)
(17.0083 -5.68845e-07 0)
(16.7792 5.39766e-06 0)
(16.5516 -3.52921e-06 0)
(16.3255 9.49512e-06 0)
(16.101 -8.2025e-06 0)
(15.8781 1.47641e-05 0)
(15.6568 -1.33661e-05 0)
(15.4371 1.99973e-05 0)
(15.219 -1.89629e-05 0)
(15.0024 2.64543e-05 0)
(14.7876 -2.57886e-05 0)
(14.5744 3.35669e-05 0)
(14.3629 -3.25129e-05 0)
(14.1529 4.21441e-05 0)
(13.9447 -3.31465e-05 0)
(13.7382 8.26355e-05 0)
(13.5334 0.00010134 0)
(13.3305 0.000784979 0)
(13.1299 0.00330503 0)
(12.9343 0.0156994 0)
(12.7544 0.0715324 0)
(12.6103 0.339384 0)
(12.7919 0.837276 0)
(57.8407 -0.000118162 0)
(57.689 -0.000102998 0)
(57.5088 -0.000100417 0)
(57.34 -0.000104512 0)
(57.1795 -0.000106763 0)
(57.0194 -0.000108127 0)
(56.8576 -0.000109312 0)
(56.6947 -0.000110265 0)
(56.5311 -0.000111052 0)
(56.367 -0.00011171 0)
(56.2023 -0.000112265 0)
(56.037 -0.000112738 0)
(55.871 -0.000113145 0)
(55.7042 -0.000113499 0)
(55.5368 -0.00011381 0)
(55.3687 -0.000114085 0)
(55.1998 -0.00011433 0)