/*--------------------------------*- C++ -*----------------------------------*\
| =========                 |                                                 |
| \\      /  F ield         | OpenFOAM: The Open Source CFD Toolbox           |
|  \\    /   O peration     | Version:  3.0.x                                 |
|   \\  /    A nd           | Web:      www.OpenFOAM.org                      |
|    \\/     M anipulation  |                                                 |
\*---------------------------------------------------------------------------*/
FoamFile
{
    version     2.0;
    format      ascii;
    class       volScalarField;
    location    "0.32";
    object      rho;
}
// * * * * * * * * * * * * * * * * * * * * * * * * * * * * * * * * * * * * * //

dimensions      [1 -3 0 0 0 0 0];

internalField   nonuniform List<scalar> 
6900
(
50.9108
50.9108
50.9108
50.9108
50.9108
50.9108
50.9108
50.9108
50.9108
50.9108
50.9108
50.9109
50.9111
50.9113
50.9115
50.9116
50.9117
50.9118
50.9118
50.9118
50.9119
50.9119
50.9121
50.9122
50.9124
50.9126
50.9129
50.9131
50.9133
50.9136
50.9138
50.9139
50.914
50.9141
50.9141
50.9141
50.9142
50.9143
50.9144
50.9146
50.9147
50.9149
50.915
50.9151
50.9152
50.9153
50.9154
50.9154
50.9154
50.9155
50.9155
50.9155
50.9156
50.9156
50.9156
50.9157
50.9157
50.9158
50.9158
50.9159
50.9159
50.9159
50.9159
50.9159
50.916
50.916
50.916
50.916
50.9159
50.9159
50.9159
50.9159
50.9158
50.9158
50.9158
50.9158
50.9157
50.9157
50.9157
50.9157
50.9157
50.9157
50.9158
50.9158
50.9158
50.9159
50.916
50.9161
50.9161
50.9162
50.9163
50.9164
50.9165
50.9166
50.9167
50.9168
50.9168
50.9169
50.9169
50.917
50.917
50.917
50.917
50.9169
50.9169
50.9168
50.9168
50.9167
50.9166
50.9165
50.9165
50.9164
50.9163
50.9162
50.9162
50.9161
50.9161
50.9161
50.9161
50.9161
50.9161
50.9161
50.9162
50.9163
50.9164
50.9164
50.9165
50.9166
50.9167
50.9168
50.9169
50.917
50.917
50.917
50.917
50.917
50.9169
50.9169
50.9167
50.9166
50.9164
50.9162
50.916
50.9158
50.9155
50.9153
50.915
50.9147
50.9144
50.9142
50.9139
50.9136
50.9134
50.9131
50.9129
50.9127
50.9125
50.9123
50.9121
50.912
50.9119
50.9118
50.9117
50.9116
50.9115
50.9114
50.9113
50.9111
50.9109
50.9107
50.9105
50.9102
50.9098
50.9094
50.909
50.9085
50.908
50.9075
50.9069
50.9063
50.9057
50.9051
50.9045
50.9039
50.9033
50.9027
50.9021
50.9016
50.901
50.9004
50.8999
50.8994
50.899
50.8986
50.8983
50.8979
50.8977
50.8975
50.8977
50.8947
50.911
50.911
50.911
50.911
50.9109
50.9109
50.9109
50.9109
50.9109
50.9109
50.9109
50.911
50.9112
50.9114
50.9116
50.9117
50.9118
50.9119
50.9119
50.912
50.912
50.9121
50.9122
50.9123
50.9125
50.9127
50.913
50.9132
50.9135
50.9137
50.9139
50.9141
50.9142
50.9142
50.9142
50.9142
50.9143
50.9144
50.9145
50.9147
50.9148
50.915
50.9151
50.9153
50.9153
50.9154
50.9155
50.9155
50.9155
50.9156
50.9156
50.9156
50.9157
50.9157
50.9157
50.9158
50.9158
50.9159
50.9159
50.9159
50.916
50.916
50.916
50.916
50.9161
50.9161
50.9161
50.916
50.916
50.916
50.916
50.916
50.9159
50.9159
50.9159
50.9159
50.9158
50.9158
50.9158
50.9158
50.9158
50.9158
50.9159
50.9159
50.9159
50.916
50.9161
50.9162
50.9162
50.9163
50.9164
50.9165
50.9166
50.9167
50.9168
50.9169
50.9169
50.917
50.917
50.917
50.9171
50.9171
50.917
50.917
50.917
50.9169
50.9169
50.9168
50.9167
50.9166
50.9166
50.9165
50.9164
50.9163
50.9163
50.9162
50.9162
50.9162
50.9162
50.9162
50.9162
50.9162
50.9163
50.9164
50.9164
50.9165
50.9166
50.9167
50.9168
50.9169
50.917
50.9171
50.9171
50.9171
50.9171
50.9171
50.917
50.917
50.9168
50.9167
50.9165
50.9163
50.9161
50.9159
50.9156
50.9154
50.9151
50.9148
50.9145
50.9143
50.914
50.9137
50.9134
50.9132
50.913
50.9128
50.9126
50.9124
50.9122
50.9121
50.912
50.9119
50.9118
50.9117
50.9116
50.9115
50.9114
50.9112
50.911
50.9108
50.9106
50.9103
50.9099
50.9095
50.9091
50.9086
50.9081
50.9076
50.907
50.9064
50.9058
50.9052
50.9046
50.904
50.9034
50.9028
50.9022
50.9017
50.9011
50.9005
50.9
50.8995
50.8991
50.8987
50.8984
50.898
50.8978
50.8976
50.8978
50.895
50.911
50.911
50.911
50.911
50.9109
50.9109
50.9109
50.9109
50.9109
50.9109
50.9109
50.911
50.9112
50.9114
50.9116
50.9117
50.9118
50.9119
50.9119
50.912
50.912
50.9121
50.9122
50.9123
50.9125
50.9127
50.913
50.9132
50.9135
50.9137
50.9139
50.9141
50.9142
50.9142
50.9142
50.9142
50.9143
50.9144
50.9145
50.9147
50.9148
50.915
50.9151
50.9153
50.9153
50.9154
50.9155
50.9155
50.9155
50.9156
50.9156
50.9156
50.9157
50.9157
50.9157
50.9158
50.9158
50.9159
50.9159
50.9159
50.916
50.916
50.916
50.916
50.9161
50.9161
50.9161
50.916
50.916
50.916
50.916
50.916
50.9159
50.9159
50.9159
50.9159
50.9158
50.9158
50.9158
50.9158
50.9158
50.9158
50.9159
50.9159
50.9159
50.916
50.9161
50.9162
50.9162
50.9163
50.9164
50.9165
50.9166
50.9167
50.9168
50.9169
50.9169
50.917
50.917
50.917
50.9171
50.9171
50.917
50.917
50.917
50.9169
50.9169
50.9168
50.9167
50.9166
50.9166
50.9165
50.9164
50.9163
50.9163
50.9162
50.9162
50.9162
50.9162
50.9162
50.9162
50.9162
50.9163
50.9164
50.9164
50.9165
50.9166
50.9167
50.9168
50.9169
50.917
50.9171
50.9171
50.9171
50.9171
50.9171
50.917
50.917
50.9168
50.9167
50.9165
50.9163
50.9161
50.9159
50.9156
50.9154
50.9151
50.9148
50.9145
50.9143
50.914
50.9137
50.9134
50.9132
50.913
50.9128
50.9126
50.9124
50.9122
50.9121
50.912
50.9119
50.9118
50.9117
50.9116
50.9115
50.9114
50.9112
50.911
50.9108
50.9106
50.9103
50.9099
50.9095
50.9091
50.9086
50.9081
50.9076
50.907
50.9064
50.9058
50.9052
50.9046
50.904
50.9034
50.9028
50.9022
50.9017
50.9011
50.9005
50.9
50.8995
50.8991
50.8987
50.8984
50.898
50.8978
50.8976
50.8974
50.8972
50.911
50.911
50.911
50.911
50.9109
50.9109
50.9109
50.9109
50.9109
50.9109
50.9109
50.911
50.9112
50.9114
50.9116
50.9117
50.9118
50.9119
50.9119
50.912
50.912
50.9121
50.9122
50.9123
50.9125
50.9127
50.913
50.9132
50.9135
50.9137
50.9139
50.9141
50.9142
50.9142
50.9142
50.9142
50.9143
50.9144
50.9145
50.9147
50.9148
50.915
50.9151
50.9153
50.9153
50.9154
50.9155
50.9155
50.9155
50.9156
50.9156
50.9156
50.9157
50.9157
50.9157
50.9158
50.9158
50.9159
50.9159
50.9159
50.916
50.916
50.916
50.916
50.9161
50.9161
50.9161
50.916
50.916
50.916
50.916
50.916
50.9159
50.9159
50.9159
50.9159
50.9158
50.9158
50.9158
50.9158
50.9158
50.9158
50.9159
50.9159
50.9159
50.916
50.9161
50.9162
50.9162
50.9163
50.9164
50.9165
50.9166
50.9167
50.9168
50.9169
50.9169
50.917
50.917
50.917
50.9171
50.9171
50.917
50.917
50.917
50.9169
50.9169
50.9168
50.9167
50.9166
50.9166
50.9165
50.9164
50.9163
50.9163
50.9162
50.9162
50.9162
50.9162
50.9162
50.9162
50.9162
50.9163
50.9164
50.9164
50.9165
50.9166
50.9167
50.9168
50.9169
50.917
50.9171
50.9171
50.9171
50.9171
50.9171
50.917
50.917
50.9168
50.9167
50.9165
50.9163
50.9161
50.9159
50.9156
50.9154
50.9151
50.9148
50.9145
50.9143
50.914
50.9137
50.9134
50.9132
50.913
50.9128
50.9126
50.9124
50.9122
50.9121
50.912
50.9119
50.9118
50.9117
50.9116
50.9115
50.9114
50.9112
50.911
50.9108
50.9106
50.9103
50.9099
50.9095
50.9091
50.9086
50.9081
50.9076
50.907
50.9064
50.9058
50.9052
50.9046
50.904
50.9034
50.9028
50.9022
50.9017
50.9011
50.9005
50.9
50.8995
50.8991
50.8987
50.8983
50.8981
50.8978
50.8977
50.8965
50.9027
50.9108
50.9108
50.9108
50.9108
50.9108
50.9108
50.9108
50.9108
50.9108
50.9108
50.9108
50.9109
50.9111
50.9113
50.9115
50.9116
50.9117
50.9118
50.9118
50.9118
50.9119
50.9119
50.9121
50.9122
50.9124
50.9126
50.9129
50.9131
50.9133
50.9136
50.9138
50.9139
50.914
50.9141
50.9141
50.9141
50.9142
50.9143
50.9144
50.9146
50.9147
50.9149
50.915
50.9151
50.9152
50.9153
50.9154
50.9154
50.9154
50.9155
50.9155
50.9155
50.9156
50.9156
50.9156
50.9157
50.9157
50.9158
50.9158
50.9159
50.9159
50.9159
50.9159
50.9159
50.916
50.916
50.916
50.916
50.9159
50.9159
50.9159
50.9159
50.9158
50.9158
50.9158
50.9158
50.9157
50.9157
50.9157
50.9157
50.9157
50.9157
50.9158
50.9158
50.9158
50.9159
50.916
50.9161
50.9161
50.9162
50.9163
50.9164
50.9165
50.9166
50.9167
50.9168
50.9168
50.9169
50.9169
50.917
50.917
50.917
50.917
50.9169
50.9169
50.9168
50.9168
50.9167
50.9166
50.9165
50.9165
50.9164
50.9163
50.9162
50.9162
50.9161
50.9161
50.9161
50.9161
50.9161
50.9161
50.9161
50.9162
50.9163
50.9164
50.9164
50.9165
50.9166
50.9167
50.9168
50.9169
50.917
50.917
50.917
50.917
50.917
50.9169
50.9169
50.9167
50.9166
50.9164
50.9162
50.916
50.9158
50.9155
50.9153
50.915
50.9147
50.9144
50.9142
50.9139
50.9136
50.9134
50.9131
50.9129
50.9127
50.9125
50.9123
50.9121
50.912
50.9119
50.9118
50.9117
50.9116
50.9115
50.9114
50.9113
50.9111
50.9109
50.9107
50.9105
50.9102
50.9098
50.9094
50.909
50.9085
50.908
50.9075
50.9069
50.9063
50.9057
50.9051
50.9045
50.9039
50.9033
50.9027
50.9021
50.9016
50.901
50.9004
50.8999
50.8994
50.899
50.8986
50.8982
50.898
50.8977
50.8976
50.8959
50.9084
50.9134
50.9203
50.9209
50.9188
50.9169
50.9149
50.9122
50.9094
50.9081
50.9114
50.9136
50.9101
50.9003
50.8864
50.8756
50.8667
50.8585
50.8528
50.8559
50.8717
50.9098
50.9132
50.913
50.9111
50.9092
50.9072
50.9047
50.9019
50.9007
50.9046
50.9066
50.9018
50.8901
50.8764
50.8664
50.858
50.8505
50.8459
50.8494
50.8643
50.898
50.8979
50.8968
50.8946
50.8917
50.8881
50.8838
50.8787
50.8723
50.8648
50.8567
50.8489
50.8415
50.8336
50.8243
50.8138
50.8025
50.7903
50.7765
50.7619
50.8743
50.8712
50.8721
50.8737
50.8727
50.869
50.8634
50.856
50.85
50.8421
50.8351
50.8281
50.8209
50.8141
50.8082
50.8025
50.7976
50.7936
50.7904
50.7883
50.8643
50.8518
50.8472
50.8465
50.8444
50.8394
50.8327
50.8242
50.8165
50.8073
50.799
50.7901
50.7819
50.7736
50.7665
50.7595
50.754
50.7489
50.7453
50.7435
50.822
50.7798
50.7762
50.7806
50.7776
50.773
50.7716
50.7717
50.7714
50.7709
50.7703
50.7699
50.7696
50.7692
50.7687
50.7683
50.7679
50.7674
50.7669
50.7664
50.766
50.7655
50.7649
50.7644
50.7639
50.7635
50.763
50.7625
50.762
50.7616
50.7611
50.7607
50.7602
50.7598
50.7593
50.7589
50.7585
50.7581
50.7578
50.7576
50.7572
50.7568
50.7562
50.7558
50.7554
50.755
50.7547
50.7544
50.7541
50.7539
50.7536
50.7533
50.753
50.7527
50.7524
50.752
50.7518
50.7516
50.7514
50.7513
50.7512
50.7511
50.7509
50.7507
50.7505
50.7503
50.7503
50.7505
50.7506
50.7507
50.75
50.7461
50.737
50.7311
50.7293
50.73
50.7348
50.7452
50.7526
50.7565
50.758
50.7584
50.7582
50.7577
50.7571
50.7566
50.7563
50.756
50.7558
50.7557
50.7555
50.7554
50.7553
50.7552
50.7551
50.7551
50.755
50.7549
50.7548
50.7547
50.7547
50.7546
50.7545
50.7545
50.7544
50.7544
50.7543
50.7543
50.7543
50.7543
50.7542
50.7542
50.7543
50.7543
50.7543
50.7544
50.7544
50.7545
50.7546
50.7547
50.7548
50.7549
50.755
50.7552
50.7553
50.7554
50.7555
50.7556
50.7557
50.7558
50.7559
50.756
50.7561
50.7561
50.7562
50.7562
50.7562
50.7562
50.7561
50.7561
50.756
50.7559
50.7558
50.7557
50.7555
50.7554
50.7552
50.7551
50.7549
50.7547
50.7545
50.7543
50.7542
50.754
50.7538
50.7536
50.7535
50.7533
50.7532
50.753
50.7529
50.7529
50.7528
50.7528
50.7528
50.7528
50.7528
50.7528
50.7529
50.7529
50.753
50.7531
50.7532
50.7532
50.7533
50.7533
50.7533
50.7533
50.7533
50.7532
50.7531
50.753
50.7528
50.7526
50.7523
50.7521
50.7518
50.7515
50.7511
50.7508
50.7504
50.75
50.7496
50.7491
50.7486
50.7482
50.7476
50.7472
50.7454
50.7538
50.8178
50.7791
50.7757
50.7798
50.7766
50.772
50.7707
50.7706
50.7703
50.7697
50.7691
50.7688
50.7685
50.7681
50.7676
50.7672
50.7668
50.7664
50.7659
50.7654
50.765
50.7645
50.764
50.7634
50.763
50.7625
50.762
50.7615
50.761
50.7605
50.7601
50.7596
50.7591
50.7586
50.7582
50.7578
50.7573
50.7569
50.7565
50.7562
50.7559
50.7554
50.7549
50.7545
50.7542
50.7539
50.7536
50.7533
50.753
50.7527
50.7524
50.752
50.7516
50.7512
50.7509
50.7505
50.7503
50.7501
50.7499
50.7497
50.7495
50.7491
50.7487
50.7485
50.7483
50.7483
50.7485
50.7486
50.7487
50.7481
50.7448
50.7382
50.7339
50.7324
50.7328
50.7357
50.7435
50.7503
50.7544
50.7564
50.7572
50.7574
50.7573
50.757
50.7567
50.7564
50.7562
50.756
50.7558
50.7557
50.7556
50.7555
50.7554
50.7553
50.7552
50.7552
50.7551
50.755
50.7549
50.7548
50.7548
50.7547
50.7546
50.7546
50.7545
50.7545
50.7544
50.7544
50.7544
50.7543
50.7543
50.7543
50.7544
50.7544
50.7544
50.7545
50.7545
50.7546
50.7547
50.7548
50.7549
50.755
50.7551
50.7552
50.7554
50.7555
50.7556
50.7557
50.7558
50.7559
50.756
50.7561
50.7562
50.7562
50.7563
50.7563
50.7563
50.7562
50.7562
50.7561
50.7561
50.756
50.7559
50.7558
50.7556
50.7555
50.7553
50.7552
50.755
50.7548
50.7546
50.7544
50.7542
50.7541
50.7539
50.7537
50.7535
50.7534
50.7533
50.7531
50.753
50.753
50.7529
50.7529
50.7529
50.7529
50.7529
50.7529
50.753
50.753
50.7531
50.7532
50.7533
50.7533
50.7534
50.7534
50.7534
50.7534
50.7534
50.7533
50.7532
50.7531
50.7529
50.7527
50.7524
50.7522
50.7519
50.7516
50.7512
50.7509
50.7505
50.7501
50.7496
50.7492
50.7487
50.7483
50.7477
50.7472
50.7458
50.7491
50.7336
50.7467
50.7554
50.7562
50.7544
50.7535
50.7533
50.7533
50.753
50.7527
50.7525
50.7523
50.752
50.7518
50.7515
50.7511
50.7508
50.7504
50.75
50.7495
50.7491
50.7486
50.748
50.7475
50.7469
50.7464
50.7459
50.7453
50.7449
50.7444
50.744
50.7436
50.7432
50.7428
50.7423
50.7419
50.7414
50.7409
50.7404
50.7399
50.7394
50.7389
50.7384
50.7378
50.7372
50.7367
50.7361
50.7356
50.7352
50.7349
50.7346
50.7345
50.735
50.7373
50.7406
50.7436
50.746
50.7479
50.7492
50.75
50.7505
50.7508
50.7509
50.7511
50.7512
50.7512
50.7512
50.7514
50.7515
50.7518
50.7522
50.7527
50.7533
50.7539
50.7545
50.755
50.7553
50.7556
50.7557
50.7558
50.7558
50.7558
50.7558
50.7558
50.7557
50.7557
50.7557
50.7556
50.7556
50.7555
50.7555
50.7554
50.7553
50.7553
50.7552
50.7551
50.7551
50.755
50.7549
50.7548
50.7548
50.7547
50.7546
50.7546
50.7545
50.7545
50.7544
50.7544
50.7544
50.7543
50.7543
50.7543
50.7544
50.7544
50.7544
50.7545
50.7545
50.7546
50.7547
50.7548
50.7549
50.755
50.7551
50.7552
50.7554
50.7555
50.7556
50.7557
50.7558
50.7559
50.756
50.7561
50.7562
50.7562
50.7563
50.7563
50.7563
50.7562
50.7562
50.7561
50.7561
50.756
50.7559
50.7558
50.7556
50.7555
50.7553
50.7552
50.755
50.7548
50.7546
50.7544
50.7542
50.7541
50.7539
50.7537
50.7535
50.7534
50.7533
50.7531
50.753
50.753
50.7529
50.7529
50.7529
50.7529
50.7529
50.7529
50.753
50.753
50.7531
50.7532
50.7533
50.7533
50.7534
50.7534
50.7534
50.7534
50.7534
50.7533
50.7532
50.7531
50.7529
50.7527
50.7524
50.7522
50.7519
50.7516
50.7512
50.7508
50.7505
50.7501
50.7497
50.7492
50.7487
50.7483
50.7478
50.7472
50.7467
50.7461
50.7795
50.776
50.7749
50.7734
50.772
50.7713
50.771
50.7708
50.7705
50.77
50.7697
50.7693
50.7689
50.7685
50.7681
50.7677
50.7672
50.7667
50.7663
50.7658
50.7653
50.7648
50.7643
50.7638
50.7633
50.7628
50.7623
50.7619
50.7614
50.761
50.7606
50.7601
50.7597
50.7593
50.759
50.7586
50.7582
50.7578
50.7573
50.7569
50.7565
50.756
50.7557
50.7553
50.7549
50.7546
50.7542
50.7539
50.7537
50.7534
50.7531
50.7529
50.7526
50.7524
50.7522
50.7519
50.7517
50.7515
50.7511
50.7509
50.7506
50.7501
50.7494
50.7487
50.7484
50.7482
50.7479
50.7469
50.7444
50.7423
50.7412
50.7412
50.7416
50.7433
50.7477
50.7519
50.7547
50.7563
50.757
50.7572
50.7572
50.7571
50.7568
50.7566
50.7563
50.7561
50.756
50.7559
50.7557
50.7556
50.7556
50.7555
50.7554
50.7553
50.7552
50.7551
50.7551
50.755
50.7549
50.7548
50.7548
50.7547
50.7546
50.7546
50.7545
50.7545
50.7544
50.7544
50.7544
50.7543
50.7543
50.7543
50.7544
50.7544
50.7544
50.7545
50.7545
50.7546
50.7547
50.7548
50.7549
50.755
50.7551
50.7552
50.7554
50.7555
50.7556
50.7557
50.7558
50.7559
50.756
50.7561
50.7562
50.7562
50.7563
50.7563
50.7563
50.7562
50.7562
50.7561
50.7561
50.756
50.7559
50.7558
50.7556
50.7555
50.7553
50.7552
50.755
50.7548
50.7546
50.7544
50.7542
50.7541
50.7539
50.7537
50.7535
50.7534
50.7533
50.7531
50.753
50.753
50.7529
50.7529
50.7529
50.7529
50.7529
50.7529
50.753
50.753
50.7531
50.7532
50.7533
50.7533
50.7534
50.7534
50.7534
50.7534
50.7534
50.7533
50.7532
50.7531
50.7529
50.7527
50.7524
50.7522
50.7519
50.7516
50.7512
50.7508
50.7505
50.7501
50.7497
50.7492
50.7487
50.7483
50.7478
50.7473
50.7471
50.7454
50.7639
50.7665
50.7662
50.7651
50.7637
50.7631
50.7627
50.7625
50.7622
50.7618
50.7615
50.7611
50.7607
50.7603
50.7599
50.7595
50.7591
50.7586
50.7582
50.7577
50.7572
50.7568
50.7563
50.7558
50.7554
50.755
50.7545
50.7541
50.7537
50.7533
50.7529
50.7525
50.7521
50.7517
50.7513
50.7509
50.7505
50.75
50.7496
50.7492
50.7487
50.7483
50.7479
50.7476
50.7473
50.747
50.7467
50.7464
50.7461
50.7459
50.7456
50.7454
50.7452
50.7449
50.7447
50.7445
50.7443
50.744
50.7435
50.743
50.7425
50.7422
50.7422
50.7423
50.7423
50.7418
50.7385
50.7306
50.725
50.7229
50.723
50.7248
50.7314
50.739
50.7447
50.7487
50.7514
50.7532
50.7543
50.7549
50.7553
50.7555
50.7556
50.7557
50.7557
50.7556
50.7556
50.7556
50.7555
50.7554
50.7554
50.7553
50.7553
50.7552
50.7551
50.755
50.755
50.7549
50.7548
50.7547
50.7547
50.7546
50.7545
50.7545
50.7544
50.7544
50.7543
50.7543
50.7543
50.7543
50.7542
50.7542
50.7543
50.7543
50.7543
50.7544
50.7544
50.7545
50.7546
50.7547
50.7548
50.7549
50.755
50.7552
50.7553
50.7554
50.7555
50.7556
50.7557
50.7558
50.7559
50.756
50.7561
50.7561
50.7562
50.7562
50.7562
50.7562
50.7561
50.7561
50.756
50.7559
50.7558
50.7557
50.7555
50.7554
50.7552
50.7551
50.7549
50.7547
50.7545
50.7543
50.7542
50.754
50.7538
50.7536
50.7535
50.7533
50.7532
50.753
50.7529
50.7529
50.7528
50.7528
50.7528
50.7528
50.7528
50.7528
50.7529
50.7529
50.753
50.7531
50.7532
50.7532
50.7533
50.7533
50.7534
50.7533
50.7533
50.7532
50.7531
50.753
50.7528
50.7526
50.7523
50.7521
50.7518
50.7515
50.7511
50.7508
50.7504
50.75
50.7496
50.7491
50.7487
50.7482
50.7477
50.7472
50.7471
50.7451
50.7152
50.7019
50.6969
50.6959
50.6935
50.6883
50.6814
50.674
50.6656
50.6573
50.6489
50.6403
50.6325
50.6248
50.618
50.6115
50.6059
50.6007
50.5969
50.595
50.7242
50.7208
50.7212
50.7224
50.7212
50.7173
50.7112
50.7056
50.698
50.6916
50.6844
50.6773
50.6702
50.6642
50.6587
50.6533
50.6487
50.6445
50.6412
50.6387
50.7465
50.7464
50.7452
50.743
50.7401
50.7364
50.732
50.7265
50.7207
50.7144
50.7078
50.7
50.691
50.6812
50.6705
50.6579
50.6455
50.6342
50.6247
50.6158
50.7575
50.761
50.7608
50.759
50.7573
50.7559
50.755
50.7551
50.7532
50.7471
50.7383
50.7311
50.7251
50.7197
50.7176
50.7294
50.7397
50.7399
50.7284
50.7073
50.761
50.7679
50.7685
50.7666
50.7648
50.7633
50.7623
50.7622
50.7605
50.7551
50.7464
50.7389
50.7325
50.7267
50.7245
50.735
50.7459
50.7489
50.741
50.7221
50.6178
50.6222
50.6208
50.619
50.6178
50.6167
50.6161
50.6156
50.6152
50.6148
50.6144
50.614
50.6136
50.6133
50.613
50.6127
50.6123
50.612
50.6117
50.6114
50.6111
50.6108
50.6105
50.6103
50.61
50.6098
50.6095
50.6093
50.6091
50.609
50.6088
50.6086
50.6084
50.6082
50.608
50.6077
50.6075
50.6073
50.607
50.6067
50.6064
50.6061
50.6058
50.6055
50.6052
50.6049
50.6046
50.6042
50.6038
50.6034
50.603
50.6027
50.6023
50.6019
50.6015
50.6011
50.6006
50.6002
50.5997
50.5993
50.5987
50.5982
50.5979
50.5978
50.5978
50.5978
50.5976
50.5954
50.5883
50.582
50.5793
50.5791
50.5805
50.5859
50.594
50.6003
50.6048
50.6079
50.6101
50.6115
50.6125
50.6131
50.6136
50.6139
50.6141
50.6144
50.6146
50.6148
50.615
50.6152
50.6154
50.6157
50.616
50.6163
50.6166
50.6169
50.6172
50.6176
50.6168
50.6253
50.6334
50.6316
50.6294
50.6274
50.626
50.6249
50.6243
50.6237
50.6231
50.6228
50.6224
50.6219
50.6215
50.6212
50.6208
50.6205
50.6201
50.6198
50.6195
50.6192
50.6189
50.6186
50.6183
50.618
50.6177
50.6174
50.6172
50.6169
50.6167
50.6165
50.6163
50.6161
50.6159
50.6157
50.6154
50.6152
50.615
50.6147
50.6144
50.6142
50.6139
50.6136
50.6133
50.613
50.6126
50.6123
50.6119
50.6116
50.6112
50.6108
50.6104
50.61
50.6096
50.6092
50.6088
50.6084
50.608
50.6076
50.6072
50.6067
50.6063
50.6059
50.6054
50.6048
50.6042
50.6038
50.6037
50.6035
50.6029
50.6009
50.5988
50.5976
50.5975
50.5979
50.5992
50.6031
50.6077
50.6111
50.6131
50.6143
50.6148
50.6151
50.6152
50.6152
50.6151
50.6151
50.6151
50.6152
50.6153
50.6155
50.6156
50.6159
50.6161
50.6164
50.6167
50.617
50.6173
50.6176
50.6173
50.6209
50.5934
50.6035
50.6095
50.6099
50.6088
50.6079
50.6075
50.6071
50.6067
50.6063
50.6059
50.6055
50.6051
50.6047
50.6043
50.604
50.6038
50.6035
50.6033
50.6031
50.6029
50.6027
50.6024
50.6022
50.6019
50.6016
50.6014
50.6011
50.6009
50.6006
50.6004
50.6001
50.5999
50.5997
50.5994
50.5991
50.5988
50.5985
50.5982
50.5978
50.5974
50.597
50.5966
50.5961
50.5957
50.5952
50.5946
50.594
50.5934
50.5929
50.5924
50.5919
50.5916
50.5918
50.5935
50.5965
50.5992
50.6014
50.6031
50.6043
50.605
50.6055
50.6058
50.6059
50.606
50.6062
50.6063
50.6065
50.6067
50.607
50.6074
50.6079
50.6087
50.6094
50.6102
50.611
50.6117
50.6123
50.6128
50.6131
50.6134
50.6137
50.6139
50.6141
50.6143
50.6144
50.6146
50.6148
50.615
50.6153
50.6155
50.6158
50.616
50.6163
50.6166
50.617
50.6173
50.6177
50.618
50.6184
50.6328
50.6219
50.6394
50.6353
50.6274
50.6253
50.6247
50.624
50.623
50.6223
50.622
50.6215
50.621
50.6206
50.6203
50.6199
50.6195
50.6192
50.6189
50.6185
50.6182
50.618
50.6177
50.6175
50.6172
50.617
50.6168
50.6166
50.6164
50.6161
50.6159
50.6157
50.6154
50.6152
50.6149
50.6147
50.6144
50.6141
50.6138
50.6135
50.6132
50.6129
50.6126
50.6123
50.6119
50.6115
50.6112
50.6108
50.6105
50.61
50.6096
50.6091
50.6086
50.6081
50.6075
50.6071
50.6067
50.6063
50.6059
50.6055
50.6051
50.6046
50.6042
50.6039
50.6038
50.6038
50.6039
50.6041
50.6044
50.6046
50.6044
50.6022
50.5962
50.5913
50.5893
50.5895
50.5914
50.598
50.6057
50.6108
50.6136
50.6149
50.6154
50.6156
50.6156
50.6155
50.6154
50.6154
50.6154
50.6155
50.6157
50.6159
50.6161
50.6164
50.6167
50.617
50.6174
50.6177
50.6186
50.6179
50.6377
50.6216
50.64
50.6358
50.628
50.6262
50.6257
50.6251
50.624
50.6232
50.623
50.6226
50.6221
50.6216
50.6213
50.621
50.6206
50.6203
50.6199
50.6196
50.6193
50.619
50.6188
50.6185
50.6182
50.618
50.6178
50.6176
50.6173
50.6171
50.6169
50.6167
50.6164
50.6162
50.616
50.6157
50.6155
50.6152
50.6149
50.6146
50.6143
50.614
50.6137
50.6134
50.613
50.6127
50.6123
50.6119
50.6115
50.6112
50.6108
50.6104
50.6099
50.6094
50.609
50.6085
50.6081
50.6077
50.6074
50.6071
50.6068
50.6065
50.6063
50.606
50.6058
50.6057
50.6058
50.6059
50.6061
50.6064
50.6067
50.6065
50.6045
50.5971
50.5899
50.5869
50.587
50.5897
50.5987
50.6076
50.6129
50.6154
50.6163
50.6165
50.6164
50.616
50.6157
50.6155
50.6155
50.6156
50.6157
50.6159
50.6161
50.6163
50.6166
50.6169
50.6173
50.6177
50.6185
50.6176
50.5899
50.5773
50.5727
50.5719
50.5697
50.5649
50.5584
50.5515
50.5435
50.5358
50.5279
50.5199
50.5125
50.5054
50.499
50.4927
50.4873
50.4823
50.4788
50.477
50.5985
50.5954
50.596
50.5973
50.5962
50.5927
50.5869
50.5817
50.5746
50.5687
50.5619
50.5551
50.5487
50.5433
50.5379
50.5329
50.5284
50.5243
50.5212
50.519
50.6194
50.6195
50.6185
50.6166
50.614
50.6107
50.6067
50.6017
50.5965
50.5907
50.5844
50.5768
50.5682
50.5587
50.548
50.5364
50.5255
50.5159
50.508
50.4995
50.6297
50.6333
50.6334
50.6319
50.6307
50.6297
50.6293
50.629
50.626
50.6192
50.6125
50.6071
50.6027
50.6002
50.6051
50.6165
50.6216
50.6148
50.5972
50.5762
50.633
50.6399
50.6408
50.6392
50.6378
50.6368
50.6363
50.6358
50.6332
50.627
50.6201
50.6143
50.6096
50.6068
50.6116
50.6218
50.6289
50.6252
50.6121
50.5914
50.4997
50.505
50.5049
50.5044
50.5042
50.5044
50.505
50.5057
50.5066
50.5074
50.5083
50.5091
50.5101
50.5111
50.5121
50.5132
50.5143
50.5155
50.5168
50.5181
50.5194
50.5209
50.5223
50.5238
50.5254
50.527
50.5287
50.5304
50.5321
50.5339
50.5358
50.5376
50.5396
50.5416
50.5436
50.5457
50.5478
50.55
50.5521
50.5543
50.5566
50.5588
50.5611
50.5634
50.5657
50.568
50.5703
50.5727
50.5751
50.5775
50.58
50.5825
50.5849
50.5874
50.5898
50.5923
50.5949
50.5973
50.5996
50.6019
50.6045
50.6075
50.6107
50.6139
50.6161
50.6145
50.6096
50.6077
50.6093
50.6132
50.619
50.6294
50.6402
50.649
50.6562
50.6622
50.6673
50.6718
50.6761
50.6802
50.6842
50.688
50.6919
50.6958
50.6997
50.7037
50.7077
50.7117
50.7158
50.7199
50.724
50.7282
50.7325
50.7367
50.741
50.7454
50.7497
50.7541
50.7586
50.7631
50.7676
50.7721
50.7767
50.7813
50.786
50.7907
50.7954
50.8001
50.805
50.8098
50.8147
50.8197
50.8247
50.8297
50.8348
50.8399
50.8451
50.8504
50.8557
50.8611
50.8665
50.872
50.8775
50.8831
50.8888
50.8945
50.9003
50.9061
50.9119
50.9179
50.9238
50.9298
50.9359
50.942
50.9481
50.9543
50.9605
50.9668
50.9731
50.9794
50.9857
50.9921
50.9986
51.005
51.0115
51.018
51.0245
51.0311
51.0377
51.0444
51.051
51.0577
51.0644
51.0712
51.0779
51.0847
51.0916
51.0984
51.1053
51.1122
51.1191
51.126
51.133
51.14
51.1471
51.1541
51.1612
51.1684
51.1755
51.1827
51.19
51.1973
51.2046
51.212
51.2194
51.2269
51.2344
51.2419
51.2495
51.2572
51.2649
51.2726
51.2804
51.2882
51.2961
51.3039
51.312
51.3198
51.328
51.3358
51.3441
51.3519
51.3603
51.3681
51.3766
51.3844
51.393
51.4007
51.4095
51.4177
50.5145
50.514
50.5132
50.5124
50.5121
50.5123
50.5128
50.5135
50.5143
50.5152
50.5161
50.5169
50.5179
50.5189
50.5199
50.521
50.5221
50.5232
50.5245
50.5257
50.5271
50.5284
50.5299
50.5314
50.5329
50.5345
50.5362
50.5379
50.5396
50.5414
50.5432
50.5451
50.5471
50.5491
50.5511
50.5532
50.5553
50.5574
50.5596
50.5618
50.564
50.5663
50.5685
50.5708
50.5731
50.5754
50.5778
50.5802
50.5825
50.5849
50.5873
50.5898
50.5921
50.5947
50.5973
50.5998
50.6022
50.6046
50.6072
50.6098
50.6122
50.6144
50.6167
50.6195
50.6226
50.6254
50.6268
50.6275
50.6286
50.631
50.6346
50.6389
50.6444
50.6523
50.6596
50.6654
50.6701
50.6745
50.6786
50.6821
50.6855
50.6891
50.6927
50.6964
50.7002
50.704
50.7079
50.7119
50.7159
50.72
50.7242
50.7284
50.7326
50.7368
50.7411
50.7455
50.7498
50.7542
50.7587
50.7632
50.7677
50.7722
50.7768
50.7814
50.7861
50.7907
50.7955
50.8002
50.8051
50.8099
50.8148
50.8198
50.8247
50.8298
50.8349
50.84
50.8452
50.8505
50.8558
50.8612
50.8666
50.8721
50.8776
50.8832
50.8889
50.8946
50.9003
50.9062
50.912
50.9179
50.9239
50.9299
50.936
50.9421
50.9482
50.9544
50.9606
50.9669
50.9732
50.9795
50.9858
50.9922
50.9987
51.0051
51.0116
51.0181
51.0246
51.0312
51.0378
51.0445
51.0511
51.0578
51.0645
51.0713
51.078
51.0848
51.0916
51.0985
51.1054
51.1123
51.1192
51.1261
51.1331
51.1401
51.1471
51.1542
51.1613
51.1684
51.1756
51.1828
51.1901
51.1974
51.2047
51.2121
51.2195
51.227
51.2345
51.242
51.2496
51.2573
51.265
51.2727
51.2805
51.2883
51.2962
51.304
51.3121
51.3199
51.3281
51.3359
51.3442
51.352
51.3604
51.3682
51.3767
51.3844
51.3931
51.4008
51.4096
51.4173
50.4758
50.4864
50.4938
50.4954
50.4954
50.4956
50.4962
50.497
50.4979
50.4988
50.4997
50.5007
50.5018
50.5029
50.504
50.5051
50.5063
50.5075
50.5087
50.5099
50.5112
50.5126
50.514
50.5154
50.517
50.5185
50.5201
50.5218
50.5236
50.5254
50.5272
50.5291
50.5311
50.5331
50.5351
50.5372
50.5393
50.5414
50.5434
50.5456
50.5477
50.5499
50.5519
50.554
50.556
50.558
50.5601
50.5622
50.5644
50.5669
50.5696
50.5726
50.5766
50.5824
50.5881
50.5933
50.598
50.6022
50.6058
50.6092
50.6125
50.6157
50.6188
50.6219
50.625
50.6282
50.6315
50.6349
50.6384
50.6422
50.646
50.6499
50.6539
50.6578
50.6618
50.6656
50.6694
50.6731
50.6769
50.6806
50.6843
50.6882
50.692
50.6958
50.6998
50.7037
50.7077
50.7118
50.7158
50.72
50.7241
50.7283
50.7325
50.7368
50.7411
50.7455
50.7498
50.7542
50.7587
50.7632
50.7677
50.7722
50.7768
50.7814
50.7861
50.7907
50.7955
50.8002
50.8051
50.8099
50.8148
50.8198
50.8247
50.8298
50.8349
50.84
50.8452
50.8505
50.8558
50.8612
50.8666
50.8721
50.8776
50.8832
50.8889
50.8946
50.9003
50.9062
50.912
50.9179
50.9239
50.9299
50.936
50.9421
50.9482
50.9544
50.9606
50.9669
50.9732
50.9795
50.9858
50.9922
50.9987
51.0051
51.0116
51.0181
51.0246
51.0312
51.0378
51.0445
51.0511
51.0578
51.0645
51.0713
51.078
51.0848
51.0916
51.0985
51.1054
51.1123
51.1192
51.1261
51.1331
51.1401
51.1471
51.1542
51.1613
51.1684
51.1756
51.1828
51.1901
51.1974
51.2047
51.2121
51.2195
51.227
51.2345
51.242
51.2496
51.2573
51.265
51.2727
51.2805
51.2883
51.2962
51.3041
51.312
51.32
51.328
51.336
51.3441
51.3522
51.3602
51.3684
51.3766
51.3845
51.393
51.4009
51.4091
51.4173
50.5134
50.5097
50.5232
50.518
50.513
50.5125
50.5133
50.5137
50.514
50.5147
50.5156
50.5165
50.5173
50.5183
50.5194
50.5205
50.5217
50.5228
50.5241
50.5254
50.5267
50.5281
50.5295
50.5309
50.5324
50.534
50.5356
50.5373
50.539
50.5408
50.5426
50.5445
50.5465
50.5485
50.5505
50.5526
50.5547
50.5568
50.559
50.5612
50.5634
50.5657
50.5679
50.5702
50.5725
50.5748
50.5771
50.5795
50.5818
50.5841
50.5864
50.5887
50.5911
50.5935
50.5959
50.5985
50.6012
50.6037
50.6062
50.6086
50.611
50.6136
50.6163
50.6192
50.6223
50.6256
50.6292
50.6324
50.6345
50.6328
50.6299
50.6297
50.6325
50.6371
50.6447
50.6564
50.6657
50.6725
50.6776
50.6821
50.6862
50.6896
50.6931
50.6967
50.7003
50.7041
50.708
50.712
50.716
50.7201
50.7242
50.7284
50.7326
50.7368
50.7411
50.7455
50.7498
50.7542
50.7587
50.7632
50.7677
50.7722
50.7768
50.7814
50.7861
50.7907
50.7955
50.8002
50.8051
50.8099
50.8148
50.8198
50.8247
50.8298
50.8349
50.84
50.8452
50.8505
50.8558
50.8612
50.8666
50.8721
50.8776
50.8832
50.8889
50.8946
50.9003
50.9062
50.912
50.9179
50.9239
50.9299
50.936
50.9421
50.9482
50.9544
50.9606
50.9669
50.9732
50.9795
50.9858
50.9922
50.9987
51.0051
51.0116
51.0181
51.0246
51.0312
51.0378
51.0445
51.0511
51.0578
51.0645
51.0713
51.078
51.0848
51.0916
51.0985
51.1054
51.1123
51.1192
51.1261
51.1331
51.1401
51.1471
51.1542
51.1613
51.1684
51.1756
51.1828
51.1901
51.1974
51.2047
51.2121
51.2195
51.227
51.2345
51.242
51.2496
51.2573
51.265
51.2727
51.2805
51.2883
51.2961
51.3041
51.3119
51.3201
51.3279
51.3361
51.344
51.3523
51.3601
51.3686
51.3763
51.3849
51.3926
51.4012
51.4082
51.4173
50.5177
50.5092
50.5236
50.5186
50.5136
50.5134
50.5143
50.5148
50.515
50.5157
50.5167
50.5176
50.5184
50.5193
50.5204
50.5215
50.5226
50.5238
50.5251
50.5263
50.5277
50.529
50.5304
50.5319
50.5334
50.535
50.5366
50.5383
50.54
50.5418
50.5437
50.5456
50.5475
50.5495
50.5515
50.5536
50.5557
50.5578
50.56
50.5622
50.5644
50.5667
50.5689
50.5712
50.5735
50.5758
50.5781
50.5805
50.5828
50.5852
50.5876
50.5899
50.5923
50.5948
50.5972
50.5997
50.6024
50.6051
50.6078
50.6105
50.6132
50.6158
50.6185
50.6213
50.6242
50.6273
50.6307
50.6343
50.6376
50.6398
50.6372
50.6318
50.6303
50.633
50.6381
50.6482
50.6616
50.6714
50.678
50.6828
50.6871
50.6906
50.6936
50.697
50.7005
50.7042
50.708
50.712
50.716
50.72
50.7241
50.7283
50.7325
50.7368
50.741
50.7454
50.7497
50.7542
50.7586
50.7631
50.7676