/*--------------------------------*- C++ -*----------------------------------*\
| =========                 |                                                 |
| \\      /  F ield         | OpenFOAM: The Open Source CFD Toolbox           |
|  \\    /   O peration     | Version:  3.0.x                                 |
|   \\  /    A nd           | Web:      www.OpenFOAM.org                      |
|    \\/     M anipulation  |                                                 |
\*---------------------------------------------------------------------------*/
FoamFile
{
    version     2.0;
    format      ascii;
    class       volScalarField;
    location    "0.32";
    object      T;
}
// * * * * * * * * * * * * * * * * * * * * * * * * * * * * * * * * * * * * * //

dimensions      [0 0 0 1 0 0 0];

internalField   nonuniform List<scalar> 
6900
(
774.444
774.444
774.444
774.444
774.444
774.443
774.443
774.443
774.443
774.443
774.442
774.441
774.438
774.435
774.432
774.43
774.428
774.428
774.427
774.427
774.427
774.426
774.424
774.422
774.42
774.416
774.413
774.409
774.406
774.402
774.399
774.397
774.395
774.394
774.394
774.393
774.393
774.391
774.388
774.386
774.383
774.38
774.378
774.376
774.375
774.374
774.373
774.373
774.373
774.373
774.373
774.373
774.373
774.373
774.373
774.373
774.373
774.373
774.374
774.374
774.374
774.374
774.374
774.374
774.374
774.374
774.374
774.374
774.374
774.374
774.374
774.374
774.374
774.374
774.373
774.373
774.373
774.373
774.373
774.373
774.373
774.373
774.373
774.374
774.374
774.374
774.374
774.374
774.375
774.375
774.375
774.375
774.376
774.376
774.376
774.376
774.377
774.377
774.377
774.377
774.377
774.377
774.377
774.377
774.377
774.377
774.376
774.376
774.376
774.376
774.376
774.375
774.375
774.375
774.375
774.375
774.374
774.374
774.374
774.374
774.374
774.375
774.375
774.375
774.375
774.375
774.376
774.376
774.376
774.377
774.377
774.377
774.377
774.377
774.377
774.377
774.377
774.377
774.376
774.376
774.375
774.375
774.374
774.373
774.373
774.372
774.371
774.37
774.369
774.368
774.368
774.367
774.366
774.365
774.365
774.364
774.363
774.363
774.362
774.362
774.362
774.361
774.361
774.361
774.36
774.36
774.36
774.359
774.359
774.358
774.357
774.356
774.355
774.354
774.353
774.351
774.35
774.348
774.346
774.345
774.343
774.341
774.339
774.337
774.335
774.334
774.332
774.33
774.328
774.327
774.325
774.324
774.322
774.321
774.32
774.319
774.318
774.319
774.318
774.388
774.441
774.441
774.441
774.441
774.441
774.441
774.441
774.441
774.441
774.441
774.44
774.439
774.436
774.433
774.43
774.428
774.426
774.426
774.425
774.425
774.425
774.424
774.422
774.42
774.418
774.415
774.411
774.408
774.404
774.401
774.397
774.395
774.393
774.392
774.392
774.392
774.391
774.389
774.387
774.384
774.381
774.379
774.376
774.375
774.373
774.372
774.372
774.371
774.371
774.371
774.371
774.371
774.371
774.371
774.372
774.372
774.372
774.372
774.372
774.372
774.372
774.372
774.372
774.373
774.373
774.373
774.372
774.372
774.372
774.372
774.372
774.372
774.372
774.372
774.372
774.372
774.372
774.372
774.372
774.372
774.372
774.372
774.372
774.372
774.372
774.372
774.373
774.373
774.373
774.373
774.374
774.374
774.374
774.374
774.375
774.375
774.375
774.375
774.375
774.375
774.376
774.376
774.376
774.375
774.375
774.375
774.375
774.375
774.375
774.374
774.374
774.374
774.374
774.373
774.373
774.373
774.373
774.373
774.373
774.373
774.373
774.373
774.373
774.373
774.374
774.374
774.374
774.375
774.375
774.375
774.375
774.376
774.376
774.376
774.376
774.376
774.375
774.375
774.375
774.374
774.374
774.373
774.373
774.372
774.371
774.37
774.37
774.369
774.368
774.367
774.366
774.365
774.364
774.364
774.363
774.362
774.362
774.361
774.361
774.36
774.36
774.36
774.359
774.359
774.359
774.359
774.358
774.358
774.357
774.357
774.356
774.355
774.354
774.353
774.351
774.35
774.348
774.347
774.345
774.343
774.341
774.34
774.338
774.336
774.334
774.332
774.33
774.329
774.327
774.325
774.324
774.322
774.321
774.32
774.318
774.318
774.316
774.317
774.317
774.382
774.441
774.441
774.441
774.441
774.441
774.441
774.441
774.441
774.441
774.441
774.44
774.439
774.436
774.433
774.43
774.428
774.426
774.426
774.425
774.425
774.425
774.424
774.422
774.42
774.418
774.415
774.411
774.408
774.404
774.401
774.397
774.395
774.393
774.392
774.392
774.392
774.391
774.389
774.387
774.384
774.381
774.379
774.376
774.375
774.373
774.372
774.372
774.371
774.371
774.371
774.371
774.371
774.371
774.371
774.372
774.372
774.372
774.372
774.372
774.372
774.372
774.372
774.372
774.373
774.373
774.373
774.372
774.372
774.372
774.372
774.372
774.372
774.372
774.372
774.372
774.372
774.372
774.372
774.372
774.372
774.372
774.372
774.372
774.372
774.372
774.372
774.373
774.373
774.373
774.373
774.374
774.374
774.374
774.374
774.375
774.375
774.375
774.375
774.375
774.375
774.376
774.376
774.376
774.375
774.375
774.375
774.375
774.375
774.375
774.374
774.374
774.374
774.374
774.373
774.373
774.373
774.373
774.373
774.373
774.373
774.373
774.373
774.373
774.373
774.374
774.374
774.374
774.375
774.375
774.375
774.375
774.376
774.376
774.376
774.376
774.376
774.375
774.375
774.375
774.374
774.374
774.373
774.373
774.372
774.371
774.37
774.37
774.369
774.368
774.367
774.366
774.365
774.364
774.364
774.363
774.362
774.362
774.361
774.361
774.36
774.36
774.36
774.359
774.359
774.359
774.359
774.358
774.358
774.357
774.357
774.356
774.355
774.354
774.353
774.351
774.35
774.348
774.347
774.345
774.343
774.341
774.34
774.338
774.336
774.334
774.332
774.33
774.329
774.327
774.325
774.324
774.322
774.321
774.32
774.318
774.318
774.316
774.316
774.315
774.319
774.441
774.441
774.441
774.441
774.441
774.441
774.441
774.441
774.441
774.441
774.44
774.439
774.436
774.433
774.43
774.428
774.426
774.426
774.425
774.425
774.425
774.424
774.422
774.42
774.418
774.415
774.411
774.408
774.404
774.401
774.397
774.395
774.393
774.392
774.392
774.392
774.391
774.389
774.387
774.384
774.381
774.379
774.376
774.375
774.373
774.372
774.372
774.371
774.371
774.371
774.371
774.371
774.371
774.371
774.372
774.372
774.372
774.372
774.372
774.372
774.372
774.372
774.372
774.373
774.373
774.373
774.372
774.372
774.372
774.372
774.372
774.372
774.372
774.372
774.372
774.372
774.372
774.372
774.372
774.372
774.372
774.372
774.372
774.372
774.372
774.372
774.373
774.373
774.373
774.373
774.374
774.374
774.374
774.374
774.375
774.375
774.375
774.375
774.375
774.375
774.376
774.376
774.376
774.375
774.375
774.375
774.375
774.375
774.375
774.374
774.374
774.374
774.374
774.373
774.373
774.373
774.373
774.373
774.373
774.373
774.373
774.373
774.373
774.373
774.374
774.374
774.374
774.375
774.375
774.375
774.375
774.376
774.376
774.376
774.376
774.376
774.375
774.375
774.375
774.374
774.374
774.373
774.373
774.372
774.371
774.37
774.37
774.369
774.368
774.367
774.366
774.365
774.365
774.364
774.363
774.362
774.362
774.361
774.361
774.36
774.36
774.36
774.359
774.359
774.359
774.359
774.358
774.358
774.357
774.357
774.356
774.355
774.354
774.353
774.351
774.35
774.348
774.347
774.345
774.343
774.341
774.34
774.338
774.336
774.334
774.332
774.33
774.329
774.327
774.325
774.324
774.322
774.321
774.319
774.319
774.317
774.317
774.313
774.318
774.19
774.444
774.444
774.444
774.444
774.444
774.443
774.443
774.443
774.443
774.443
774.442
774.441
774.438
774.435
774.432
774.43
774.428
774.428
774.427
774.427
774.427
774.426
774.424
774.422
774.42
774.416
774.413
774.409
774.406
774.402
774.399
774.397
774.395
774.394
774.394
774.393
774.393
774.391
774.388
774.386
774.383
774.38
774.378
774.376
774.375
774.374
774.373
774.373
774.373
774.373
774.373
774.373
774.373
774.373
774.373
774.373
774.373
774.373
774.374
774.374
774.374
774.374
774.374
774.374
774.374
774.374
774.374
774.374
774.374
774.374
774.374
774.374
774.374
774.374
774.373
774.373
774.373
774.373
774.373
774.373
774.373
774.373
774.373
774.374
774.374
774.374
774.374
774.374
774.375
774.375
774.375
774.375
774.376
774.376
774.376
774.376
774.377
774.377
774.377
774.377
774.377
774.377
774.377
774.377
774.377
774.377
774.376
774.376
774.376
774.376
774.376
774.375
774.375
774.375
774.375
774.375
774.374
774.374
774.374
774.374
774.374
774.375
774.375
774.375
774.375
774.375
774.376
774.376
774.376
774.377
774.377
774.377
774.377
774.377
774.377
774.377
774.377
774.377
774.376
774.376
774.375
774.375
774.374
774.373
774.373
774.372
774.371
774.37
774.369
774.368
774.368
774.367
774.366
774.365
774.365
774.364
774.363
774.363
774.362
774.362
774.362
774.361
774.361
774.361
774.36
774.36
774.36
774.359
774.359
774.358
774.357
774.356
774.355
774.354
774.353
774.351
774.35
774.348
774.346
774.345
774.343
774.341
774.339
774.337
774.335
774.334
774.332
774.33
774.328
774.327
774.325
774.323
774.322
774.321
774.32
774.319
774.318
774.314
774.327
774.102
774.372
774.386
774.384
774.384
774.38
774.377
774.375
774.377
774.378
774.361
774.35
774.34
774.309
774.281
774.278
774.285
774.296
774.306
774.269
774.106
774.359
774.362
774.36
774.355
774.351
774.344
774.34
774.341
774.34
774.318
774.308
774.3
774.272
774.227
774.215
774.225
774.238
774.245
774.216
774.053
774.318
774.318
774.315
774.311
774.304
774.298
774.291
774.282
774.274
774.268
774.262
774.256
774.245
774.235
774.227
774.22
774.212
774.206
774.209
774.222
774.245
774.247
774.253
774.252
774.246
774.232
774.216
774.194
774.175
774.157
774.139
774.118
774.101
774.085
774.067
774.056
774.047
774.035
774.027
774.014
774.191
774.17
774.168
774.17
774.169
774.165
774.153
774.138
774.123
774.11
774.091
774.081
774.063
774.056
774.041
774.037
774.027
774.027
774.031
774.055
774.004
773.996
773.979
773.965
773.981
773.983
773.968
773.959
773.96
773.964
773.964
773.96
773.957
773.957
773.956
773.955
773.953
773.951
773.949
773.947
773.946
773.944
773.942
773.941
773.939
773.938
773.936
773.934
773.933
773.932
773.93
773.929
773.928
773.928
773.927
773.926
773.925
773.923
773.922
773.921
773.921
773.92
773.919
773.918
773.916
773.915
773.913
773.912
773.911
773.909
773.908
773.907
773.907
773.907
773.907
773.908
773.909
773.909
773.909
773.909
773.909
773.91
773.913
773.918
773.924
773.929
773.933
773.935
773.936
773.94
773.955
774.018
774.16
774.255
774.285
774.277
774.205
774.048
773.937
773.877
773.853
773.848
773.849
773.856
773.865
773.871
773.875
773.878
773.879
773.881
773.881
773.882
773.882
773.882
773.882
773.882
773.882
773.882
773.882
773.882
773.881
773.881
773.881
773.881
773.881
773.88
773.88
773.88
773.88
773.88
773.88
773.88
773.88
773.88
773.88
773.88
773.881
773.881
773.881
773.881
773.882
773.882
773.882
773.883
773.883
773.884
773.884
773.884
773.885
773.885
773.885
773.885
773.886
773.886
773.886
773.886
773.886
773.886
773.886
773.886
773.885
773.885
773.885
773.884
773.884
773.884
773.883
773.883
773.882
773.882
773.881
773.88
773.88
773.879
773.879
773.878
773.878
773.877
773.877
773.876
773.876
773.876
773.876
773.875
773.875
773.875
773.876
773.876
773.876
773.876
773.876
773.877
773.877
773.877
773.877
773.877
773.877
773.877
773.877
773.877
773.877
773.876
773.876
773.875
773.874
773.873
773.873
773.871
773.871
773.869
773.868
773.867
773.866
773.864
773.863
773.861
773.86
773.854
773.858
773.672
773.999
773.999
773.985
773.979
773.998
773.998
773.982
773.976
773.979
773.982
773.981
773.977
773.974
773.974
773.973
773.97
773.968
773.966
773.965
773.963
773.961
773.959
773.958
773.956
773.954
773.953
773.951
773.95
773.949
773.947
773.947
773.946
773.945
773.945
773.944
773.943
773.942
773.942
773.941
773.942
773.941
773.941
773.939
773.936
773.934
773.932
773.93
773.928
773.927
773.926
773.926
773.926
773.927
773.929
773.93
773.931
773.931
773.931
773.932
773.932
773.935
773.941
773.947
773.952
773.957
773.96
773.961
773.962
773.966
773.979
774.033
774.138
774.208
774.234
774.232
774.19
774.072
773.971
773.909
773.878
773.866
773.863
773.863
773.866
773.871
773.874
773.877
773.878
773.879
773.88
773.881
773.881
773.881
773.881
773.881
773.881
773.881
773.881
773.88
773.88
773.88
773.88
773.88
773.879
773.879
773.879
773.879
773.879
773.879
773.879
773.879
773.879
773.879
773.879
773.879
773.879
773.879
773.879
773.88
773.88
773.88
773.881
773.881
773.881
773.882
773.882
773.883
773.883
773.883
773.884
773.884
773.884
773.884
773.884
773.884
773.885
773.884
773.884
773.884
773.884
773.884
773.884
773.883
773.883
773.883
773.882
773.882
773.881
773.881
773.88
773.88
773.879
773.878
773.878
773.877
773.877
773.876
773.876
773.875
773.875
773.875
773.874
773.874
773.874
773.874
773.874
773.874
773.874
773.875
773.875
773.875
773.875
773.875
773.876
773.876
773.876
773.876
773.876
773.876
773.875
773.875
773.875
773.874
773.873
773.873
773.872
773.871
773.87
773.869
773.868
773.867
773.866
773.864
773.863
773.862
773.86
773.859
773.854
773.852
773.745
774.196
774.201
774.229
774.238
774.24
774.237
774.237
774.237
774.236
774.234
774.231
774.228
774.225
774.222
774.219
774.216
774.213
774.21
774.208
774.205
774.203
774.202
774.2
774.199
774.199
774.198
774.197
774.196
774.195
774.194
774.192
774.19
774.189
774.187
774.186
774.185
774.185
774.185
774.186
774.187
774.187
774.187
774.188
774.19
774.192
774.195
774.197
774.199
774.2
774.2
774.199
774.196
774.183
774.144
774.089
774.041
774.001
773.97
773.948
773.933
773.925
773.921
773.92
773.919
773.92
773.922
773.925
773.927
773.927
773.927
773.925
773.92
773.914
773.908
773.902
773.897
773.893
773.89
773.889
773.888
773.887
773.887
773.886
773.885
773.885
773.884
773.884
773.884
773.883
773.883
773.882
773.882
773.882
773.882
773.881
773.881
773.881
773.881
773.88
773.88
773.88
773.88
773.88
773.879
773.879
773.879
773.879
773.879
773.879
773.879
773.879
773.879
773.879
773.879
773.879
773.879
773.879
773.879
773.88
773.88
773.88
773.881
773.881
773.881
773.882
773.882
773.883
773.883
773.883
773.884
773.884
773.884
773.884
773.884
773.884
773.885
773.884
773.884
773.884
773.884
773.884
773.884
773.883
773.883
773.883
773.882
773.882
773.881
773.881
773.88
773.88
773.879
773.878
773.878
773.877
773.877
773.876
773.876
773.875
773.875
773.875
773.874
773.874
773.874
773.874
773.874
773.874
773.874
773.875
773.875
773.875
773.875
773.875
773.876
773.876
773.876
773.876
773.876
773.876
773.875
773.875
773.875
773.874
773.874
773.873
773.872
773.871
773.87
773.869
773.868
773.867
773.866
773.864
773.863
773.861
773.86
773.858
773.857
773.855
773.856
773.993
773.983
773.979
773.98
773.979
773.973
773.97
773.97
773.971
773.971
773.97
773.968
773.968
773.967
773.966
773.964
773.963
773.962
773.96
773.959
773.957
773.955
773.953
773.951
773.95
773.948
773.946
773.945
773.943
773.941
773.939
773.938
773.936
773.934
773.933
773.931
773.93
773.929
773.928
773.927
773.927
773.926
773.925
773.924
773.923
773.922
773.921
773.92
773.919
773.919
773.918
773.918
773.917
773.917
773.917
773.917
773.918
773.92
773.923
773.926
773.93
773.938
773.95
773.961
773.969
773.973
773.98
773.999
774.039
774.075
774.094
774.098
774.095
774.072
774.007
773.945
773.903
773.88
773.869
773.866
773.865
773.867
773.87
773.873
773.876
773.878
773.879
773.88
773.881
773.881
773.881
773.881
773.881
773.881
773.881
773.881
773.881
773.881
773.88
773.88
773.88
773.88
773.88
773.879
773.879
773.879
773.879
773.879
773.879
773.879
773.879
773.879
773.879
773.879
773.879
773.879
773.879
773.879
773.88
773.88
773.88
773.881
773.881
773.881
773.882
773.882
773.883
773.883
773.883
773.884
773.884
773.884
773.884
773.884
773.884
773.885
773.884
773.884
773.884
773.884
773.884
773.884
773.883
773.883
773.883
773.882
773.882
773.881
773.881
773.88
773.88
773.879
773.878
773.878
773.877
773.877
773.876
773.876
773.875
773.875
773.875
773.874
773.874
773.874
773.874
773.874
773.874
773.874
773.874
773.875
773.875
773.875
773.875
773.876
773.876
773.876
773.876
773.876
773.876
773.875
773.875
773.875
773.874
773.874
773.873
773.872
773.871
773.87
773.869
773.868
773.867
773.866
773.864
773.863
773.861
773.86
773.858
773.858
773.859
773.91
774.113
774.112
774.106
774.106
774.104
774.099
774.097
774.097
774.097
774.097
774.095
774.094
774.094
774.092
774.091
774.089
774.088
774.086
774.084
774.081
774.079
774.077
774.075
774.073
774.07
774.068
774.065
774.063
774.06
774.058
774.056
774.054
774.052
774.051
774.049
774.048
774.047
774.046
774.046
774.045
774.044
774.043
774.042
774.041
774.039
774.037
774.036
774.035
774.034
774.033
774.032
774.032
774.031
774.031
774.031
774.031
774.032
774.034
774.039
774.046
774.053
774.058
774.059
774.059
774.06
774.07
774.123
774.247
774.335
774.37
774.373
774.348
774.251
774.137
774.052
773.994
773.954
773.928
773.911
773.901
773.895
773.891
773.889
773.887
773.886
773.885
773.885
773.885
773.884
773.884
773.884
773.883
773.883
773.883
773.883
773.883
773.882
773.882
773.882
773.882
773.881
773.881
773.881
773.881
773.881
773.88
773.88
773.88
773.88
773.88
773.88
773.88
773.88
773.88
773.88
773.88
773.881
773.881
773.881
773.881
773.882
773.882
773.882
773.883
773.883
773.884
773.884
773.884
773.885
773.885
773.885
773.885
773.886
773.886
773.886
773.886
773.886
773.886
773.886
773.886
773.885
773.885
773.885
773.884
773.884
773.884
773.883
773.883
773.882
773.882
773.881
773.88
773.88
773.879
773.879
773.878
773.878
773.877
773.877
773.876
773.876
773.876
773.876
773.875
773.875
773.875
773.876
773.876
773.876
773.876
773.876
773.877
773.877
773.877
773.877
773.877
773.877
773.877
773.877
773.877
773.877
773.876
773.876
773.875
773.874
773.873
773.872
773.872
773.87
773.869
773.868
773.867
773.866
773.864
773.863
773.862
773.86
773.86
773.861
773.915
773.737
773.716
773.71
773.712
773.71
773.704
773.69
773.681
773.662
773.652
773.634
773.621
773.605
773.595
773.581
773.575
773.564
773.566
773.573
773.606
773.787
773.786
773.792
773.79
773.783
773.768
773.751
773.735
773.713
773.697
773.676
773.658
773.647
773.628
773.61
773.599
773.586
773.576
773.567
773.564
773.856
773.855
773.852
773.847
773.84
773.833
773.826
773.819
773.811
773.803
773.793
773.783
773.776
773.769
773.763
773.766
773.77
773.769
773.752
773.73
773.896
773.898
773.897
773.893
773.889
773.885
773.879
773.869
773.859
773.844
773.82
773.81
773.818
773.832
773.826
773.773
773.733
773.722
773.705
773.669
773.908
773.922
773.92
773.92
773.918
773.917
773.913
773.906
773.897
773.882
773.865
773.862
773.868
773.88
773.87
773.83
773.798
773.778
773.741
773.691
773.667
773.666
773.665
773.66
773.65
773.648
773.647
773.646
773.643
773.641
773.639
773.637
773.635
773.633
773.631
773.63
773.628
773.627
773.626
773.625
773.625
773.624
773.623
773.622
773.621
773.62
773.619
773.617
773.616
773.614
773.613
773.611
773.61
773.609
773.608
773.607
773.606
773.605
773.604
773.603
773.602
773.601
773.601
773.599
773.598
773.597
773.595
773.594
773.594
773.593
773.592
773.59
773.588
773.587
773.587
773.587
773.588
773.589
773.591
773.594
773.599
773.604
773.608
773.609
773.61
773.611
773.618
773.655
773.768
773.87
773.917
773.926
773.912
773.835
773.718
773.628
773.566
773.523
773.495
773.478
773.467
773.461
773.457
773.455
773.454
773.454
773.454
773.454
773.454
773.455
773.455
773.456
773.457
773.458
773.459
773.459
773.461
773.458
773.463
773.293
773.544
773.539
773.539
773.534
773.525
773.523
773.523
773.524
773.522
773.518
773.517
773.516
773.515
773.513
773.512
773.511
773.509
773.508
773.507
773.506
773.506
773.505
773.504
773.504
773.503
773.502
773.502
773.501
773.5
773.499
773.498
773.497
773.496
773.495
773.494
773.493
773.492
773.491
773.49
773.489
773.488
773.487
773.487
773.486
773.485
773.484
773.483
773.482
773.481
773.48
773.479
773.478
773.477
773.476
773.476
773.475
773.475
773.476
773.477
773.48
773.484
773.487
773.492
773.502
773.513
773.52
773.525
773.531
773.545
773.581
773.62
773.644
773.652
773.651
773.638
773.586
773.521
773.475
773.448
773.435
773.431
773.43
773.432
773.435
773.439
773.443
773.445
773.448
773.449
773.451
773.452
773.453
773.455
773.456
773.457
773.458
773.459
773.457
773.457
773.362
773.726
773.768
773.784
773.78
773.775
773.775
773.775
773.774
773.772
773.77
773.768
773.767
773.766
773.765
773.763
773.762
773.76
773.757
773.754
773.752
773.75
773.748
773.746
773.745
773.744
773.744
773.743
773.743
773.742
773.742
773.741
773.74
773.74
773.739
773.739
773.738
773.738
773.738
773.739
773.74
773.741
773.742
773.742
773.743
773.743
773.744
773.747
773.75
773.752
773.753
773.753
773.753
773.75
773.74
773.706
773.655
773.607
773.566
773.535
773.512
773.497
773.487
773.481
773.479
773.478
773.479
773.48
773.482
773.483
773.484
773.485
773.483
773.479
773.474
773.469
773.463
773.459
773.456
773.453
773.452
773.452
773.452
773.452
773.452
773.452
773.453
773.453
773.453
773.453
773.454
773.454
773.455
773.456
773.457
773.457
773.458
773.459
773.46
773.461
773.465
773.513
773.53
773.545
773.564
773.546
773.522
773.52
773.529
773.533
773.528
773.522
773.521
773.521
773.521
773.52
773.518
773.518
773.517
773.517
773.516
773.515
773.514
773.512
773.511
773.51
773.509
773.507
773.506
773.505
773.504
773.503
773.503
773.502
773.502
773.501
773.501
773.501
773.501
773.5
773.5
773.499
773.498
773.497
773.496
773.495
773.494
773.493
773.492
773.49
773.489
773.489
773.489
773.489
773.489
773.489
773.489
773.488
773.488
773.488
773.488
773.49
773.495
773.499
773.503
773.506
773.509
773.51
773.512
773.513
773.516
773.526
773.566
773.666
773.748
773.787
773.791
773.768
773.673
773.561
773.489
773.45
773.433
773.429
773.429
773.432
773.437
773.441
773.445
773.447
773.45
773.451
773.453
773.454
773.455
773.456
773.458
773.459
773.461
773.464
773.516
773.518
773.538
773.537
773.557
773.536
773.508
773.504
773.512
773.517
773.513
773.507
773.505
773.505
773.505
773.504
773.502
773.501
773.501
773.5
773.499
773.498
773.497
773.496
773.495
773.494
773.493
773.492
773.491
773.49
773.489
773.488
773.487
773.487
773.486
773.485
773.485
773.484
773.484
773.484
773.483
773.482
773.481
773.48
773.479
773.478
773.477
773.477
773.476
773.474
773.472
773.471
773.469
773.469
773.468
773.468
773.468
773.467
773.466
773.464
773.464
773.464
773.465
773.468
773.472
773.475
773.479
773.482
773.485
773.487
773.489
773.492
773.501
773.539
773.659
773.778
773.83
773.835
773.8
773.668
773.536
773.46
773.426
773.416
773.415
773.42
773.43
773.437
773.442
773.446
773.449
773.451
773.454
773.455
773.456
773.458
773.459
773.46
773.463
773.466
773.521
773.353
773.333
773.328
773.33
773.329
773.324
773.311
773.302
773.284
773.275
773.258
773.246
773.231
773.222
773.209
773.203
773.194
773.197
773.204
773.236
773.401
773.402
773.407
773.406
773.399
773.385
773.368
773.354
773.333
773.318
773.298
773.285
773.271
773.251
773.238
773.227
773.215
773.207
773.199
773.196
773.467
773.465
773.464
773.459
773.454
773.448
773.442
773.436
773.429
773.422
773.413
773.404
773.398
773.392
773.39
773.396
773.398
773.393
773.371
773.357
773.505
773.509
773.508
773.505
773.502
773.499
773.493
773.483
773.473
773.456
773.441
773.441
773.455
773.47
773.443
773.384
773.362
773.358
773.333
773.291
773.517
773.531
773.53
773.531
773.53
773.53
773.525
773.519
773.51
773.495
773.487
773.49
773.501
773.513
773.486
773.447
773.419
773.405
773.361
773.318
773.296
773.301
773.302
773.3
773.297
773.298
773.301
773.303
773.304
773.306
773.309
773.312
773.315
773.319
773.322
773.325
773.328
773.332
773.335
773.338
773.341
773.345
773.348
773.352
773.356
773.361
773.365
773.37
773.376
773.381
773.387
773.392
773.398
773.405
773.411
773.417
773.424
773.43
773.437
773.444
773.451
773.457
773.464
773.471
773.478
773.486
773.493
773.5
773.508
773.515
773.522
773.528
773.536
773.545
773.555
773.564
773.574
773.586
773.602
773.617
773.631
773.64
773.646
773.655
773.679
773.763
773.897
773.988
774.026
774.029
774.003
773.909
773.808
773.74
773.696
773.67
773.658
773.657
773.658
773.662
773.671
773.681
773.691
773.703
773.714
773.726
773.738
773.75
773.763
773.775
773.788
773.801
773.814
773.827
773.84
773.853
773.866
773.88
773.893
773.907
773.921
773.935
773.949
773.963
773.977
773.991
774.006
774.02
774.035
774.05
774.065
774.08
774.095
774.111
774.126
774.142
774.158
774.174
774.19
774.207
774.223
774.24
774.257
774.274
774.291
774.309
774.326
774.344
774.362
774.38
774.398
774.416
774.435
774.453
774.472
774.491
774.51
774.529
774.548
774.567
774.587
774.606
774.626
774.645
774.665
774.685
774.705
774.725
774.745
774.765
774.786
774.806
774.826
774.847
774.867
774.888
774.909
774.93
774.951
774.972
774.993
775.014
775.035
775.056
775.078
775.099
775.121
775.142
775.164
775.186
775.208
775.23
775.253
775.275
775.297
775.32
775.343
775.366
775.389
775.412
775.435
775.459
775.482
775.506
775.53
775.555
775.577
775.603
775.625
775.652
775.673
775.702
775.722
775.752
775.771
775.802
775.82
775.852
775.87
775.907
773.177
773.178
773.18
773.178
773.176
773.177
773.181
773.184
773.185
773.186
773.189
773.193
773.196
773.199
773.203
773.206
773.21
773.213
773.217
773.221
773.225
773.229
773.233
773.237
773.241
773.246
773.25
773.255
773.261
773.266
773.272
773.278
773.284
773.29
773.296
773.303
773.309
773.316
773.322
773.329
773.336
773.343
773.35
773.357
773.365
773.372
773.379
773.386
773.394
773.402
773.409
773.417
773.426
773.434
773.441
773.45
773.461
773.474
773.486
773.498
773.514
773.535
773.555
773.57
773.58
773.596
773.634
773.686
773.73
773.757
773.766
773.764
773.745
773.689
773.643
773.621
773.615
773.616
773.62
773.634
773.65
773.665
773.679
773.694
773.707
773.721
773.734
773.747
773.76
773.773
773.786
773.799
773.812
773.825
773.838
773.851
773.865
773.878
773.892
773.906
773.919
773.933
773.947
773.961
773.976
773.99
774.004
774.019
774.034
774.049
774.064
774.079
774.094
774.109
774.125
774.141
774.157
774.173
774.189
774.205
774.222
774.238
774.255
774.272
774.29
774.307
774.325
774.342
774.36
774.378
774.397
774.415
774.433
774.452
774.471
774.49
774.508
774.528
774.547
774.566
774.585
774.605
774.624
774.644
774.664
774.684
774.704
774.724
774.744
774.764
774.784
774.805
774.825
774.845
774.866
774.887
774.907
774.928
774.949
774.97
774.991
775.012
775.034
775.055
775.076
775.098
775.119
775.141
775.163
775.185
775.207
775.229
775.251
775.274
775.296
775.319
775.342
775.364
775.388
775.411
775.434
775.458
775.481
775.505
775.528
775.553
775.576
775.602
775.624
775.651
775.672
775.701
775.721
775.75
775.769
775.8
775.818
775.851
775.869
775.911
773.361
773.408
773.422
773.421
773.421
773.426
773.431
773.434
773.435
773.437
773.44
773.441
773.443
773.444
773.446
773.448
773.451
773.454
773.458
773.462
773.467
773.471
773.476
773.481
773.485
773.49
773.495
773.5
773.506
773.511
773.517
773.523
773.528
773.534
773.541
773.547
773.554
773.562
773.57
773.577
773.585
773.594
773.604
773.615
773.626
773.638
773.649
773.659
773.669
773.676
773.679
773.677
773.661
773.618
773.577
773.545
773.521
773.506
773.501
773.501
773.503
773.508
773.517
773.527
773.538
773.549
773.56
773.569
773.577
773.584
773.589
773.594
773.598
773.603
773.609
773.616
773.625
773.635
773.646
773.657
773.668
773.679
773.69
773.702
773.713
773.725
773.737
773.749
773.761
773.774
773.787
773.799
773.812
773.825
773.838
773.852
773.865
773.878
773.892
773.906
773.919
773.933
773.947
773.961
773.976
773.99
774.004
774.019
774.034
774.049
774.064
774.079
774.094
774.109
774.125
774.141
774.157
774.173
774.189
774.205
774.222
774.238
774.255
774.272
774.29
774.307
774.325
774.342
774.36
774.378
774.397
774.415
774.433
774.452
774.471
774.49
774.508
774.528
774.547
774.566
774.585
774.605
774.624
774.644
774.664
774.684
774.704
774.724
774.744
774.764
774.784
774.805
774.825
774.845
774.866
774.887
774.907
774.928
774.949
774.97
774.991
775.012
775.034
775.055
775.076
775.098
775.119
775.141
775.163
775.185
775.207
775.229
775.251
775.274
775.296
775.319
775.342
775.364
775.388
775.411
775.434
775.458
775.481
775.505
775.529
775.553
775.576
775.601
775.625
775.65
775.674
775.698
775.723
775.748
775.771
775.799
775.819
775.847
775.872
775.896
773.164
773.181
773.197
773.21
773.188
773.177
773.182
773.196
773.198
773.196
773.197
773.2
773.205
773.207
773.209
773.212
773.216
773.219
773.222
773.226
773.23
773.234
773.238
773.243
773.248
773.253
773.259
773.264
773.27
773.276
773.282
773.288
773.294
773.3
773.306
773.312
773.319
773.325
773.332
773.338
773.345
773.352
773.359
773.366
773.374
773.381
773.388
773.395
773.402
773.41
773.419
773.428
773.436
773.445
773.453
773.46
773.467
773.477
773.489
773.504
773.519
773.534
773.548
773.562
773.573
773.582
773.589
773.601
773.633
773.723
773.831
773.9
773.923
773.919
773.869
773.758
773.682
773.645
773.634
773.634
773.64
773.656
773.673
773.689
773.704
773.719
773.732
773.746
773.759
773.772
773.785
773.798
773.812
773.825
773.838
773.851
773.865
773.878
773.892
773.906
773.919
773.933
773.947
773.961
773.976
773.99
774.004
774.019
774.034
774.049
774.064
774.079
774.094
774.109
774.125
774.141
774.157
774.173
774.189
774.205
774.222
774.238
774.255
774.272
774.29
774.307
774.325
774.342
774.36
774.378
774.397
774.415
774.433
774.452
774.471
774.49
774.508
774.528
774.547
774.566
774.585
774.605
774.624
774.644
774.664
774.684
774.704
774.724
774.744
774.764
774.784
774.805
774.825
774.845
774.866
774.887
774.907
774.928
774.949
774.97
774.991
775.012
775.034
775.055
775.076
775.098
775.119
775.141
775.163
775.185
775.207
775.229
775.251
775.274
775.296
775.319
775.342
775.364
775.388
775.411
775.434
775.457
775.481
775.505
775.529
775.552
775.578
775.599
775.627
775.648
775.676
775.696
775.725
775.745
775.775
775.793
775.825
775.841
775.88
775.878
773.171
773.189
773.192
773.202
773.176
773.163
773.166
773.179
773.183
773.181
773.18
773.183
773.189
773.192
773.194
773.197
773.201
773.204
773.208
773.211
773.215
773.219
773.224
773.228
773.233
773.238
773.243
773.248
773.254
773.26
773.266
773.272
773.278
773.284
773.29
773.296
773.303
773.309
773.316
773.323
773.329
773.336
773.343
773.35
773.358
773.365
773.372
773.379
773.386
773.393
773.401
773.409
773.418
773.425
773.434
773.442
773.45
773.456
773.464
773.474
773.487
773.5
773.514
773.529
773.544
773.556
773.566
773.573
773.585
773.617
773.721
773.869
773.957
773.982
773.97
773.883
773.744
773.662
773.629
773.623
773.626
773.642
773.665
773.684
773.702
773.717