/*--------------------------------*- C++ -*----------------------------------*\
| =========                 |                                                 |
| \\      /  F ield         | OpenFOAM: The Open Source CFD Toolbox           |
|  \\    /   O peration     | Version:  3.0.x                                 |
|   \\  /    A nd           | Web:      www.OpenFOAM.org                      |
|    \\/     M anipulation  |                                                 |
\*---------------------------------------------------------------------------*/
FoamFile
{
    version     2.0;
    format      ascii;
    class       volVectorField;
    location    "0.01";
    object      U;
}
// * * * * * * * * * * * * * * * * * * * * * * * * * * * * * * * * * * * * * //

dimensions      [0 1 -1 0 0 0 0];

internalField   nonuniform List<vector> 
27600
(
(42.6982 0.000118917 0)
(42.6967 9.07673e-05 0)
(42.6954 6.52981e-05 0)
(42.6946 4.35279e-05 0)
(42.6941 2.57926e-05 0)
(42.6938 1.36634e-05 0)
(42.6936 6.5853e-06 0)
(42.6936 2.94084e-06 0)
(42.6935 1.24911e-06 0)
(42.6935 5.32208e-07 0)
(42.6935 2.52175e-07 0)
(42.6935 1.5041e-07 0)
(42.6935 1.15721e-07 0)
(42.6935 1.04551e-07 0)
(42.6935 1.01137e-07 0)
(42.6935 1.00144e-07 0)
(42.6935 9.98682e-08 0)
(42.6935 9.97925e-08 0)
(42.6935 9.97722e-08 0)
(42.6934 9.97668e-08 0)
(42.6934 9.97654e-08 0)
(42.6934 9.97653e-08 0)
(42.6934 9.97721e-08 0)
(42.6934 9.97713e-08 0)
(42.6934 9.97694e-08 0)
(42.6934 9.977e-08 0)
(42.6934 9.97663e-08 0)
(42.6934 9.97694e-08 0)
(42.6934 9.97748e-08 0)
(42.6934 9.97763e-08 0)
(42.6934 9.97758e-08 0)
(42.6934 9.97772e-08 0)
(42.6934 9.97786e-08 0)
(42.6934 9.97814e-08 0)
(42.6934 9.97837e-08 0)
(42.6934 9.97818e-08 0)
(42.6934 9.97824e-08 0)
(42.6933 9.97848e-08 0)
(42.6933 9.97869e-08 0)
(42.6933 9.97846e-08 0)
(42.6933 9.97868e-08 0)
(42.6933 9.97877e-08 0)
(42.6933 9.97883e-08 0)
(42.6933 9.97887e-08 0)
(42.6933 9.9791e-08 0)
(42.6933 9.97913e-08 0)
(42.6933 9.97944e-08 0)
(42.6933 9.9792e-08 0)
(42.6933 9.97897e-08 0)
(42.6933 9.97933e-08 0)
(42.6933 9.9796e-08 0)
(42.6933 9.97941e-08 0)
(42.6933 9.9795e-08 0)
(42.6933 9.97943e-08 0)
(42.6933 9.97948e-08 0)
(42.6933 9.97961e-08 0)
(42.6933 9.97958e-08 0)
(42.6933 9.97986e-08 0)
(42.6933 9.97976e-08 0)
(42.6933 9.97993e-08 0)
(42.6933 9.98015e-08 0)
(42.6933 9.98011e-08 0)
(42.6933 9.98032e-08 0)
(42.6933 9.98016e-08 0)
(42.6933 9.98032e-08 0)
(42.6933 9.98008e-08 0)
(42.6933 9.98036e-08 0)
(42.6933 9.98023e-08 0)
(42.6932 9.97999e-08 0)
(42.6932 9.98029e-08 0)
(42.6932 9.98032e-08 0)
(42.6932 9.98031e-08 0)
(42.6932 9.9801e-08 0)
(42.6932 9.98021e-08 0)
(42.6932 9.98051e-08 0)
(42.6932 9.98019e-08 0)
(42.6932 9.98039e-08 0)
(42.6932 9.98049e-08 0)
(42.6932 9.97924e-08 0)
(42.6932 9.97951e-08 0)
(42.6932 9.97977e-08 0)
(42.6932 9.98001e-08 0)
(42.6932 9.9804e-08 0)
(42.6932 9.98057e-08 0)
(42.6932 9.98086e-08 0)
(42.6932 9.98063e-08 0)
(42.6932 9.98018e-08 0)
(42.6932 9.98007e-08 0)
(42.6932 9.98029e-08 0)
(42.6932 9.98048e-08 0)
(42.6932 9.98023e-08 0)
(42.6932 9.97998e-08 0)
(42.6932 9.98028e-08 0)
(42.6932 9.98012e-08 0)
(42.6932 9.98045e-08 0)
(42.6932 9.98046e-08 0)
(42.6932 9.9802e-08 0)
(42.6932 9.98018e-08 0)
(42.6932 9.98034e-08 0)
(42.6932 9.98015e-08 0)
(42.6932 9.98054e-08 0)
(42.6932 9.98065e-08 0)
(42.6932 9.98057e-08 0)
(42.6932 9.98037e-08 0)
(42.6932 9.98057e-08 0)
(42.6932 9.98043e-08 0)
(42.6932 9.98079e-08 0)
(42.6932 9.98047e-08 0)
(42.6932 9.98045e-08 0)
(42.6932 9.98164e-08 0)
(42.6932 9.98116e-08 0)
(42.6932 9.98095e-08 0)
(42.6932 9.9807e-08 0)
(42.6932 9.98066e-08 0)
(42.6932 9.98038e-08 0)
(42.6932 9.98044e-08 0)
(42.6932 9.98043e-08 0)
(42.6932 9.98031e-08 0)
(42.6932 9.98035e-08 0)
(42.6932 9.97994e-08 0)
(42.6932 9.98015e-08 0)
(42.6932 9.98036e-08 0)
(42.6932 9.98049e-08 0)
(42.6932 9.98054e-08 0)
(42.6932 9.9806e-08 0)
(42.6932 9.98066e-08 0)
(42.6932 9.98018e-08 0)
(42.6932 9.98048e-08 0)
(42.6932 9.98052e-08 0)
(42.6932 9.98062e-08 0)
(42.6932 9.98041e-08 0)
(42.6932 9.98027e-08 0)
(42.6932 9.98023e-08 0)
(42.6932 9.98024e-08 0)
(42.6932 9.98045e-08 0)
(42.6932 9.98045e-08 0)
(42.6932 9.98058e-08 0)
(42.6932 9.98053e-08 0)
(42.6932 9.98071e-08 0)
(42.6932 9.98059e-08 0)
(42.6932 9.98009e-08 0)
(42.6932 9.98037e-08 0)
(42.6932 9.98027e-08 0)
(42.6932 9.98051e-08 0)
(42.6932 9.98039e-08 0)
(42.6932 9.9805e-08 0)
(42.6932 9.98e-08 0)
(42.6932 9.98017e-08 0)
(42.6932 9.98046e-08 0)
(42.6932 9.98095e-08 0)
(42.6932 9.9805e-08 0)
(42.6932 9.98023e-08 0)
(42.6932 9.98021e-08 0)
(42.6932 9.98065e-08 0)
(42.6932 9.98097e-08 0)
(42.6932 9.98075e-08 0)
(42.6932 9.98028e-08 0)
(42.6932 9.9806e-08 0)
(42.6932 9.98009e-08 0)
(42.6932 9.98012e-08 0)
(42.6932 9.98024e-08 0)
(42.6932 9.98046e-08 0)
(42.6932 9.98043e-08 0)
(42.6932 9.98005e-08 0)
(42.6932 9.98034e-08 0)
(42.6932 9.98028e-08 0)
(42.6932 9.9804e-08 0)
(42.6932 9.98029e-08 0)
(42.6932 9.98034e-08 0)
(42.6932 9.98048e-08 0)
(42.6932 9.98057e-08 0)
(42.6932 9.98067e-08 0)
(42.6932 9.98065e-08 0)
(42.6932 9.98058e-08 0)
(42.6932 9.98025e-08 0)
(42.6932 9.98046e-08 0)
(42.6932 9.98074e-08 0)
(42.6932 9.98063e-08 0)
(42.6932 9.98054e-08 0)
(42.6932 9.98017e-08 0)
(42.6932 9.98028e-08 0)
(42.6932 9.98047e-08 0)
(42.6932 9.9807e-08 0)
(42.6932 9.98062e-08 0)
(42.6932 9.98003e-08 0)
(42.6932 9.98015e-08 0)
(42.6932 9.98045e-08 0)
(42.6932 9.98014e-08 0)
(42.6932 9.98007e-08 0)
(42.6932 9.98033e-08 0)
(42.6932 9.98058e-08 0)
(42.6932 9.98034e-08 0)
(42.6932 9.98047e-08 0)
(42.6932 9.98057e-08 0)
(42.6932 9.98041e-08 0)
(42.6932 9.98049e-08 0)
(42.6932 9.98089e-08 0)
(42.6932 9.98049e-08 0)
(42.6932 9.9801e-08 0)
(42.6932 9.98018e-08 0)
(42.6932 9.98029e-08 0)
(42.6932 9.98028e-08 0)
(42.6932 9.98023e-08 0)
(42.6932 9.98051e-08 0)
(42.6932 9.97995e-08 0)
(42.6932 9.9801e-08 0)
(42.6932 9.98015e-08 0)
(42.6932 9.9798e-08 0)
(42.6932 9.97993e-08 0)
(42.6932 9.98029e-08 0)
(42.6932 9.98043e-08 0)
(42.6932 9.98043e-08 0)
(42.6932 9.98004e-08 0)
(42.6932 9.98037e-08 0)
(42.6932 9.98027e-08 0)
(42.6932 9.98059e-08 0)
(42.6932 9.9805e-08 0)
(42.6932 9.98038e-08 0)
(42.6932 9.97885e-08 0)
(42.6932 9.97967e-08 0)
(42.6932 9.97982e-08 0)
(42.6932 9.98e-08 0)
(42.6932 9.98025e-08 0)
(42.6932 9.98014e-08 0)
(42.6932 9.98038e-08 0)
(42.6932 9.98051e-08 0)
(42.6932 9.98025e-08 0)
(42.6932 9.98054e-08 0)
(42.6932 9.98048e-08 0)
(42.6932 9.98041e-08 0)
(42.6932 9.98049e-08 0)
(42.6932 9.98076e-08 0)
(42.6932 9.98059e-08 0)
(42.6932 9.98072e-08 0)
(42.6932 9.98027e-08 0)
(42.6932 9.98034e-08 0)
(42.6932 9.98053e-08 0)
(42.6932 9.9804e-08 0)
(42.6932 9.98075e-08 0)
(42.6932 9.98093e-08 0)
(42.6932 9.98023e-08 0)
(42.6932 9.98033e-08 0)
(42.6932 9.98039e-08 0)
(42.6932 9.98046e-08 0)
(42.6932 9.98021e-08 0)
(42.6932 9.98008e-08 0)
(42.6932 9.9805e-08 0)
(42.6932 9.98042e-08 0)
(42.6932 9.98033e-08 0)
(42.6932 9.98023e-08 0)
(42.6932 9.98045e-08 0)
(42.6932 9.98041e-08 0)
(42.6932 9.9807e-08 0)
(42.6932 9.98077e-08 0)
(42.6932 9.9806e-08 0)
(42.6932 9.98022e-08 0)
(42.6932 9.98031e-08 0)
(42.6932 9.98058e-08 0)
(42.6932 9.98042e-08 0)
(42.6932 9.9804e-08 0)
(42.6932 9.98022e-08 0)
(42.6932 9.98011e-08 0)
(42.6932 9.98043e-08 0)
(42.6932 9.98039e-08 0)
(42.6932 9.98037e-08 0)
(42.6932 9.98053e-08 0)
(42.6932 9.98021e-08 0)
(42.6932 9.98016e-08 0)
(42.6932 9.98004e-08 0)
(42.6932 9.98051e-08 0)
(42.6932 9.98032e-08 0)
(42.6932 9.98043e-08 0)
(42.6932 9.98053e-08 0)
(42.6932 9.98039e-08 0)
(42.6932 9.98057e-08 0)
(42.6932 9.98032e-08 0)
(42.6932 9.98001e-08 0)
(42.6932 9.98016e-08 0)
(42.6932 9.98032e-08 0)
(42.6932 9.98036e-08 0)
(42.6932 9.98035e-08 0)
(42.6932 9.98021e-08 0)
(42.6932 9.98033e-08 0)
(42.6932 9.98017e-08 0)
(42.6932 9.98059e-08 0)
(42.6932 9.98068e-08 0)
(42.6932 9.98091e-08 0)
(42.6932 9.98058e-08 0)
(42.6932 9.98047e-08 0)
(42.6932 9.97995e-08 0)
(42.6932 9.98005e-08 0)
(42.6932 9.98018e-08 0)
(42.6932 9.98057e-08 0)
(42.6932 9.9804e-08 0)
(42.6932 9.98029e-08 0)
(42.6932 9.98004e-08 0)
(42.6932 9.98003e-08 0)
(42.6932 9.98025e-08 0)
(42.6932 9.98008e-08 0)
(42.6932 9.98051e-08 0)
(42.6932 9.98013e-08 0)
(42.6932 9.98049e-08 0)
(42.6932 9.98036e-08 0)
(42.6932 9.98019e-08 0)
(42.6932 9.98016e-08 0)
(42.6932 9.97987e-08 0)
(42.6932 9.98035e-08 0)
(42.6932 9.98038e-08 0)
(42.6932 9.98036e-08 0)
(42.6932 9.98068e-08 0)
(42.6932 9.98045e-08 0)
(42.6932 9.98067e-08 0)
(42.6931 9.98082e-08 0)
(42.6931 9.98119e-08 0)
(42.693 9.98121e-08 0)
(42.6929 9.98145e-08 0)
(42.6928 9.98186e-08 0)
(42.6927 9.98238e-08 0)
(42.6924 9.98274e-08 0)
(42.6921 9.98366e-08 0)
(42.6917 9.98406e-08 0)
(42.6912 9.98449e-08 0)
(42.6905 9.98512e-08 0)
(42.6895 9.98507e-08 0)
(42.6883 9.98456e-08 0)
(42.6866 9.98273e-08 0)
(42.6845 9.98e-08 0)
(42.6819 9.97495e-08 0)
(42.6784 9.96665e-08 0)
(42.6741 9.95405e-08 0)
(42.6688 9.93471e-08 0)
(42.6621 9.90726e-08 0)
(42.6539 9.86794e-08 0)
(42.644 9.81322e-08 0)
(42.6321 9.74009e-08 0)
(42.6179 9.64299e-08 0)
(42.6012 9.51554e-08 0)
(42.5818 9.35197e-08 0)
(42.5594 9.14499e-08 0)
(42.534 8.88735e-08 0)
(42.5056 8.57016e-08 0)
(42.4742 8.18654e-08 0)
(42.44 7.73019e-08 0)
(42.4034 7.19552e-08 0)
(42.3649 6.57899e-08 0)
(42.3252 5.88029e-08 0)
(42.2851 5.1027e-08 0)
(42.2455 4.25451e-08 0)
(42.2076 3.34668e-08 0)
(42.1726 2.39987e-08 0)
(42.1415 1.43779e-08 0)
(42.1155 4.74724e-09 0)
(42.0957 -5.12848e-09 0)
(42.0829 -1.63024e-08 0)
(42.0776 -2.37269e-08 0)
(42.0802 -3.03449e-08 0)
(42.0908 -3.63155e-08 0)
(42.1093 -4.00381e-08 0)
(42.1351 -4.225e-08 0)
(42.1675 -4.19826e-08 0)
(42.2052 -4.01391e-08 0)
(42.2473 -3.63642e-08 0)
(42.2922 -3.07813e-08 0)
(42.3387 -2.41194e-08 0)
(42.3855 -1.53136e-08 0)
(42.4311 -5.61849e-09 0)
(42.4745 4.54879e-09 0)
(42.5147 1.50342e-08 0)
(42.551 2.50674e-08 0)
(42.5827 3.50936e-08 0)
(42.6097 4.49803e-08 0)
(42.6318 5.40128e-08 0)
(42.6491 6.20906e-08 0)
(42.6621 6.93485e-08 0)
(42.6713 7.5285e-08 0)
(42.6771 8.04813e-08 0)
(42.6803 8.46938e-08 0)
(42.6815 8.77942e-08 0)
(42.6813 9.03902e-08 0)
(42.6801 9.29911e-08 0)
(42.6784 9.60918e-08 0)
(42.6764 1.02353e-07 0)
(42.6745 1.17025e-07 0)
(42.6726 1.52578e-07 0)
(42.6709 2.40559e-07 0)
(42.6694 4.58913e-07 0)
(42.6681 9.97685e-07 0)
(42.667 2.30978e-06 0)
(42.666 5.50687e-06 0)
(42.665 1.35007e-05 0)
(42.6637 3.27644e-05 0)
(42.6617 7.97467e-05 0)
(42.6577 0.000194802 0)
(42.6486 0.000472814 0)
(42.6272 0.00114934 0)
(42.5758 0.00277626 0)
(42.4527 0.0067047 0)
(42.1566 0.016155 0)
(41.4396 0.039954 0)
(38.7167 0.120841 0)
(42.7001 0.000193414 0)
(42.7002 0.00013136 0)
(42.7003 8.71378e-05 0)
(42.7003 5.69188e-05 0)
(42.7003 3.33408e-05 0)
(42.7003 1.74211e-05 0)
(42.7003 8.30936e-06 0)
(42.7003 3.69449e-06 0)
(42.7003 1.57052e-06 0)
(42.7003 6.73149e-07 0)
(42.7002 3.22616e-07 0)
(42.7002 1.94792e-07 0)
(42.7002 1.50857e-07 0)
(42.7002 1.36526e-07 0)
(42.7002 1.32065e-07 0)
(42.7002 1.30729e-07 0)
(42.7002 1.30348e-07 0)
(42.7002 1.3024e-07 0)
(42.7002 1.30211e-07 0)
(42.7002 1.30206e-07 0)
(42.7002 1.30202e-07 0)
(42.7002 1.30204e-07 0)
(42.7002 1.30203e-07 0)
(42.7002 1.30209e-07 0)
(42.7002 1.30208e-07 0)
(42.7002 1.30204e-07 0)
(42.7002 1.30209e-07 0)
(42.7002 1.30206e-07 0)
(42.7002 1.30207e-07 0)
(42.7001 1.30208e-07 0)
(42.7001 1.30206e-07 0)
(42.7001 1.3021e-07 0)
(42.7001 1.30214e-07 0)
(42.7001 1.30211e-07 0)
(42.7001 1.30211e-07 0)
(42.7001 1.30213e-07 0)
(42.7001 1.30215e-07 0)
(42.7001 1.30217e-07 0)
(42.7001 1.30217e-07 0)
(42.7001 1.30218e-07 0)
(42.7001 1.30218e-07 0)
(42.7001 1.30221e-07 0)
(42.7001 1.30224e-07 0)
(42.7001 1.30223e-07 0)
(42.7001 1.30224e-07 0)
(42.7001 1.30223e-07 0)
(42.7001 1.30224e-07 0)
(42.7001 1.30226e-07 0)
(42.7 1.30229e-07 0)
(42.7 1.30227e-07 0)
(42.7 1.30234e-07 0)
(42.7 1.30229e-07 0)
(42.7 1.3023e-07 0)
(42.7 1.30234e-07 0)
(42.7 1.30238e-07 0)
(42.7 1.30235e-07 0)
(42.7 1.30237e-07 0)
(42.7 1.30237e-07 0)
(42.7 1.30237e-07 0)
(42.7 1.30235e-07 0)
(42.7 1.30235e-07 0)
(42.7 1.30236e-07 0)
(42.7 1.30239e-07 0)
(42.7 1.30233e-07 0)
(42.7 1.3024e-07 0)
(42.7 1.30238e-07 0)
(42.7 1.30238e-07 0)
(42.7 1.30238e-07 0)
(42.7 1.30242e-07 0)
(42.7 1.30241e-07 0)
(42.7 1.30245e-07 0)
(42.7 1.30242e-07 0)
(42.7 1.30241e-07 0)
(42.7 1.30243e-07 0)
(42.7 1.30239e-07 0)
(42.7 1.30243e-07 0)
(42.7 1.3024e-07 0)
(42.7 1.30238e-07 0)
(42.7 1.30245e-07 0)
(42.7 1.30245e-07 0)
(42.7 1.30248e-07 0)
(42.7 1.30244e-07 0)
(42.7 1.30244e-07 0)
(42.7 1.3024e-07 0)
(42.7 1.30239e-07 0)
(42.7 1.30243e-07 0)
(42.7 1.30247e-07 0)
(42.7 1.30244e-07 0)
(42.7 1.30242e-07 0)
(42.7 1.30243e-07 0)
(42.7 1.30244e-07 0)
(42.7 1.30246e-07 0)
(42.7 1.30243e-07 0)
(42.7 1.30244e-07 0)
(42.7 1.30244e-07 0)
(42.7 1.3024e-07 0)
(42.7 1.30243e-07 0)
(42.7 1.30243e-07 0)
(42.7 1.30243e-07 0)
(42.7 1.30241e-07 0)
(42.7 1.30242e-07 0)
(42.7 1.30243e-07 0)
(42.7 1.30242e-07 0)
(42.7 1.30241e-07 0)
(42.7 1.3024e-07 0)
(42.7 1.3024e-07 0)
(42.7 1.30242e-07 0)
(42.7 1.30242e-07 0)
(42.7 1.30242e-07 0)
(42.7 1.3024e-07 0)
(42.7 1.30237e-07 0)
(42.7 1.30237e-07 0)
(42.7 1.3024e-07 0)
(42.7 1.30241e-07 0)
(42.7 1.30242e-07 0)
(42.7 1.30243e-07 0)
(42.7 1.30243e-07 0)
(42.7 1.30239e-07 0)
(42.7 1.30242e-07 0)
(42.7 1.30245e-07 0)
(42.7 1.30245e-07 0)
(42.7 1.30244e-07 0)
(42.7 1.30244e-07 0)
(42.7 1.30239e-07 0)
(42.7 1.30241e-07 0)
(42.7 1.30242e-07 0)
(42.7 1.30243e-07 0)
(42.7 1.30243e-07 0)
(42.7 1.30242e-07 0)
(42.7 1.30238e-07 0)
(42.7 1.30242e-07 0)
(42.7 1.30245e-07 0)
(42.7 1.30246e-07 0)
(42.7 1.30243e-07 0)
(42.7 1.30244e-07 0)
(42.7 1.30241e-07 0)
(42.7 1.30242e-07 0)
(42.7 1.3024e-07 0)
(42.7 1.30237e-07 0)
(42.7 1.30242e-07 0)
(42.7 1.30242e-07 0)
(42.7 1.30241e-07 0)
(42.7 1.3024e-07 0)
(42.7 1.3024e-07 0)
(42.7 1.30241e-07 0)
(42.7 1.30244e-07 0)
(42.7 1.30246e-07 0)
(42.7 1.30244e-07 0)
(42.7 1.30243e-07 0)
(42.7 1.30237e-07 0)
(42.7 1.30241e-07 0)
(42.7 1.30244e-07 0)
(42.7 1.30244e-07 0)
(42.7 1.30241e-07 0)
(42.7 1.30241e-07 0)
(42.7 1.30237e-07 0)
(42.7 1.30242e-07 0)
(42.7 1.30237e-07 0)
(42.7 1.30245e-07 0)
(42.7 1.30244e-07 0)
(42.7 1.30245e-07 0)
(42.7 1.30243e-07 0)
(42.7 1.30241e-07 0)
(42.7 1.30243e-07 0)
(42.7 1.30244e-07 0)
(42.7 1.30245e-07 0)
(42.7 1.30241e-07 0)
(42.7 1.30243e-07 0)
(42.7 1.30244e-07 0)
(42.7 1.30239e-07 0)
(42.7 1.3024e-07 0)
(42.7 1.30239e-07 0)
(42.7 1.30239e-07 0)
(42.7 1.3024e-07 0)
(42.7 1.30243e-07 0)
(42.7 1.30242e-07 0)
(42.7 1.30242e-07 0)
(42.7 1.30244e-07 0)
(42.7 1.30242e-07 0)
(42.7 1.30244e-07 0)
(42.7 1.30243e-07 0)
(42.7 1.30242e-07 0)
(42.7 1.30242e-07 0)
(42.7 1.30242e-07 0)
(42.7 1.30241e-07 0)
(42.7 1.30243e-07 0)
(42.7 1.30241e-07 0)
(42.7 1.30242e-07 0)
(42.7 1.30246e-07 0)
(42.7 1.30244e-07 0)
(42.7 1.30243e-07 0)
(42.7 1.30242e-07 0)
(42.7 1.30239e-07 0)
(42.7 1.30241e-07 0)
(42.7 1.30242e-07 0)
(42.7 1.3024e-07 0)
(42.7 1.30238e-07 0)
(42.7 1.30244e-07 0)
(42.7 1.30242e-07 0)
(42.7 1.30243e-07 0)
(42.7 1.30244e-07 0)
(42.7 1.30244e-07 0)
(42.7 1.30242e-07 0)
(42.7 1.30243e-07 0)
(42.7 1.30246e-07 0)
(42.7 1.30245e-07 0)
(42.7 1.30246e-07 0)
(42.7 1.30244e-07 0)
(42.7 1.30246e-07 0)
(42.7 1.30243e-07 0)
(42.7 1.30241e-07 0)
(42.7 1.30242e-07 0)
(42.7 1.30243e-07 0)
(42.7 1.30242e-07 0)
(42.7 1.30243e-07 0)
(42.7 1.30241e-07 0)
(42.7 1.30241e-07 0)
(42.7 1.30249e-07 0)
(42.7 1.30247e-07 0)
(42.7 1.30247e-07 0)
(42.7 1.30248e-07 0)
(42.7 1.30245e-07 0)
(42.7 1.30243e-07 0)
(42.7 1.30243e-07 0)
(42.7 1.30242e-07 0)
(42.7 1.30241e-07 0)
(42.7 1.30243e-07 0)
(42.7 1.30243e-07 0)
(42.7 1.30242e-07 0)
(42.7 1.30241e-07 0)
(42.7 1.30241e-07 0)
(42.7 1.30238e-07 0)
(42.7 1.30239e-07 0)
(42.7 1.30243e-07 0)
(42.7 1.30241e-07 0)
(42.7 1.30244e-07 0)
(42.7 1.30238e-07 0)
(42.7 1.30241e-07 0)
(42.7 1.3024e-07 0)
(42.7 1.30237e-07 0)
(42.7 1.30241e-07 0)
(42.7 1.30243e-07 0)
(42.7 1.30242e-07 0)
(42.7 1.30244e-07 0)
(42.7 1.30245e-07 0)
(42.7 1.30243e-07 0)
(42.7 1.30244e-07 0)
(42.7 1.30242e-07 0)
(42.7 1.30242e-07 0)
(42.7 1.30243e-07 0)
(42.7 1.30244e-07 0)
(42.7 1.30244e-07 0)
(42.7 1.30238e-07 0)
(42.7 1.30239e-07 0)
(42.7 1.3024e-07 0)
(42.7 1.30244e-07 0)
(42.7 1.30242e-07 0)
(42.7 1.30244e-07 0)
(42.7 1.3024e-07 0)
(42.7 1.30241e-07 0)
(42.7 1.30245e-07 0)
(42.7 1.30245e-07 0)
(42.7 1.30241e-07 0)
(42.7 1.30243e-07 0)
(42.7 1.30242e-07 0)
(42.7 1.30243e-07 0)
(42.7 1.30245e-07 0)
(42.7 1.30244e-07 0)
(42.7 1.30243e-07 0)
(42.7 1.30243e-07 0)
(42.7 1.30242e-07 0)
(42.7 1.30241e-07 0)
(42.7 1.3024e-07 0)
(42.7 1.30241e-07 0)
(42.7 1.3024e-07 0)
(42.7 1.30243e-07 0)
(42.7 1.30243e-07 0)
(42.7 1.3024e-07 0)
(42.7 1.30244e-07 0)
(42.7 1.30244e-07 0)
(42.7 1.30245e-07 0)
(42.7 1.30243e-07 0)
(42.7 1.30242e-07 0)
(42.7 1.30246e-07 0)
(42.7 1.30241e-07 0)
(42.7 1.3024e-07 0)
(42.7 1.30238e-07 0)
(42.7 1.30243e-07 0)
(42.7 1.30245e-07 0)
(42.7 1.30244e-07 0)
(42.7 1.30244e-07 0)
(42.7 1.30243e-07 0)
(42.7 1.3024e-07 0)
(42.7 1.30245e-07 0)
(42.7 1.30241e-07 0)
(42.7 1.30245e-07 0)
(42.7 1.30245e-07 0)
(42.7 1.30239e-07 0)
(42.7 1.30241e-07 0)
(42.7 1.30244e-07 0)
(42.7 1.30242e-07 0)
(42.7 1.30242e-07 0)
(42.7 1.30241e-07 0)
(42.7 1.30244e-07 0)
(42.7 1.30245e-07 0)
(42.7 1.30244e-07 0)
(42.7 1.30245e-07 0)
(42.7 1.30249e-07 0)
(42.7 1.30249e-07 0)
(42.7 1.30254e-07 0)
(42.6999 1.30256e-07 0)
(42.6999 1.3026e-07 0)
(42.6999 1.30271e-07 0)
(42.6998 1.30282e-07 0)
(42.6998 1.30295e-07 0)
(42.6997 1.30317e-07 0)
(42.6996 1.30346e-07 0)
(42.6994 1.3038e-07 0)
(42.6992 1.30427e-07 0)
(42.6989 1.30487e-07 0)
(42.6985 1.30568e-07 0)
(42.6979 1.30671e-07 0)
(42.6972 1.30801e-07 0)
(42.6963 1.30965e-07 0)
(42.695 1.31166e-07 0)
(42.6934 1.31418e-07 0)
(42.6913 1.31712e-07 0)
(42.6886 1.32068e-07 0)
(42.6852 1.32483e-07 0)
(42.6809 1.32961e-07 0)
(42.6755 1.33497e-07 0)
(42.6689 1.34079e-07 0)
(42.6607 1.34697e-07 0)
(42.6508 1.35322e-07 0)
(42.6389 1.35906e-07 0)
(42.6247 1.36411e-07 0)
(42.608 1.36751e-07 0)
(42.5885 1.36843e-07 0)
(42.5662 1.36572e-07 0)
(42.5408 1.35809e-07 0)
(42.5124 1.34415e-07 0)
(42.4809 1.32218e-07 0)
(42.4468 1.29067e-07 0)
(42.4102 1.24786e-07 0)
(42.3717 1.19232e-07 0)
(42.3319 1.12277e-07 0)
(42.2918 1.03834e-07 0)
(42.2523 9.38744e-08 0)
(42.2144 8.24397e-08 0)
(42.1793 6.96373e-08 0)
(42.1483 5.56391e-08 0)
(42.1223 4.04351e-08 0)
(42.1025 2.31627e-08 0)
(42.0896 3.85916e-09 0)
(42.0844 -8.7121e-09 0)
(42.087 -2.08717e-08 0)
(42.0976 -3.34504e-08 0)
(42.116 -4.30032e-08 0)
(42.1419 -5.00075e-08 0)
(42.1742 -5.31641e-08 0)
(42.212 -5.42246e-08 0)
(42.254 -5.24382e-08 0)
(42.2989 -4.79362e-08 0)
(42.3454 -4.1672e-08 0)
(42.3922 -3.18128e-08 0)
(42.4378 -2.00129e-08 0)
(42.4812 -6.31689e-09 0)
(42.5214 9.61409e-09 0)
(42.5577 2.33768e-08 0)
(42.5894 3.74003e-08 0)
(42.6164 5.14564e-08 0)
(42.6385 6.4417e-08 0)
(42.6559 7.63544e-08 0)
(42.6688 8.6852e-08 0)
(42.678 9.52983e-08 0)
(42.6838 1.02838e-07 0)
(42.6871 1.09206e-07 0)
(42.6882 1.14123e-07 0)
(42.688 1.18784e-07 0)
(42.6868 1.24615e-07 0)
(42.6851 1.34168e-07 0)
(42.6832 1.55678e-07 0)
(42.6812 2.06967e-07 0)
(42.6793 3.31565e-07 0)
(42.6776 6.36646e-07 0)
(42.6761 1.38669e-06 0)
(42.6748 3.22809e-06 0)
(42.6737 7.70096e-06 0)
(42.6727 1.85926e-05 0)
(42.6717 4.5886e-05 0)
(42.6705 0.000111349 0)
(42.6685 0.000271535 0)
(42.6644 0.000662814 0)
(42.6554 0.00161061 0)
(42.6341 0.0039121 0)
(42.583 0.00945784 0)
(42.4606 0.0228265 0)
(42.1663 0.0551384 0)
(41.4572 0.137076 0)
(38.9309 0.403925 0)
(42.7001 0.00014014 0)
(42.7002 9.4721e-05 0)
(42.7002 6.10677e-05 0)
(42.7003 4.20787e-05 0)
(42.7003 2.60651e-05 0)
(42.7003 1.41665e-05 0)
(42.7003 7.00256e-06 0)
(42.7003 3.23139e-06 0)
(42.7003 1.41843e-06 0)
(42.7003 6.15379e-07 0)
(42.7002 2.86732e-07 0)
(42.7002 1.61342e-07 0)
(42.7002 1.1625e-07 0)
(42.7002 1.00856e-07 0)
(42.7002 9.58404e-08 0)
(42.7002 9.42748e-08 0)
(42.7002 9.38059e-08 0)
(42.7002 9.36664e-08 0)
(42.7002 9.36272e-08 0)
(42.7002 9.36172e-08 0)
(42.7002 9.3616e-08 0)
(42.7002 9.36145e-08 0)
(42.7002 9.36152e-08 0)
(42.7002 9.36148e-08 0)
(42.7002 9.36172e-08 0)
(42.7002 9.36196e-08 0)
(42.7002 9.36211e-08 0)
(42.7002 9.36214e-08 0)
(42.7002 9.36187e-08 0)
(42.7001 9.36184e-08 0)
(42.7001 9.3623e-08 0)
(42.7001 9.36221e-08 0)
(42.7001 9.36239e-08 0)
(42.7001 9.36249e-08 0)
(42.7001 9.36241e-08 0)
(42.7001 9.36256e-08 0)
(42.7001 9.36263e-08 0)
(42.7001 9.36256e-08 0)
(42.7001 9.36273e-08 0)
(42.7001 9.36297e-08 0)
(42.7001 9.36308e-08 0)
(42.7001 9.3628e-08 0)
(42.7001 9.36323e-08 0)
(42.7001 9.36316e-08 0)
(42.7001 9.36325e-08 0)
(42.7001 9.36321e-08 0)
(42.7001 9.36343e-08 0)
(42.7001 9.36357e-08 0)
(42.7 9.36344e-08 0)
(42.7 9.36342e-08 0)
(42.7 9.36379e-08 0)
(42.7 9.36408e-08 0)
(42.7 9.36405e-08 0)
(42.7 9.36382e-08 0)
(42.7 9.36405e-08 0)
(42.7 9.36422e-08 0)
(42.7 9.36434e-08 0)
(42.7 9.36444e-08 0)
(42.7 9.36411e-08 0)
(42.7 9.36435e-08 0)
(42.7 9.36468e-08 0)
(42.7 9.36466e-08 0)
(42.7 9.36468e-08 0)
(42.7 9.36502e-08 0)
(42.7 9.36499e-08 0)
(42.7 9.36474e-08 0)
(42.7 9.36482e-08 0)
(42.7 9.36456e-08 0)
(42.7 9.36489e-08 0)
(42.7 9.36507e-08 0)
(42.7 9.36469e-08 0)
(42.7 9.36484e-08 0)
(42.7 9.36468e-08 0)
(42.7 9.3652e-08 0)
(42.7 9.36517e-08 0)
(42.7 9.36499e-08 0)
(42.7 9.36515e-08 0)
(42.7 9.36495e-08 0)
(42.7 9.36498e-08 0)
(42.7 9.36505e-08 0)
(42.7 9.36501e-08 0)
(42.7 9.36492e-08 0)
(42.7 9.36514e-08 0)
(42.7 9.36494e-08 0)
(42.7 9.36528e-08 0)
(42.7 9.36522e-08 0)
(42.7 9.36483e-08 0)
(42.7 9.36488e-08 0)
(42.7 9.36493e-08 0)
(42.7 9.36501e-08 0)
(42.7 9.36498e-08 0)
(42.7 9.36476e-08 0)
(42.7 9.36471e-08 0)
(42.7 9.36504e-08 0)
(42.7 9.36496e-08 0)
(42.7 9.36491e-08 0)
(42.7 9.3648e-08 0)
(42.7 9.36505e-08 0)
(42.7 9.36509e-08 0)
(42.7 9.36492e-08 0)
(42.7 9.36494e-08 0)
(42.7 9.36506e-08 0)
(42.7 9.36467e-08 0)
(42.7 9.3648e-08 0)
(42.7 9.36521e-08 0)
(42.7 9.3651e-08 0)
(42.7 9.36521e-08 0)
(42.7 9.36506e-08 0)
(42.7 9.36512e-08 0)
(42.7 9.36494e-08 0)
(42.7 9.36525e-08 0)
(42.7 9.36498e-08 0)
(42.7 9.36465e-08 0)
(42.7 9.365e-08 0)
(42.7 9.36501e-08 0)
(42.7 9.36499e-08 0)
(42.7 9.36515e-08 0)
(42.7 9.36531e-08 0)
(42.7 9.36468e-08 0)
(42.7 9.36484e-08 0)
(42.7 9.36466e-08 0)
(42.7 9.36491e-08 0)
(42.7 9.3653e-08 0)
(42.7 9.36517e-08 0)
(42.7 9.36502e-08 0)
(42.7 9.36508e-08 0)
(42.7 9.36501e-08 0)
(42.7 9.36523e-08 0)
(42.7 9.365e-08 0)
(42.7 9.36518e-08 0)
(42.7 9.3651e-08 0)
(42.7 9.36497e-08 0)
(42.7 9.36489e-08 0)
(42.7 9.36528e-08 0)
(42.7 9.36517e-08 0)
(42.7 9.36512e-08 0)
(42.7 9.36507e-08 0)
(42.7 9.36489e-08 0)
(42.7 9.36484e-08 0)
(42.7 9.36493e-08 0)
(42.7 9.36487e-08 0)
(42.7 9.36491e-08 0)
(42.7 9.36515e-08 0)
(42.7 9.36487e-08 0)
(42.7 9.36507e-08 0)
(42.7 9.36516e-08 0)
(42.7 9.3653e-08 0)
(42.7 9.36475e-08 0)
(42.7 9.36509e-08 0)
(42.7 9.36511e-08 0)
(42.7 9.36483e-08 0)
(42.7 9.36497e-08 0)
(42.7 9.36487e-08 0)
(42.7 9.36499e-08 0)
(42.7 9.36518e-08 0)
(42.7 9.36521e-08 0)
(42.7 9.36508e-08 0)
(42.7 9.36531e-08 0)
(42.7 9.36528e-08 0)
(42.7 9.36512e-08 0)
(42.7 9.3649e-08 0)
(42.7 9.36491e-08 0)
(42.7 9.36494e-08 0)
(42.7 9.36507e-08 0)
(42.7 9.365e-08 0)
(42.7 9.36499e-08 0)
(42.7 9.36502e-08 0)
(42.7 9.36504e-08 0)
(42.7 9.36473e-08 0)
(42.7 9.36497e-08 0)
(42.7 9.36509e-08 0)
(42.7 9.36504e-08 0)
(42.7 9.36521e-08 0)
(42.7 9.36493e-08 0)
(42.7 9.3651e-08 0)
(42.7 9.36531e-08 0)
(42.7 9.36508e-08 0)
(42.7 9.3649e-08 0)
(42.7 9.36485e-08 0)
(42.7 9.36508e-08 0)
(42.7 9.3649e-08 0)
(42.7 9.36525e-08 0)
(42.7 9.36519e-08 0)
(42.7 9.36507e-08 0)
(42.7 9.36495e-08 0)
(42.7 9.36502e-08 0)
(42.7 9.36503e-08 0)
(42.7 9.36517e-08 0)
(42.7 9.36466e-08 0)
(42.7 9.36482e-08 0)
(42.7 9.36482e-08 0)
(42.7 9.36493e-08 0)
(42.7 9.3649e-08 0)
(42.7 9.36489e-08 0)
(42.7 9.36525e-08 0)
(42.7 9.36521e-08 0)
(42.7 9.36514e-08 0)
(42.7 9.36497e-08 0)
(42.7 9.36493e-08 0)
(42.7 9.36473e-08 0)
(42.7 9.36476e-08 0)
(42.7 9.36504e-08 0)
(42.7 9.36509e-08 0)
(42.7 9.36519e-08 0)
(42.7 9.36498e-08 0)
(42.7 9.36494e-08 0)
(42.7 9.36496e-08 0)
(42.7 9.36485e-08 0)
(42.7 9.3649e-08 0)
(42.7 9.36521e-08 0)
(42.7 9.36486e-08 0)
(42.7 9.36505e-08 0)
(42.7 9.36504e-08 0)
(42.7 9.36497e-08 0)
(42.7 9.36497e-08 0)
(42.7 9.36506e-08 0)
(42.7 9.365e-08 0)
(42.7 9.36502e-08 0)
(42.7 9.36472e-08 0)
(42.7 9.36457e-08 0)
(42.7 9.36487e-08 0)
(42.7 9.36482e-08 0)
(42.7 9.36495e-08 0)
(42.7 9.36485e-08 0)
(42.7 9.3648e-08 0)
(42.7 9.36504e-08 0)
(42.7 9.36505e-08 0)
(42.7 9.36525e-08 0)
(42.7 9.36512e-08 0)
(42.7 9.365e-08 0)
(42.7 9.36506e-08 0)
(42.7 9.36514e-08 0)
(42.7 9.36505e-08 0)
(42.7 9.36518e-08 0)
(42.7 9.36503e-08 0)
(42.7 9.36487e-08 0)
(42.7 9.365e-08 0)
(42.7 9.365e-08 0)
(42.7 9.36499e-08 0)
(42.7 9.36513e-08 0)
(42.7 9.36503e-08 0)
(42.7 9.3649e-08 0)
(42.7 9.36521e-08 0)
(42.7 9.36507e-08 0)
(42.7 9.36488e-08 0)
(42.7 9.36483e-08 0)
(42.7 9.36523e-08 0)
(42.7 9.36508e-08 0)
(42.7 9.36482e-08 0)
(42.7 9.36495e-08 0)
(42.7 9.36511e-08 0)
(42.7 9.36495e-08 0)
(42.7 9.36513e-08 0)
(42.7 9.36524e-08 0)
(42.7 9.36511e-08 0)
(42.7 9.36505e-08 0)
(42.7 9.36501e-08 0)
(42.7 9.36511e-08 0)
(42.7 9.36505e-08 0)
(42.7 9.36488e-08 0)
(42.7 9.36497e-08 0)
(42.7 9.36492e-08 0)
(42.7 9.365e-08 0)
(42.7 9.36517e-08 0)
(42.7 9.36499e-08 0)
(42.7 9.36511e-08 0)
(42.7 9.36482e-08 0)
(42.7 9.36509e-08 0)
(42.7 9.36486e-08 0)
(42.7 9.36505e-08 0)
(42.7 9.36481e-08 0)
(42.7 9.36486e-08 0)
(42.7 9.36474e-08 0)
(42.7 9.36484e-08 0)
(42.7 9.36507e-08 0)
(42.7 9.3653e-08 0)
(42.7 9.3648e-08 0)
(42.7 9.36461e-08 0)
(42.7 9.36524e-08 0)
(42.7 9.36492e-08 0)
(42.7 9.36501e-08 0)
(42.7 9.36486e-08 0)
(42.7 9.36507e-08 0)
(42.7 9.36486e-08 0)
(42.7 9.36504e-08 0)
(42.7 9.36513e-08 0)
(42.7 9.36519e-08 0)
(42.7 9.36528e-08 0)
(42.7 9.36515e-08 0)
(42.7 9.36489e-08 0)
(42.7 9.3649e-08 0)
(42.7 9.36462e-08 0)
(42.7 9.36505e-08 0)
(42.7 9.36484e-08 0)
(42.7 9.36472e-08 0)
(42.7 9.36474e-08 0)
(42.7 9.36467e-08 0)
(42.7 9.36498e-08 0)
(42.7 9.36499e-08 0)
(42.7 9.36518e-08 0)
(42.7 9.36525e-08 0)
(42.7 9.36495e-08 0)
(42.7 9.36499e-08 0)
(42.7 9.36526e-08 0)
(42.7 9.36522e-08 0)
(42.7 9.36479e-08 0)
(42.7 9.36491e-08 0)
(42.7 9.36504e-08 0)
(42.7 9.36526e-08 0)
(42.7 9.36544e-08 0)
(42.6999 9.36584e-08 0)
(42.6999 9.36632e-08 0)
(42.6999 9.36738e-08 0)
(42.6999 9.36814e-08 0)
(42.6998 9.36914e-08 0)
(42.6997 9.37077e-08 0)
(42.6996 9.37254e-08 0)
(42.6994 9.37494e-08 0)
(42.6992 9.37899e-08 0)
(42.6989 9.38333e-08 0)
(42.6985 9.38937e-08 0)
(42.6979 9.39651e-08 0)
(42.6972 9.40538e-08 0)
(42.6963 9.41672e-08 0)
(42.695 9.43034e-08 0)
(42.6934 9.44663e-08 0)
(42.6913 9.46594e-08 0)
(42.6886 9.48815e-08 0)
(42.6852 9.51297e-08 0)
(42.6809 9.54062e-08 0)
(42.6755 9.56911e-08 0)
(42.6689 9.59702e-08 0)
(42.6607 9.62213e-08 0)
(42.6508 9.64107e-08 0)
(42.6389 9.64958e-08 0)
(42.6247 9.64184e-08 0)
(42.608 9.60954e-08 0)
(42.5885 9.54462e-08 0)
(42.5662 9.43689e-08 0)
(42.5408 9.27429e-08 0)
(42.5124 9.04432e-08 0)
(42.481 8.73313e-08 0)
(42.4468 8.32736e-08 0)
(42.4102 7.81492e-08 0)
(42.3717 7.18658e-08 0)
(42.3319 6.43424e-08 0)
(42.2918 5.55707e-08 0)
(42.2523 4.55791e-08 0)
(42.2144 3.44838e-08 0)
(42.1793 2.2474e-08 0)
(42.1483 9.8353e-09 0)
(42.1223 -3.01336e-09 0)
(42.1025 -1.55602e-08 0)
(42.0896 -2.70703e-08 0)
(42.0844 -3.4838e-08 0)
(42.087 -4.35885e-08 0)
(42.0976 -5.30052e-08 0)
(42.116 -5.95709e-08 0)
(42.1419 -6.32271e-08 0)
(42.1742 -6.35641e-08 0)
(42.212 -6.1856e-08 0)
(42.254 -5.75392e-08 0)
(42.2989 -5.08358e-08 0)
(42.3454 -4.23653e-08 0)
(42.3922 -3.11334e-08 0)
(42.4378 -1.83067e-08 0)
(42.4812 -4.02468e-09 0)
(42.5214 1.21426e-08 0)
(42.5577 2.52061e-08 0)
(42.5894 3.79751e-08 0)
(42.6164 5.03072e-08 0)
(42.6385 6.13662e-08 0)
(42.6559 7.13176e-08 0)
(42.6688 7.96761e-08 0)
(42.678 8.63697e-08 0)
(42.6838 9.19568e-08 0)
(42.6871 9.65502e-08 0)
(42.6882 1.0016e-07 0)
(42.688 1.04461e-07 0)
(42.6868 1.12042e-07 0)
(42.6851 1.2836e-07 0)
(42.6832 1.69025e-07 0)
(42.6812 2.69245e-07 0)
(42.6793 5.16694e-07 0)
(42.6776 1.1259e-06 0)
(42.6761 2.61917e-06 0)
(42.6748 6.28773e-06 0)
(42.6737 1.52633e-05 0)
(42.6727 3.68318e-05 0)
(42.6717 9.13524e-05 0)
(42.6705 0.000221532 0)
(42.6685 0.000540716 0)
(42.6646 0.00132003 0)
(42.6557 0.00320955 0)
(42.6348 0.00778854 0)
(42.5847 0.0188388 0)
(42.4646 0.0454351 0)
(42.1764 0.109761 0)
(41.487 0.273672 0)
(39.1087 0.765617 0)
(42.7 9.09593e-05 0)
(42.7001 7.87694e-05 0)
(42.7002 5.58024e-05 0)
(42.7002 3.97045e-05 0)
(42.7003 2.55543e-05 0)
(42.7003 1.44001e-05 0)
(42.7003 7.32248e-06 0)
(42.7003 3.46414e-06 0)
(42.7003 1.55443e-06 0)
(42.7003 6.81765e-07 0)
(42.7002 3.12563e-07 0)
(42.7002 1.66885e-07 0)
(42.7002 1.12595e-07 0)
(42.7002 9.32886e-08 0)
(42.7002 8.66995e-08 0)
(42.7002 8.45282e-08 0)
(42.7002 8.38358e-08 0)
(42.7002 8.36181e-08 0)
(42.7002 8.35525e-08 0)
(42.7002 8.35333e-08 0)
(42.7002 8.35265e-08 0)
(42.7002 8.35258e-08 0)
(42.7002 8.35268e-08 0)
(42.7002 8.35256e-08 0)
(42.7002 8.3526e-08 0)
(42.7002 8.35268e-08 0)
(42.7002 8.35266e-08 0)
(42.7002 8.35278e-08 0)
(42.7002 8.35275e-08 0)
(42.7001 8.35269e-08 0)
(42.7001 8.3527e-08 0)
(42.7001 8.35282e-08 0)
(42.7001 8.3529e-08 0)
(42.7001 8.35282e-08 0)
(42.7001 8.35289e-08 0)
(42.7001 8.35287e-08 0)
(42.7001 8.3529e-08 0)
(42.7001 8.35286e-08 0)
(42.7001 8.35287e-08 0)
(42.7001 8.3532e-08 0)
(42.7001 8.35339e-08 0)
(42.7001 8.35344e-08 0)
(42.7001 8.35361e-08 0)
(42.7001 8.35364e-08 0)
(42.7001 8.35369e-08 0)
(42.7001 8.35347e-08 0)
(42.7001 8.35374e-08 0)
(42.7001 8.35372e-08 0)
(42.7 8.35385e-08 0)
(42.7 8.35395e-08 0)
(42.7 8.35412e-08 0)
(42.7 8.35427e-08 0)
(42.7 8.35434e-08 0)
(42.7 8.35432e-08 0)
(42.7 8.35419e-08 0)
(42.7 8.35417e-08 0)
(42.7 8.35444e-08 0)
(42.7 8.35447e-08 0)
(42.7 8.35444e-08 0)
(42.7 8.3544e-08 0)
(42.7 8.35452e-08 0)
(42.7 8.3545e-08 0)
(42.7 8.35463e-08 0)
(42.7 8.35458e-08 0)
(42.7 8.35471e-08 0)
(42.7 8.35464e-08 0)
(42.7 8.35481e-08 0)
(42.7 8.35461e-08 0)
(42.7 8.35469e-08 0)
(42.7 8.3548e-08 0)
(42.7 8.35473e-08 0)
(42.7 8.3547e-08 0)
(42.7 8.35461e-08 0)
(42.7 8.35474e-08 0)
(42.7 8.3547e-08 0)
(42.7 8.35467e-08 0)
(42.7 8.35475e-08 0)
(42.7 8.35467e-08 0)
(42.7 8.35485e-08 0)
(42.7 8.35483e-08 0)
(42.7 8.35499e-08 0)
(42.7 8.35485e-08 0)
(42.7 8.35501e-08 0)
(42.7 8.35491e-08 0)
(42.7 8.35484e-08 0)
(42.7 8.3548e-08 0)
(42.7 8.35485e-08 0)
(42.7 8.35491e-08 0)
(42.7 8.35494e-08 0)
(42.7 8.35496e-08 0)
(42.7 8.35485e-08 0)
(42.7 8.35483e-08 0)