/*--------------------------------*- C++ -*----------------------------------*\
| =========                 |                                                 |
| \\      /  F ield         | OpenFOAM: The Open Source CFD Toolbox           |
|  \\    /   O peration     | Version:  3.0.x                                 |
|   \\  /    A nd           | Web:      www.OpenFOAM.org                      |
|    \\/     M anipulation  |                                                 |
\*---------------------------------------------------------------------------*/
FoamFile
{
    version     2.0;
    format      ascii;
    class       volVectorField;
    location    "0.32";
    object      U;
}
// * * * * * * * * * * * * * * * * * * * * * * * * * * * * * * * * * * * * * //

dimensions      [0 1 -1 0 0 0 0];

internalField   nonuniform List<vector> 
27600
(
(42.6982 0.000129713 0)
(42.6964 0.000119187 0)
(42.6945 0.000117667 0)
(42.6926 0.000120458 0)
(42.6908 0.000122875 0)
(42.6889 0.000124754 0)
(42.687 0.000126343 0)
(42.6852 0.000127699 0)
(42.6833 0.000128855 0)
(42.6814 0.000129833 0)
(42.6796 0.000130673 0)
(42.6777 0.000131396 0)
(42.6758 0.000132018 0)
(42.674 0.000132557 0)
(42.6721 0.000133025 0)
(42.6702 0.000133437 0)
(42.6684 0.000133795 0)
(42.6665 0.000134107 0)
(42.6646 0.000134382 0)
(42.6628 0.000134619 0)
(42.6609 0.000134839 0)
(42.659 0.000135012 0)
(42.6572 0.000135179 0)
(42.6553 0.000135325 0)
(42.6534 0.000135454 0)
(42.6516 0.000135568 0)
(42.6497 0.000135666 0)
(42.6478 0.000135758 0)
(42.646 0.000135851 0)
(42.6441 0.000135921 0)
(42.6423 0.000135981 0)
(42.6404 0.000136041 0)
(42.6385 0.000136093 0)
(42.6367 0.000136138 0)
(42.6348 0.000136177 0)
(42.6329 0.000136211 0)
(42.6311 0.00013624 0)
(42.6292 0.000136265 0)
(42.6273 0.000136285 0)
(42.6255 0.000136299 0)
(42.6236 0.000136314 0)
(42.6217 0.000136323 0)
(42.6199 0.000136337 0)
(42.618 0.000136336 0)
(42.6161 0.000136339 0)
(42.6143 0.000136341 0)
(42.6124 0.000136342 0)
(42.6105 0.000136341 0)
(42.6087 0.000136332 0)
(42.6068 0.000136333 0)
(42.6049 0.000136364 0)
(42.6031 0.000136321 0)
(42.6012 0.000136328 0)
(42.5993 0.000136328 0)
(42.5975 0.000136322 0)
(42.5956 0.000136317 0)
(42.5937 0.000136327 0)
(42.5919 0.000136319 0)
(42.59 0.000136313 0)
(42.5881 0.000136298 0)
(42.5862 0.000136299 0)
(42.5844 0.000136332 0)
(42.5825 0.000136295 0)
(42.5807 0.000136288 0)
(42.5788 0.000136289 0)
(42.5769 0.000136284 0)
(42.575 0.000136279 0)
(42.5732 0.000136273 0)
(42.5713 0.000136267 0)
(42.5694 0.000136259 0)
(42.5676 0.00013625 0)
(42.5657 0.000136239 0)
(42.5638 0.000136228 0)
(42.562 0.000136214 0)
(42.5601 0.000136194 0)
(42.5583 0.000136117 0)
(42.5564 0.000136165 0)
(42.5545 0.00013609 0)
(42.5527 0.000136029 0)
(42.5508 0.000135954 0)
(42.5489 0.000135856 0)
(42.5471 0.000135721 0)
(42.5452 0.000135557 0)
(42.5434 0.00013536 0)
(42.5415 0.000135117 0)
(42.5397 0.000134757 0)
(42.5378 0.000134343 0)
(42.536 0.000133829 0)
(42.5342 0.000133198 0)
(42.5323 0.000132433 0)
(42.5305 0.000131514 0)
(42.5287 0.000130421 0)
(42.527 0.000129133 0)
(42.5252 0.000127632 0)
(42.5235 0.000125898 0)
(42.5218 0.000123914 0)
(42.5201 0.000121667 0)
(42.5184 0.000119145 0)
(42.5168 0.000116342 0)
(42.5153 0.000113254 0)
(42.5137 0.000109885 0)
(42.5123 0.000106242 0)
(42.5109 0.00010234 0)
(42.5095 9.81948e-05 0)
(42.5082 9.38337e-05 0)
(42.5069 8.92818e-05 0)
(42.5058 8.45746e-05 0)
(42.5046 7.97477e-05 0)
(42.5036 7.48402e-05 0)
(42.5026 6.9893e-05 0)
(42.5017 6.49472e-05 0)
(42.5009 6.00438e-05 0)
(42.5001 5.52179e-05 0)
(42.4994 5.05149e-05 0)
(42.4987 4.59628e-05 0)
(42.4982 4.15922e-05 0)
(42.4976 3.74315e-05 0)
(42.4972 3.3498e-05 0)
(42.4967 2.98098e-05 0)
(42.4964 2.6378e-05 0)
(42.496 2.32087e-05 0)
(42.4958 2.03034e-05 0)
(42.4955 1.7662e-05 0)
(42.4953 1.52754e-05 0)
(42.4951 1.31364e-05 0)
(42.495 1.12328e-05 0)
(42.4948 9.55106e-06 0)
(42.4947 8.07579e-06 0)
(42.4946 6.79079e-06 0)
(42.4946 5.67913e-06 0)
(42.4945 4.72502e-06 0)
(42.4945 3.9103e-06 0)
(42.4944 3.22096e-06 0)
(42.4944 2.64038e-06 0)
(42.4944 2.15525e-06 0)
(42.4944 1.75254e-06 0)
(42.4943 1.42044e-06 0)
(42.4943 1.14837e-06 0)
(42.4943 9.26938e-07 0)
(42.4943 7.47841e-07 0)
(42.4943 6.03952e-07 0)
(42.4943 4.89102e-07 0)
(42.4944 3.97984e-07 0)
(42.4944 3.26155e-07 0)
(42.4944 2.69886e-07 0)
(42.4944 2.26075e-07 0)
(42.4944 1.92179e-07 0)
(42.4944 1.66108e-07 0)
(42.4944 1.46181e-07 0)
(42.4944 1.31043e-07 0)
(42.4944 1.19613e-07 0)
(42.4945 1.11031e-07 0)
(42.4945 1.04633e-07 0)
(42.4945 9.98962e-08 0)
(42.4945 9.64017e-08 0)
(42.4945 9.38449e-08 0)
(42.4945 9.19914e-08 0)
(42.4945 9.0657e-08 0)
(42.4946 8.96941e-08 0)
(42.4946 8.902e-08 0)
(42.4946 8.85447e-08 0)
(42.4946 8.82138e-08 0)
(42.4946 8.79978e-08 0)
(42.4946 8.78521e-08 0)
(42.4947 8.7766e-08 0)
(42.4947 8.7711e-08 0)
(42.4947 8.76823e-08 0)
(42.4947 8.76797e-08 0)
(42.4947 8.76801e-08 0)
(42.4948 8.7698e-08 0)
(42.4948 8.77161e-08 0)
(42.4948 8.77433e-08 0)
(42.4948 8.77714e-08 0)
(42.4948 8.78003e-08 0)
(42.4949 8.78336e-08 0)
(42.4949 8.78655e-08 0)
(42.4949 8.78906e-08 0)
(42.4949 8.79249e-08 0)
(42.495 8.79544e-08 0)
(42.495 8.7984e-08 0)
(42.495 8.80191e-08 0)
(42.495 8.80544e-08 0)
(42.4951 8.80853e-08 0)
(42.4951 8.81153e-08 0)
(42.4951 8.81465e-08 0)
(42.4951 8.81712e-08 0)
(42.4952 8.81971e-08 0)
(42.4952 8.82215e-08 0)
(42.4952 8.82493e-08 0)
(42.4953 8.82746e-08 0)
(42.4953 8.83054e-08 0)
(42.4953 8.83368e-08 0)
(42.4954 8.83633e-08 0)
(42.4954 8.83902e-08 0)
(42.4954 8.84222e-08 0)
(42.4955 8.84518e-08 0)
(42.4955 8.84863e-08 0)
(42.4955 8.85255e-08 0)
(42.4956 8.85647e-08 0)
(42.4956 8.86011e-08 0)
(42.4956 8.86288e-08 0)
(42.4957 8.86604e-08 0)
(42.4957 8.86894e-08 0)
(42.4958 8.8716e-08 0)
(42.4958 8.8738e-08 0)
(42.4959 8.87549e-08 0)
(42.4959 8.87676e-08 0)
(42.4959 8.87807e-08 0)
(42.496 8.87975e-08 0)
(42.496 8.88098e-08 0)
(42.4961 8.88292e-08 0)
(42.4961 8.88492e-08 0)
(42.4962 8.88766e-08 0)
(42.4962 8.89039e-08 0)
(42.4963 8.89316e-08 0)
(42.4963 8.89636e-08 0)
(42.4964 8.89954e-08 0)
(42.4964 8.90302e-08 0)
(42.4965 8.90536e-08 0)
(42.4965 8.90919e-08 0)
(42.4966 8.91331e-08 0)
(42.4967 8.91706e-08 0)
(42.4967 8.92037e-08 0)
(42.4968 8.92367e-08 0)
(42.4968 8.92742e-08 0)
(42.4969 8.9309e-08 0)
(42.497 8.93458e-08 0)
(42.497 8.93853e-08 0)
(42.4971 8.94171e-08 0)
(42.4972 8.94545e-08 0)
(42.4972 8.94936e-08 0)
(42.4973 8.95326e-08 0)
(42.4974 8.95686e-08 0)
(42.4974 8.9609e-08 0)
(42.4975 8.96529e-08 0)
(42.4976 8.96931e-08 0)
(42.4976 8.97349e-08 0)
(42.4977 8.97808e-08 0)
(42.4978 8.98185e-08 0)
(42.4979 8.98663e-08 0)
(42.4979 8.99129e-08 0)
(42.498 8.99643e-08 0)
(42.4981 9.00095e-08 0)
(42.4982 9.00567e-08 0)
(42.4983 9.01091e-08 0)
(42.4983 9.01599e-08 0)
(42.4984 9.02113e-08 0)
(42.4985 9.02648e-08 0)
(42.4986 9.03261e-08 0)
(42.4987 9.03892e-08 0)
(42.4988 9.04488e-08 0)
(42.4989 9.0511e-08 0)
(42.4989 9.05714e-08 0)
(42.499 9.06388e-08 0)
(42.4991 9.07035e-08 0)
(42.4992 9.0772e-08 0)
(42.4993 9.08473e-08 0)
(42.4994 9.09148e-08 0)
(42.4995 9.09875e-08 0)
(42.4996 9.10649e-08 0)
(42.4997 9.11438e-08 0)
(42.4998 9.12243e-08 0)
(42.4999 9.13057e-08 0)
(42.5 9.13932e-08 0)
(42.5002 9.14786e-08 0)
(42.5003 9.15664e-08 0)
(42.5004 9.16544e-08 0)
(42.5005 9.17495e-08 0)
(42.5006 9.18465e-08 0)
(42.5007 9.19451e-08 0)
(42.5009 9.20435e-08 0)
(42.501 9.21436e-08 0)
(42.5011 9.22524e-08 0)
(42.5012 9.2364e-08 0)
(42.5014 9.24762e-08 0)
(42.5015 9.25876e-08 0)
(42.5017 9.27101e-08 0)
(42.5018 9.28289e-08 0)
(42.5019 9.29576e-08 0)
(42.5021 9.30867e-08 0)
(42.5022 9.32225e-08 0)
(42.5024 9.33577e-08 0)
(42.5026 9.34988e-08 0)
(42.5027 9.36465e-08 0)
(42.5029 9.37953e-08 0)
(42.5031 9.39526e-08 0)
(42.5032 9.41092e-08 0)
(42.5034 9.42707e-08 0)
(42.5036 9.44314e-08 0)
(42.5038 9.45979e-08 0)
(42.504 9.47716e-08 0)
(42.5042 9.49534e-08 0)
(42.5044 9.51377e-08 0)
(42.5046 9.53323e-08 0)
(42.5048 9.55285e-08 0)
(42.5051 9.57324e-08 0)
(42.5053 9.59463e-08 0)
(42.5055 9.61671e-08 0)
(42.5058 9.63986e-08 0)
(42.506 9.6633e-08 0)
(42.5063 9.68744e-08 0)
(42.5065 9.71239e-08 0)
(42.5068 9.73725e-08 0)
(42.5071 9.76302e-08 0)
(42.5074 9.78916e-08 0)
(42.5077 9.81565e-08 0)
(42.508 9.84275e-08 0)
(42.5083 9.87009e-08 0)
(42.5086 9.89798e-08 0)
(42.509 9.92591e-08 0)
(42.5093 9.95433e-08 0)
(42.5097 9.98329e-08 0)
(42.51 1.00125e-07 0)
(42.5104 1.00428e-07 0)
(42.5108 1.00737e-07 0)
(42.5112 1.01044e-07 0)
(42.5116 1.0136e-07 0)
(42.5121 1.01683e-07 0)
(42.5125 1.02006e-07 0)
(42.5129 1.0233e-07 0)
(42.5134 1.02661e-07 0)
(42.5139 1.02997e-07 0)
(42.5144 1.03332e-07 0)
(42.5149 1.03667e-07 0)
(42.5154 1.04006e-07 0)
(42.5159 1.04349e-07 0)
(42.5165 1.04686e-07 0)
(42.517 1.05029e-07 0)
(42.5176 1.05371e-07 0)
(42.5182 1.05711e-07 0)
(42.5188 1.06052e-07 0)
(42.5194 1.06392e-07 0)
(42.5201 1.06725e-07 0)
(42.5207 1.07052e-07 0)
(42.5214 1.07384e-07 0)
(42.5221 1.07715e-07 0)
(42.5228 1.08031e-07 0)
(42.5235 1.08347e-07 0)
(42.5242 1.0866e-07 0)
(42.525 1.08963e-07 0)
(42.5258 1.09267e-07 0)
(42.5266 1.09567e-07 0)
(42.5274 1.09852e-07 0)
(42.5282 1.1013e-07 0)
(42.529 1.10401e-07 0)
(42.5299 1.10662e-07 0)
(42.5308 1.10908e-07 0)
(42.5316 1.11146e-07 0)
(42.5325 1.11371e-07 0)
(42.5335 1.11584e-07 0)
(42.5344 1.11784e-07 0)
(42.5354 1.11968e-07 0)
(42.5363 1.12142e-07 0)
(42.5373 1.12301e-07 0)
(42.5383 1.12439e-07 0)
(42.5393 1.12561e-07 0)
(42.5404 1.12661e-07 0)
(42.5414 1.12747e-07 0)
(42.5425 1.1281e-07 0)
(42.5436 1.12848e-07 0)
(42.5446 1.12856e-07 0)
(42.5458 1.12836e-07 0)
(42.5469 1.12811e-07 0)
(42.548 1.12754e-07 0)
(42.5491 1.12677e-07 0)
(42.5503 1.12574e-07 0)
(42.5514 1.12427e-07 0)
(42.5526 1.12266e-07 0)
(42.5538 1.1207e-07 0)
(42.5549 1.1184e-07 0)
(42.5561 1.11585e-07 0)
(42.5573 1.11297e-07 0)
(42.5585 1.10973e-07 0)
(42.5597 1.10625e-07 0)
(42.5609 1.10278e-07 0)
(42.5621 1.09913e-07 0)
(42.5634 1.09605e-07 0)
(42.5646 1.09478e-07 0)
(42.5658 1.09805e-07 0)
(42.567 1.11276e-07 0)
(42.5682 1.15556e-07 0)
(42.5694 1.26606e-07 0)
(42.5706 1.54103e-07 0)
(42.5718 2.21396e-07 0)
(42.573 3.84541e-07 0)
(42.5742 7.77301e-07 0)
(42.5753 1.71907e-06 0)
(42.5764 3.97278e-06 0)
(42.5774 9.36243e-06 0)
(42.5781 2.22454e-05 0)
(42.5783 5.30251e-05 0)
(42.5772 0.000126541 0)
(42.5729 0.000301869 0)
(42.5612 0.00071925 0)
(42.5318 0.00171026 0)
(42.4606 0.0040575 0)
(42.291 0.00961508 0)
(41.8883 0.0229588 0)
(40.9875 0.0577315 0)
(37.3433 0.159777 0)
(42.7001 0.000208895 0)
(42.7002 0.000168673 0)
(42.7003 0.000152643 0)
(42.7004 0.000150639 0)
(42.7005 0.000149179 0)
(42.7006 0.000147462 0)
(42.7007 0.000146046 0)
(42.7008 0.000144906 0)
(42.7008 0.000143951 0)
(42.7009 0.000143117 0)
(42.701 0.0001424 0)
(42.7011 0.000141778 0)
(42.7012 0.000141232 0)
(42.7013 0.000140756 0)
(42.7014 0.000140336 0)
(42.7014 0.000139974 0)
(42.7015 0.00013965 0)
(42.7016 0.000139363 0)
(42.7017 0.00013911 0)
(42.7018 0.000138881 0)
(42.7019 0.000138695 0)
(42.702 0.000138497 0)
(42.702 0.000138345 0)
(42.7021 0.000138207 0)
(42.7022 0.000138083 0)
(42.7023 0.000137974 0)
(42.7024 0.000137871 0)
(42.7024 0.000137789 0)
(42.7025 0.000137734 0)
(42.7026 0.000137662 0)
(42.7027 0.0001376 0)
(42.7028 0.000137554 0)
(42.7029 0.000137512 0)
(42.7029 0.000137474 0)
(42.703 0.000137441 0)
(42.7031 0.000137411 0)
(42.7032 0.000137385 0)
(42.7033 0.00013736 0)
(42.7034 0.000137338 0)
(42.7034 0.000137316 0)
(42.7035 0.0001373 0)
(42.7036 0.000137283 0)
(42.7037 0.000137275 0)
(42.7038 0.000137256 0)
(42.7038 0.000137244 0)
(42.7039 0.000137233 0)
(42.704 0.000137224 0)
(42.7041 0.000137215 0)
(42.7042 0.000137196 0)
(42.7042 0.000137198 0)
(42.7043 0.000137251 0)
(42.7044 0.000137173 0)
(42.7045 0.000137195 0)
(42.7045 0.000137199 0)
(42.7046 0.000137196 0)
(42.7047 0.000137195 0)
(42.7048 0.000137221 0)
(42.7049 0.000137214 0)
(42.7049 0.000137215 0)
(42.705 0.000137201 0)
(42.7051 0.000137215 0)
(42.7052 0.000137284 0)
(42.7052 0.000137225 0)
(42.7053 0.000137236 0)
(42.7054 0.000137252 0)
(42.7055 0.000137258 0)
(42.7056 0.000137265 0)
(42.7056 0.000137271 0)
(42.7057 0.000137276 0)
(42.7058 0.000137281 0)
(42.7059 0.000137284 0)
(42.7059 0.000137287 0)
(42.706 0.000137289 0)
(42.7061 0.00013729 0)
(42.7062 0.000137281 0)
(42.7063 0.000137173 0)
(42.7063 0.000137307 0)
(42.7064 0.000137212 0)
(42.7065 0.000137158 0)
(42.7066 0.000137092 0)
(42.7066 0.000137001 0)
(42.7067 0.000136864 0)
(42.7068 0.000136705 0)
(42.7069 0.000136513 0)
(42.7069 0.000136278 0)
(42.707 0.000135896 0)
(42.7071 0.000135473 0)
(42.7072 0.000134941 0)
(42.7073 0.000134285 0)
(42.7073 0.000133489 0)
(42.7074 0.000132531 0)
(42.7075 0.000131391 0)
(42.7076 0.000130047 0)
(42.7076 0.000128481 0)
(42.7077 0.000126674 0)
(42.7078 0.000124608 0)
(42.7079 0.00012227 0)
(42.708 0.00011965 0)
(42.708 0.000116742 0)
(42.7081 0.000113545 0)
(42.7082 0.000110063 0)
(42.7082 0.000106305 0)
(42.7083 0.000102284 0)
(42.7084 9.80249e-05 0)
(42.7084 9.35548e-05 0)
(42.7085 8.88964e-05 0)
(42.7086 8.40914e-05 0)
(42.7086 7.91751e-05 0)
(42.7087 7.41883e-05 0)
(42.7087 6.91739e-05 0)
(42.7088 6.41731e-05 0)
(42.7088 5.92274e-05 0)
(42.7089 5.43693e-05 0)
(42.7089 4.96503e-05 0)
(42.709 4.5093e-05 0)
(42.709 4.07278e-05 0)
(42.7091 3.65847e-05 0)
(42.7091 3.26761e-05 0)
(42.7091 2.90211e-05 0)
(42.7091 2.56289e-05 0)
(42.7092 2.25043e-05 0)
(42.7092 1.96468e-05 0)
(42.7092 1.70569e-05 0)
(42.7092 1.47215e-05 0)
(42.7093 1.2634e-05 0)
(42.7093 1.07811e-05 0)
(42.7093 9.14816e-06 0)
(42.7093 7.71935e-06 0)
(42.7093 6.47794e-06 0)
(42.7093 5.4065e-06 0)
(42.7093 4.48975e-06 0)
(42.7094 3.70815e-06 0)
(42.7094 3.04922e-06 0)
(42.7094 2.49506e-06 0)
(42.7094 2.03327e-06 0)
(42.7094 1.65091e-06 0)
(42.7094 1.33634e-06 0)
(42.7094 1.07925e-06 0)
(42.7094 8.70514e-07 0)
(42.7095 7.02063e-07 0)
(42.7095 5.67038e-07 0)
(42.7095 4.59549e-07 0)
(42.7095 3.74447e-07 0)
(42.7095 3.07519e-07 0)
(42.7095 2.55203e-07 0)
(42.7095 2.14569e-07 0)
(42.7095 1.83192e-07 0)
(42.7096 1.59126e-07 0)
(42.7096 1.40772e-07 0)
(42.7096 1.26858e-07 0)
(42.7096 1.1638e-07 0)
(42.7096 1.08532e-07 0)
(42.7096 1.02693e-07 0)
(42.7096 9.83701e-08 0)
(42.7096 9.51967e-08 0)
(42.7097 9.28746e-08 0)
(42.7097 9.11882e-08 0)
(42.7097 8.99817e-08 0)
(42.7097 8.91158e-08 0)
(42.7097 8.84997e-08 0)
(42.7097 8.80676e-08 0)
(42.7098 8.77641e-08 0)
(42.7098 8.75624e-08 0)
(42.7098 8.74255e-08 0)
(42.7098 8.73387e-08 0)
(42.7098 8.72782e-08 0)
(42.7098 8.72413e-08 0)
(42.7099 8.72279e-08 0)
(42.7099 8.72197e-08 0)
(42.7099 8.72205e-08 0)
(42.7099 8.72273e-08 0)
(42.7099 8.72398e-08 0)
(42.71 8.72534e-08 0)
(42.71 8.72649e-08 0)
(42.71 8.72781e-08 0)
(42.71 8.72992e-08 0)
(42.7101 8.73158e-08 0)
(42.7101 8.73279e-08 0)
(42.7101 8.73449e-08 0)
(42.7101 8.73613e-08 0)
(42.7101 8.73767e-08 0)
(42.7102 8.73941e-08 0)
(42.7102 8.74049e-08 0)
(42.7102 8.74211e-08 0)
(42.7103 8.74348e-08 0)
(42.7103 8.74477e-08 0)
(42.7103 8.74633e-08 0)
(42.7103 8.74819e-08 0)
(42.7104 8.74903e-08 0)
(42.7104 8.75075e-08 0)
(42.7104 8.75114e-08 0)
(42.7105 8.75235e-08 0)
(42.7105 8.75362e-08 0)
(42.7105 8.75489e-08 0)
(42.7106 8.75671e-08 0)
(42.7106 8.75845e-08 0)
(42.7106 8.76054e-08 0)
(42.7107 8.76311e-08 0)
(42.7107 8.76532e-08 0)
(42.7107 8.76754e-08 0)
(42.7108 8.76997e-08 0)
(42.7108 8.77165e-08 0)
(42.7109 8.77319e-08 0)
(42.7109 8.77425e-08 0)
(42.7109 8.77473e-08 0)
(42.711 8.77548e-08 0)
(42.711 8.77541e-08 0)
(42.7111 8.77594e-08 0)
(42.7111 8.77571e-08 0)
(42.7112 8.77565e-08 0)
(42.7112 8.7761e-08 0)
(42.7113 8.77708e-08 0)
(42.7113 8.77803e-08 0)
(42.7114 8.77929e-08 0)
(42.7114 8.78137e-08 0)
(42.7115 8.78394e-08 0)
(42.7115 8.7864e-08 0)
(42.7116 8.78843e-08 0)
(42.7116 8.79112e-08 0)
(42.7117 8.79361e-08 0)
(42.7117 8.79586e-08 0)
(42.7118 8.79809e-08 0)
(42.7118 8.80056e-08 0)
(42.7119 8.80248e-08 0)
(42.712 8.80474e-08 0)
(42.712 8.80722e-08 0)
(42.7121 8.80979e-08 0)
(42.7121 8.81185e-08 0)
(42.7122 8.81366e-08 0)
(42.7123 8.81666e-08 0)
(42.7123 8.81912e-08 0)
(42.7124 8.82145e-08 0)
(42.7125 8.82434e-08 0)
(42.7125 8.82743e-08 0)
(42.7126 8.83003e-08 0)
(42.7127 8.83302e-08 0)
(42.7128 8.83628e-08 0)
(42.7128 8.83945e-08 0)
(42.7129 8.84308e-08 0)
(42.713 8.84637e-08 0)
(42.7131 8.85025e-08 0)
(42.7131 8.8539e-08 0)
(42.7132 8.85831e-08 0)
(42.7133 8.86206e-08 0)
(42.7134 8.86654e-08 0)
(42.7134 8.87112e-08 0)
(42.7135 8.87606e-08 0)
(42.7136 8.88101e-08 0)
(42.7137 8.8858e-08 0)
(42.7138 8.89132e-08 0)
(42.7139 8.89674e-08 0)
(42.714 8.90256e-08 0)
(42.7141 8.90868e-08 0)
(42.7141 8.91482e-08 0)
(42.7142 8.92115e-08 0)
(42.7143 8.92787e-08 0)
(42.7144 8.93486e-08 0)
(42.7145 8.94232e-08 0)
(42.7146 8.94947e-08 0)
(42.7147 8.95754e-08 0)
(42.7148 8.96608e-08 0)
(42.7149 8.97425e-08 0)
(42.715 8.98303e-08 0)
(42.7151 8.99202e-08 0)
(42.7153 9.00164e-08 0)
(42.7154 9.01173e-08 0)
(42.7155 9.02226e-08 0)
(42.7156 9.03293e-08 0)
(42.7157 9.04472e-08 0)
(42.7158 9.05634e-08 0)
(42.716 9.0691e-08 0)
(42.7161 9.08199e-08 0)
(42.7162 9.09557e-08 0)
(42.7163 9.10959e-08 0)
(42.7165 9.12479e-08 0)
(42.7166 9.13991e-08 0)
(42.7168 9.15563e-08 0)
(42.7169 9.17254e-08 0)
(42.717 9.1902e-08 0)
(42.7172 9.20855e-08 0)
(42.7173 9.22708e-08 0)
(42.7175 9.24734e-08 0)
(42.7177 9.26788e-08 0)
(42.7178 9.28953e-08 0)
(42.718 9.31233e-08 0)
(42.7182 9.33528e-08 0)
(42.7183 9.35933e-08 0)
(42.7185 9.38423e-08 0)
(42.7187 9.40973e-08 0)
(42.7189 9.4364e-08 0)
(42.7191 9.46444e-08 0)
(42.7193 9.49325e-08 0)
(42.7195 9.52315e-08 0)
(42.7197 9.55458e-08 0)
(42.7199 9.58712e-08 0)
(42.7201 9.62111e-08 0)
(42.7204 9.65639e-08 0)
(42.7206 9.69337e-08 0)
(42.7209 9.73108e-08 0)
(42.7211 9.77084e-08 0)
(42.7214 9.81171e-08 0)
(42.7216 9.85411e-08 0)
(42.7219 9.89809e-08 0)
(42.7222 9.94265e-08 0)
(42.7225 9.98888e-08 0)
(42.7228 1.00357e-07 0)
(42.7231 1.00846e-07 0)
(42.7234 1.01344e-07 0)
(42.7237 1.01854e-07 0)
(42.7241 1.02381e-07 0)
(42.7244 1.02925e-07 0)
(42.7248 1.03468e-07 0)
(42.7251 1.04034e-07 0)
(42.7255 1.04613e-07 0)
(42.7259 1.05208e-07 0)
(42.7263 1.05819e-07 0)
(42.7267 1.06443e-07 0)
(42.7271 1.07081e-07 0)
(42.7276 1.07739e-07 0)
(42.728 1.084e-07 0)
(42.7285 1.0908e-07 0)
(42.729 1.09773e-07 0)
(42.7295 1.10482e-07 0)
(42.73 1.11201e-07 0)
(42.7305 1.1193e-07 0)
(42.731 1.12664e-07 0)
(42.7316 1.13419e-07 0)
(42.7321 1.14181e-07 0)
(42.7327 1.14948e-07 0)
(42.7333 1.15724e-07 0)
(42.7339 1.16506e-07 0)
(42.7345 1.17299e-07 0)
(42.7351 1.18099e-07 0)
(42.7358 1.18892e-07 0)
(42.7365 1.19707e-07 0)
(42.7372 1.20515e-07 0)
(42.7379 1.21333e-07 0)
(42.7386 1.22156e-07 0)
(42.7393 1.22983e-07 0)
(42.7401 1.23803e-07 0)
(42.7408 1.24621e-07 0)
(42.7416 1.25442e-07 0)
(42.7424 1.26267e-07 0)
(42.7433 1.27087e-07 0)
(42.7441 1.27907e-07 0)
(42.745 1.28722e-07 0)
(42.7458 1.2954e-07 0)
(42.7467 1.30341e-07 0)
(42.7476 1.3114e-07 0)
(42.7485 1.31918e-07 0)
(42.7495 1.32684e-07 0)
(42.7504 1.33441e-07 0)
(42.7514 1.34177e-07 0)
(42.7524 1.34902e-07 0)
(42.7534 1.35602e-07 0)
(42.7544 1.36287e-07 0)
(42.7554 1.36947e-07 0)
(42.7565 1.37581e-07 0)
(42.7576 1.38195e-07 0)
(42.7586 1.38795e-07 0)
(42.7597 1.39369e-07 0)
(42.7608 1.399e-07 0)
(42.7619 1.40413e-07 0)
(42.7631 1.40869e-07 0)
(42.7642 1.41306e-07 0)
(42.7653 1.41709e-07 0)
(42.7665 1.42065e-07 0)
(42.7677 1.4241e-07 0)
(42.7688 1.42709e-07 0)
(42.77 1.42961e-07 0)
(42.7712 1.43173e-07 0)
(42.7724 1.43356e-07 0)
(42.7736 1.43484e-07 0)
(42.7748 1.43599e-07 0)
(42.776 1.4375e-07 0)
(42.7772 1.43904e-07 0)
(42.7784 1.44352e-07 0)
(42.7796 1.45492e-07 0)
(42.7809 1.48308e-07 0)
(42.7821 1.5526e-07 0)
(42.7833 1.72172e-07 0)
(42.7845 2.12817e-07 0)
(42.7857 3.10221e-07 0)
(42.7869 5.43552e-07 0)
(42.7881 1.10277e-06 0)
(42.7892 2.4421e-06 0)
(42.7904 5.64746e-06 0)
(42.7915 1.33136e-05 0)
(42.7925 3.16438e-05 0)
(42.7932 7.54572e-05 0)
(42.7934 0.000180133 0)
(42.7923 0.000430139 0)
(42.788 0.00102636 0)
(42.7764 0.00244554 0)
(42.7471 0.00581426 0)
(42.6763 0.0137877 0)
(42.5076 0.0326343 0)
(42.1071 0.0776672 0)
(41.2126 0.193099 0)
(37.7906 0.504377 0)
(42.7001 0.000149855 0)
(42.7002 0.000119675 0)
(42.7003 0.000105969 0)
(42.7004 0.0001084 0)
(42.7005 0.000110397 0)
(42.7006 0.00011097 0)
(42.7007 0.000111368 0)
(42.7007 0.000111787 0)
(42.7008 0.000112161 0)
(42.7009 0.000112469 0)
(42.701 0.000112736 0)
(42.7011 0.000112971 0)
(42.7012 0.000113172 0)
(42.7013 0.000113356 0)
(42.7013 0.000113512 0)
(42.7014 0.000113656 0)
(42.7015 0.000113781 0)
(42.7016 0.000113893 0)
(42.7017 0.000113992 0)
(42.7018 0.000114079 0)
(42.7019 0.000114164 0)
(42.702 0.000114225 0)
(42.702 0.000114293 0)
(42.7021 0.000114352 0)
(42.7022 0.000114404 0)
(42.7023 0.000114453 0)
(42.7024 0.000114493 0)
(42.7025 0.000114537 0)
(42.7025 0.000114588 0)
(42.7026 0.000114616 0)
(42.7027 0.000114649 0)
(42.7028 0.000114683 0)
(42.7029 0.000114712 0)
(42.703 0.000114739 0)
(42.7031 0.000114764 0)
(42.7031 0.000114787 0)
(42.7032 0.000114807 0)
(42.7033 0.000114825 0)
(42.7034 0.000114841 0)
(42.7035 0.000114855 0)
(42.7036 0.00011487 0)
(42.7037 0.000114881 0)
(42.7037 0.000114887 0)
(42.7038 0.000114905 0)
(42.7039 0.000114911 0)
(42.704 0.000114917 0)
(42.7041 0.000114925 0)
(42.7042 0.000114931 0)
(42.7042 0.00011493 0)
(42.7043 0.000114944 0)
(42.7044 0.000114991 0)
(42.7045 0.000114939 0)
(42.7046 0.000114966 0)
(42.7047 0.000114978 0)
(42.7047 0.000114984 0)
(42.7048 0.00011499 0)
(42.7049 0.000115012 0)
(42.705 0.000115013 0)
(42.7051 0.000115019 0)
(42.7052 0.000115015 0)
(42.7052 0.000115031 0)
(42.7053 0.000115084 0)
(42.7054 0.000115041 0)
(42.7055 0.000115059 0)
(42.7056 0.000115074 0)
(42.7057 0.00011508 0)
(42.7057 0.000115088 0)
(42.7058 0.000115096 0)
(42.7059 0.000115102 0)
(42.706 0.000115108 0)
(42.7061 0.000115113 0)
(42.7062 0.000115117 0)
(42.7062 0.000115121 0)
(42.7063 0.000115123 0)
(42.7064 0.000115114 0)
(42.7065 0.000115023 0)
(42.7066 0.000115144 0)
(42.7067 0.000115064 0)
(42.7067 0.000115017 0)
(42.7068 0.000114962 0)
(42.7069 0.000114886 0)
(42.707 0.000114772 0)
(42.7071 0.000114641 0)
(42.7072 0.000114473 0)
(42.7072 0.000114267 0)
(42.7073 0.000113955 0)
(42.7074 0.000113597 0)
(42.7075 0.000113144 0)
(42.7076 0.000112589 0)
(42.7077 0.000111915 0)
(42.7077 0.000111104 0)
(42.7078 0.000110139 0)
(42.7079 0.000109003 0)
(42.708 0.000107679 0)
(42.7081 0.000106152 0)
(42.7082 0.000104407 0)
(42.7082 0.000102433 0)
(42.7083 0.000100222 0)
(42.7084 9.77698e-05 0)
(42.7085 9.50746e-05 0)
(42.7085 9.21406e-05 0)
(42.7086 8.89788e-05 0)
(42.7087 8.55877e-05 0)
(42.7087 8.20066e-05 0)
(42.7088 7.82498e-05 0)
(42.7088 7.43343e-05 0)
(42.7089 7.02987e-05 0)
(42.709 6.61712e-05 0)
(42.709 6.19864e-05 0)
(42.709 5.77817e-05 0)
(42.7091 5.35902e-05 0)
(42.7091 4.94464e-05 0)
(42.7092 4.53787e-05 0)
(42.7092 4.14289e-05 0)
(42.7092 3.76163e-05 0)
(42.7093 3.39662e-05 0)
(42.7093 3.05033e-05 0)
(42.7093 2.72378e-05 0)
(42.7093 2.41854e-05 0)
(42.7094 2.13536e-05 0)
(42.7094 1.87461e-05 0)
(42.7094 1.63626e-05 0)
(42.7094 1.42028e-05 0)
(42.7094 1.22559e-05 0)
(42.7094 1.05161e-05 0)
(42.7095 8.97238e-06 0)
(42.7095 7.61226e-06 0)
(42.7095 6.42243e-06 0)
(42.7095 5.38885e-06 0)
(42.7095 4.49703e-06 0)
(42.7095 3.734e-06 0)
(42.7095 3.08368e-06 0)
(42.7095 2.53541e-06 0)
(42.7096 2.07441e-06 0)
(42.7096 1.69029e-06 0)
(42.7096 1.37226e-06 0)
(42.7096 1.11065e-06 0)
(42.7096 8.96843e-07 0)
(42.7096 7.23272e-07 0)
(42.7096 5.832e-07 0)
(42.7096 4.70931e-07 0)
(42.7096 3.81554e-07 0)
(42.7097 3.10802e-07 0)
(42.7097 2.55156e-07 0)
(42.7097 2.11666e-07 0)
(42.7097 1.7788e-07 0)
(42.7097 1.51802e-07 0)
(42.7097 1.31792e-07 0)
(42.7097 1.1653e-07 0)
(42.7097 1.04962e-07 0)
(42.7098 9.62488e-08 0)
(42.7098 8.97233e-08 0)
(42.7098 8.48685e-08 0)
(42.7098 8.12753e-08 0)
(42.7098 7.8632e-08 0)
(42.7098 7.67012e-08 0)
(42.7098 7.53061e-08 0)
(42.7099 7.4298e-08 0)
(42.7099 7.35756e-08 0)
(42.7099 7.30624e-08 0)
(42.7099 7.27061e-08 0)
(42.7099 7.24542e-08 0)
(42.7099 7.22882e-08 0)
(42.71 7.21737e-08 0)
(42.71 7.21049e-08 0)
(42.71 7.20603e-08 0)
(42.71 7.20332e-08 0)
(42.71 7.2022e-08 0)
(42.71 7.20199e-08 0)
(42.7101 7.20269e-08 0)
(42.7101 7.20343e-08 0)
(42.7101 7.20401e-08 0)
(42.7101 7.20516e-08 0)
(42.7101 7.20667e-08 0)
(42.7102 7.2081e-08 0)
(42.7102 7.20946e-08 0)
(42.7102 7.21087e-08 0)
(42.7102 7.21259e-08 0)
(42.7103 7.21397e-08 0)
(42.7103 7.21498e-08 0)
(42.7103 7.21583e-08 0)
(42.7103 7.21749e-08 0)
(42.7104 7.21879e-08 0)
(42.7104 7.21981e-08 0)
(42.7104 7.22091e-08 0)
(42.7104 7.22213e-08 0)
(42.7105 7.22295e-08 0)
(42.7105 7.22407e-08 0)
(42.7105 7.22498e-08 0)
(42.7106 7.22555e-08 0)
(42.7106 7.22586e-08 0)
(42.7106 7.2265e-08 0)
(42.7107 7.2278e-08 0)
(42.7107 7.22881e-08 0)
(42.7107 7.22978e-08 0)
(42.7108 7.23095e-08 0)
(42.7108 7.23222e-08 0)
(42.7108 7.23352e-08 0)
(42.7109 7.23541e-08 0)
(42.7109 7.23701e-08 0)
(42.7109 7.23829e-08 0)
(42.711 7.23911e-08 0)
(42.711 7.2396e-08 0)
(42.7111 7.23974e-08 0)
(42.7111 7.23991e-08 0)
(42.7111 7.2395e-08 0)
(42.7112 7.23856e-08 0)
(42.7112 7.23813e-08 0)
(42.7113 7.23789e-08 0)
(42.7113 7.23748e-08 0)
(42.7114 7.23714e-08 0)
(42.7114 7.23722e-08 0)
(42.7115 7.2377e-08 0)
(42.7115 7.23828e-08 0)
(42.7116 7.23907e-08 0)
(42.7116 7.23954e-08 0)
(42.7117 7.24046e-08 0)
(42.7117 7.24145e-08 0)
(42.7118 7.24254e-08 0)
(42.7118 7.24346e-08 0)
(42.7119 7.2442e-08 0)
(42.7119 7.24486e-08 0)
(42.712 7.24541e-08 0)
(42.7121 7.24575e-08 0)
(42.7121 7.24626e-08 0)
(42.7122 7.24657e-08 0)
(42.7122 7.24698e-08 0)
(42.7123 7.24716e-08 0)
(42.7124 7.24766e-08 0)
(42.7124 7.24817e-08 0)
(42.7125 7.24827e-08 0)
(42.7126 7.24866e-08 0)
(42.7126 7.24904e-08 0)
(42.7127 7.24897e-08 0)
(42.7128 7.24942e-08 0)
(42.7128 7.24931e-08 0)
(42.7129 7.24976e-08 0)
(42.713 7.25038e-08 0)
(42.7131 7.251e-08 0)
(42.7131 7.25104e-08 0)
(42.7132 7.25112e-08 0)
(42.7133 7.25188e-08 0)
(42.7134 7.25228e-08 0)
(42.7134 7.25243e-08 0)
(42.7135 7.25308e-08 0)
(42.7136 7.254e-08 0)
(42.7137 7.25456e-08 0)
(42.7138 7.25534e-08 0)
(42.7139 7.25617e-08 0)
(42.7139 7.25715e-08 0)
(42.714 7.25788e-08 0)
(42.7141 7.25897e-08 0)
(42.7142 7.26004e-08 0)
(42.7143 7.26103e-08 0)
(42.7144 7.26224e-08 0)
(42.7145 7.26345e-08 0)
(42.7146 7.26495e-08 0)
(42.7147 7.26593e-08 0)
(42.7148 7.2672e-08 0)
(42.7149 7.26913e-08 0)
(42.715 7.27085e-08 0)
(42.7151 7.27252e-08 0)
(42.7152 7.27426e-08 0)
(42.7153 7.27638e-08 0)
(42.7154 7.27838e-08 0)
(42.7155 7.28082e-08 0)
(42.7156 7.28314e-08 0)
(42.7158 7.28589e-08 0)
(42.7159 7.28903e-08 0)
(42.716 7.29188e-08 0)
(42.7161 7.29529e-08 0)
(42.7162 7.29885e-08 0)
(42.7164 7.30257e-08 0)
(42.7165 7.30717e-08 0)
(42.7166 7.31178e-08 0)
(42.7168 7.31654e-08 0)
(42.7169 7.32137e-08 0)
(42.7171 7.32697e-08 0)
(42.7172 7.3334e-08 0)
(42.7173 7.33976e-08 0)
(42.7175 7.34666e-08 0)
(42.7177 7.35352e-08 0)
(42.7178 7.36137e-08 0)
(42.718 7.36932e-08 0)
(42.7181 7.37765e-08 0)
(42.7183 7.38693e-08 0)
(42.7185 7.39639e-08 0)
(42.7187 7.40648e-08 0)
(42.7189 7.4164e-08 0)
(42.719 7.42677e-08 0)
(42.7192 7.43824e-08 0)
(42.7194 7.45098e-08 0)
(42.7197 7.46386e-08 0)
(42.7199 7.47811e-08 0)
(42.7201 7.49263e-08 0)
(42.7203 7.50855e-08 0)
(42.7205 7.52524e-08 0)
(42.7208 7.54292e-08 0)
(42.721 7.56125e-08 0)
(42.7213 7.58036e-08 0)
(42.7215 7.6009e-08 0)
(42.7218 7.62212e-08 0)
(42.7221 7.64433e-08 0)
(42.7223 7.66692e-08 0)
(42.7226 7.69109e-08 0)
(42.7229 7.71543e-08 0)
(42.7232 7.74129e-08 0)
(42.7236 7.76747e-08 0)
(42.7239 7.7946e-08 0)
(42.7242 7.82284e-08 0)
(42.7246 7.85176e-08 0)
(42.7249 7.88208e-08 0)
(42.7253 7.9133e-08 0)
(42.7257 7.94546e-08 0)
(42.7261 7.9792e-08 0)
(42.7265 8.01362e-08 0)
(42.7269 8.04914e-08 0)
(42.7273 8.08612e-08 0)
(42.7277 8.12432e-08 0)
(42.7282 8.16318e-08 0)
(42.7286 8.20309e-08 0)
(42.7291 8.24415e-08 0)
(42.7296 8.28598e-08 0)
(42.7301 8.32938e-08 0)
(42.7306 8.37336e-08 0)
(42.7312 8.41862e-08 0)
(42.7317 8.46489e-08 0)
(42.7323 8.51194e-08 0)
(42.7329 8.55984e-08 0)
(42.7334 8.60851e-08 0)
(42.734 8.65774e-08 0)
(42.7347 8.70843e-08 0)
(42.7353 8.75952e-08 0)
(42.736 8.81102e-08 0)
(42.7366 8.86358e-08 0)
(42.7373 8.91604e-08 0)
(42.738 8.96898e-08 0)
(42.7387 9.022e-08 0)
(42.7395 9.07562e-08 0)
(42.7402 9.12968e-08 0)
(42.741 9.18341e-08 0)
(42.7418 9.23821e-08 0)
(42.7426 9.29198e-08 0)
(42.7434 9.34563e-08 0)
(42.7443 9.3981e-08 0)
(42.7451 9.45067e-08 0)
(42.746 9.50311e-08 0)
(42.7469 9.55411e-08 0)
(42.7478 9.60616e-08 0)
(42.7487 9.6563e-08 0)
(42.7496 9.70699e-08 0)
(42.7506 9.7571e-08 0)
(42.7516 9.80494e-08 0)
(42.7526 9.8534e-08 0)
(42.7536 9.89952e-08 0)
(42.7546 9.94553e-08 0)
(42.7556 9.98938e-08 0)
(42.7567 1.00323e-07 0)
(42.7577 1.00718e-07 0)
(42.7588 1.0112e-07 0)
(42.7599 1.0147e-07 0)
(42.761 1.01803e-07 0)
(42.7621 1.02167e-07 0)
(42.7632 1.02469e-07 0)
(42.7644 1.02774e-07 0)
(42.7655 1.03067e-07 0)
(42.7667 1.03271e-07 0)
(42.7678 1.035e-07 0)
(42.769 1.037e-07 0)
(42.7702 1.03865e-07 0)
(42.7714 1.03989e-07 0)
(42.7726 1.04105e-07 0)
(42.7738 1.04184e-07 0)
(42.775 1.04282e-07 0)
(42.7762 1.04512e-07 0)
(42.7774 1.04881e-07 0)
(42.7786 1.05888e-07 0)
(42.7798 1.08305e-07 0)
(42.781 1.1413e-07 0)
(42.7822 1.28255e-07 0)
(42.7834 1.62249e-07 0)
(42.7846 2.43609e-07 0)
(42.7858 4.38382e-07 0)
(42.787 9.03794e-07 0)
(42.7882 2.01623e-06 0)
(42.7894 4.67599e-06 0)
(42.7905 1.10364e-05 0)
(42.7916 2.6244e-05 0)
(42.7926 6.26031e-05 0)
(42.7934 0.000149507 0)
(42.7936 0.000357131 0)
(42.7925 0.000853027 0)
(42.7884 0.0020357 0)
(42.7771 0.00485103 0)
(42.7486 0.0115344 0)
(42.6795 0.0273547 0)
(42.515 0.0647492 0)
(42.1253 0.154001 0)
(41.2593 0.381606 0)
(38.0866 0.964448 0)
(42.7 9.72863e-05 0)
(42.7002 9.88163e-05 0)
(42.7003 9.45363e-05 0)
(42.7004 9.88212e-05 0)
(42.7004 0.000102583 0)
(42.7005 0.000104509 0)
(42.7006 0.000105833 0)
(42.7007 0.000106989 0)
(42.7008 0.000107984 0)
(42.7009 0.000108819 0)
(42.7009 0.000109533 0)
(42.701 0.000110149 0)
(42.7011 0.000110681 0)
(42.7012 0.000111151 0)
(42.7013 0.000111555 0)
(42.7014 0.000111913 0)
(42.7015 0.000112226 0)
(42.7016 0.000112501 0)
(42.7016 0.000112744 0)
(42.7017 0.000112957 0)
(42.7018 0.000113146 0)
(42.7019 0.000113314 0)
(42.702 0.000113464 0)
(42.7021 0.000113597 0)
(42.7022 0.000113716 0)
(42.7022 0.000113824 0)