/*--------------------------------*- C++ -*----------------------------------*\
| =========                 |                                                 |
| \\      /  F ield         | OpenFOAM: The Open Source CFD Toolbox           |
|  \\    /   O peration     | Version:  3.0.x                                 |
|   \\  /    A nd           | Web:      www.OpenFOAM.org                      |
|    \\/     M anipulation  |                                                 |
\*---------------------------------------------------------------------------*/
FoamFile
{
    version     2.0;
    format      ascii;
    class       volScalarField;
    location    "0.13";
    object      rho;
}
// * * * * * * * * * * * * * * * * * * * * * * * * * * * * * * * * * * * * * //

dimensions      [1 -3 0 0 0 0 0];

internalField   nonuniform List<scalar> 
6900
(
50.5862
50.5863
50.5864
50.5865
50.5867
50.5869
50.5872
50.5877
50.5883
50.5888
50.5894
50.5899
50.5904
50.591
50.5915
50.592
50.5926
50.5932
50.5939
50.5946
50.5953
50.596
50.5967
50.5975
50.5983
50.5992
50.6
50.6009
50.6018
50.6026
50.6035
50.6044
50.6053
50.6062
50.6071
50.608
50.6088
50.6097
50.6105
50.6113
50.612
50.6128
50.6135
50.6141
50.6148
50.6154
50.6159
50.6165
50.617
50.6175
50.618
50.6184
50.6188
50.6193
50.6197
50.6201
50.6205
50.6209
50.6213
50.6217
50.6222
50.6226
50.6231
50.6236
50.6241
50.6246
50.6251
50.6257
50.6262
50.6268
50.6274
50.6279
50.6285
50.6291
50.6297
50.6302
50.6308
50.6313
50.6319
50.6324
50.6329
50.6333
50.6337
50.6341
50.6345
50.6348
50.6351
50.6353
50.6355
50.6357
50.6359
50.636
50.6361
50.6362
50.6362
50.6363
50.6363
50.6364
50.6364
50.6365
50.6365
50.6366
50.6368
50.6369
50.6371
50.6374
50.6376
50.6379
50.6383
50.6387
50.6391
50.6396
50.6401
50.6407
50.6412
50.6418
50.6424
50.643
50.6435
50.6441
50.6446
50.6451
50.6456
50.646
50.6463
50.6466
50.6468
50.647
50.6471
50.6471
50.6471
50.647
50.6468
50.6466
50.6464
50.6461
50.6457
50.6453
50.6449
50.6445
50.6441
50.6437
50.6432
50.6428
50.6424
50.642
50.6417
50.6414
50.6411
50.6408
50.6406
50.6405
50.6404
50.6403
50.6402
50.6402
50.6403
50.6403
50.6403
50.6404
50.6405
50.6405
50.6405
50.6406
50.6406
50.6406
50.6405
50.6405
50.6404
50.6403
50.6402
50.6401
50.6399
50.6397
50.6395
50.6393
50.6391
50.6389
50.6386
50.6383
50.6381
50.6378
50.6376
50.6374
50.6372
50.637
50.6369
50.6368
50.6368
50.6368
50.6369
50.637
50.6371
50.6373
50.6375
50.6377
50.638
50.6381
50.6387
50.6362
50.5863
50.5863
50.5864
50.5866
50.5867
50.587
50.5873
50.5878
50.5883
50.5889
50.5895
50.59
50.5905
50.591
50.5915
50.5921
50.5927
50.5933
50.5939
50.5946
50.5953
50.596
50.5968
50.5976
50.5984
50.5992
50.6001
50.6009
50.6018
50.6027
50.6036
50.6045
50.6054
50.6063
50.6071
50.608
50.6089
50.6097
50.6105
50.6113
50.6121
50.6128
50.6135
50.6142
50.6148
50.6154
50.616
50.6165
50.617
50.6175
50.618
50.6184
50.6189
50.6193
50.6197
50.6201
50.6205
50.6209
50.6214
50.6218
50.6222
50.6227
50.6231
50.6236
50.6241
50.6246
50.6252
50.6257
50.6263
50.6268
50.6274
50.628
50.6286
50.6291
50.6297
50.6303
50.6308
50.6314
50.6319
50.6324
50.6329
50.6334
50.6338
50.6342
50.6345
50.6348
50.6351
50.6354
50.6356
50.6358
50.6359
50.636
50.6361
50.6362
50.6363
50.6363
50.6364
50.6364
50.6364
50.6365
50.6366
50.6367
50.6368
50.637
50.6372
50.6374
50.6377
50.638
50.6383
50.6387
50.6392
50.6397
50.6402
50.6407
50.6413
50.6418
50.6424
50.643
50.6436
50.6441
50.6447
50.6452
50.6456
50.646
50.6464
50.6467
50.6469
50.647
50.6471
50.6472
50.6471
50.647
50.6469
50.6467
50.6464
50.6461
50.6458
50.6454
50.645
50.6446
50.6441
50.6437
50.6433
50.6429
50.6424
50.6421
50.6417
50.6414
50.6411
50.6409
50.6407
50.6405
50.6404
50.6403
50.6403
50.6403
50.6403
50.6403
50.6404
50.6404
50.6405
50.6405
50.6406
50.6406
50.6406
50.6406
50.6406
50.6405
50.6404
50.6404
50.6402
50.6401
50.6399
50.6398
50.6396
50.6394
50.6391
50.6389
50.6386
50.6384
50.6381
50.6379
50.6376
50.6374
50.6372
50.6371
50.637
50.6369
50.6369
50.6369
50.6369
50.637
50.6372
50.6374
50.6376
50.6378
50.638
50.6382
50.6387
50.6365
50.5863
50.5863
50.5864
50.5866
50.5867
50.587
50.5873
50.5878
50.5883
50.5889
50.5895
50.59
50.5905
50.591
50.5915
50.5921
50.5927
50.5933
50.5939
50.5946
50.5953
50.596
50.5968
50.5976
50.5984
50.5992
50.6001
50.6009
50.6018
50.6027
50.6036
50.6045
50.6054
50.6063
50.6071
50.608
50.6089
50.6097
50.6105
50.6113
50.6121
50.6128
50.6135
50.6142
50.6148
50.6154
50.616
50.6165
50.617
50.6175
50.618
50.6184
50.6189
50.6193
50.6197
50.6201
50.6205
50.6209
50.6214
50.6218
50.6222
50.6227
50.6231
50.6236
50.6241
50.6246
50.6252
50.6257
50.6263
50.6268
50.6274
50.628
50.6286
50.6291
50.6297
50.6303
50.6308
50.6314
50.6319
50.6324
50.6329
50.6334
50.6338
50.6342
50.6345
50.6348
50.6351
50.6354
50.6356
50.6358
50.6359
50.636
50.6361
50.6362
50.6363
50.6363
50.6364
50.6364
50.6364
50.6365
50.6366
50.6367
50.6368
50.637
50.6372
50.6374
50.6377
50.638
50.6383
50.6387
50.6392
50.6397
50.6402
50.6407
50.6413
50.6418
50.6424
50.643
50.6436
50.6441
50.6447
50.6452
50.6456
50.646
50.6464
50.6467
50.6469
50.647
50.6471
50.6472
50.6471
50.647
50.6469
50.6467
50.6464
50.6461
50.6458
50.6454
50.645
50.6446
50.6441
50.6437
50.6433
50.6429
50.6424
50.6421
50.6417
50.6414
50.6411
50.6409
50.6407
50.6405
50.6404
50.6403
50.6403
50.6403
50.6403
50.6403
50.6404
50.6404
50.6405
50.6405
50.6406
50.6406
50.6406
50.6406
50.6406
50.6405
50.6404
50.6404
50.6402
50.6401
50.6399
50.6398
50.6396
50.6394
50.6391
50.6389
50.6386
50.6384
50.6381
50.6379
50.6376
50.6374
50.6372
50.6371
50.637
50.6369
50.6369
50.6369
50.6369
50.637
50.6372
50.6374
50.6376
50.6378
50.638
50.6382
50.6384
50.6385
50.5863
50.5863
50.5864
50.5866
50.5867
50.587
50.5873
50.5878
50.5883
50.5889
50.5895
50.59
50.5905
50.591
50.5915
50.5921
50.5927
50.5933
50.5939
50.5946
50.5953
50.596
50.5968
50.5976
50.5984
50.5992
50.6001
50.6009
50.6018
50.6027
50.6036
50.6045
50.6054
50.6063
50.6071
50.608
50.6089
50.6097
50.6105
50.6113
50.6121
50.6128
50.6135
50.6142
50.6148
50.6154
50.616
50.6165
50.617
50.6175
50.618
50.6184
50.6189
50.6193
50.6197
50.6201
50.6205
50.6209
50.6214
50.6218
50.6222
50.6227
50.6231
50.6236
50.6241
50.6246
50.6252
50.6257
50.6263
50.6268
50.6274
50.628
50.6286
50.6291
50.6297
50.6303
50.6308
50.6314
50.6319
50.6324
50.6329
50.6334
50.6338
50.6342
50.6345
50.6348
50.6351
50.6354
50.6356
50.6358
50.6359
50.636
50.6361
50.6362
50.6363
50.6363
50.6364
50.6364
50.6364
50.6365
50.6366
50.6367
50.6368
50.637
50.6372
50.6374
50.6377
50.638
50.6383
50.6387
50.6392
50.6397
50.6402
50.6407
50.6413
50.6418
50.6424
50.643
50.6436
50.6441
50.6447
50.6452
50.6456
50.646
50.6464
50.6467
50.6469
50.647
50.6471
50.6472
50.6471
50.647
50.6469
50.6467
50.6464
50.6461
50.6458
50.6454
50.645
50.6446
50.6441
50.6437
50.6433
50.6429
50.6424
50.6421
50.6417
50.6414
50.6411
50.6409
50.6407
50.6405
50.6404
50.6403
50.6403
50.6403
50.6403
50.6403
50.6404
50.6404
50.6405
50.6405
50.6406
50.6406
50.6406
50.6406
50.6406
50.6405
50.6404
50.6404
50.6402
50.6401
50.6399
50.6398
50.6396
50.6394
50.6391
50.6389
50.6386
50.6384
50.6381
50.6379
50.6376
50.6374
50.6372
50.6371
50.6369
50.6369
50.6368
50.6369
50.6369
50.637
50.6372
50.6374
50.6376
50.6378
50.638
50.6382
50.6376
50.6433
50.5862
50.5863
50.5864
50.5865
50.5867
50.5869
50.5872
50.5877
50.5883
50.5888
50.5894
50.5899
50.5904
50.591
50.5915
50.592
50.5926
50.5932
50.5939
50.5946
50.5953
50.596
50.5967
50.5975
50.5983
50.5992
50.6
50.6009
50.6018
50.6026
50.6035
50.6044
50.6053
50.6062
50.6071
50.608
50.6088
50.6097
50.6105
50.6113
50.612
50.6128
50.6135
50.6141
50.6148
50.6154
50.6159
50.6165
50.617
50.6175
50.618
50.6184
50.6188
50.6193
50.6197
50.6201
50.6205
50.6209
50.6213
50.6217
50.6222
50.6226
50.6231
50.6236
50.6241
50.6246
50.6251
50.6257
50.6262
50.6268
50.6274
50.6279
50.6285
50.6291
50.6297
50.6302
50.6308
50.6313
50.6319
50.6324
50.6329
50.6333
50.6337
50.6341
50.6345
50.6348
50.6351
50.6353
50.6355
50.6357
50.6359
50.636
50.6361
50.6362
50.6362
50.6363
50.6363
50.6364
50.6364
50.6365
50.6365
50.6366
50.6368
50.6369
50.6371
50.6374
50.6376
50.6379
50.6383
50.6387
50.6391
50.6396
50.6401
50.6407
50.6412
50.6418
50.6424
50.643
50.6435
50.6441
50.6446
50.6451
50.6456
50.646
50.6463
50.6466
50.6468
50.647
50.6471
50.6471
50.6471
50.647
50.6468
50.6466
50.6464
50.6461
50.6457
50.6453
50.6449
50.6445
50.6441
50.6437
50.6432
50.6428
50.6424
50.642
50.6417
50.6414
50.6411
50.6408
50.6406
50.6405
50.6404
50.6403
50.6402
50.6402
50.6403
50.6403
50.6403
50.6404
50.6405
50.6405
50.6405
50.6406
50.6406
50.6406
50.6405
50.6405
50.6404
50.6403
50.6402
50.6401
50.6399
50.6397
50.6395
50.6393
50.6391
50.6389
50.6386
50.6383
50.6381
50.6378
50.6376
50.6374
50.6372
50.637
50.6369
50.6368
50.6368
50.6368
50.6369
50.637
50.6371
50.6373
50.6375
50.6377
50.6379
50.6382
50.637
50.6485
50.6532
50.6594
50.6602
50.6584
50.6569
50.6554
50.6529
50.6496
50.6463
50.6441
50.6452
50.6512
50.6536
50.6475
50.6345
50.6191
50.6088
50.6003
50.592
50.5926
50.6498
50.653
50.6528
50.6513
50.6498
50.6483
50.6459
50.6426
50.6394
50.6374
50.6388
50.6456
50.6466
50.6385
50.623
50.6085
50.5991
50.5914
50.5845
50.5844
50.6393
50.6392
50.6382
50.6363
50.6337
50.6305
50.6265
50.622
50.6165
50.61
50.6023
50.5937
50.5852
50.5775
50.5705
50.5627
50.5534
50.543
50.532
50.5196
50.6184
50.6157
50.6165
50.6177
50.6166
50.613
50.6081
50.6014
50.5959
50.5888
50.583
50.576
50.5696
50.5636
50.5574
50.5521
50.5474
50.5438
50.5407
50.5386
50.6092
50.598
50.5938
50.5931
50.5909
50.5862
50.5802
50.5725
50.5655
50.5572
50.5498
50.5418
50.5342
50.5264
50.5195
50.5128
50.5074
50.5026
50.4992
50.4974
50.5742
50.5422
50.529
50.5286
50.5289
50.5274
50.5255
50.5251
50.5257
50.5263
50.5262
50.5259
50.5258
50.526
50.5263
50.5266
50.5266
50.5266
50.5267
50.5268
50.5272
50.5275
50.5276
50.5246
50.5047
50.4539
50.424
50.4203
50.4357
50.4927
50.5404
50.5591
50.5617
50.5577
50.5477
50.541
50.5374
50.5354
50.5344
50.5338
50.5335
50.5333
50.5331
50.533
50.5329
50.5329
50.5329
50.5329
50.533
50.533
50.5331
50.5333
50.5334
50.5336
50.5338
50.5341
50.5343
50.5346
50.535
50.5353
50.5357
50.5361
50.5365
50.5369
50.5374
50.5379
50.5384
50.5389
50.5394
50.54
50.5406
50.5411
50.5417
50.5423
50.5429
50.5436
50.5442
50.5448
50.5455
50.5461
50.5468
50.5474
50.5481
50.5488
50.5495
50.5501
50.5508
50.5515
50.5522
50.5529
50.5535
50.5542
50.5549
50.5556
50.5562
50.5569
50.5575
50.5581
50.5587
50.5593
50.5599
50.5605
50.561
50.5615
50.562
50.5624
50.5629
50.5633
50.5637
50.564
50.5644
50.5647
50.565
50.5653
50.5655
50.5658
50.5661
50.5663
50.5665
50.5668
50.567
50.5673
50.5675
50.5677
50.568
50.5683
50.5685
50.5688
50.5691
50.5694
50.5698
50.5701
50.5704
50.5708
50.5712
50.5716
50.5721
50.5725
50.573
50.5735
50.574
50.5746
50.5751
50.5757
50.5762
50.5768
50.5774
50.578
50.5786
50.5792
50.5797
50.5803
50.5808
50.5813
50.5818
50.5823
50.5827
50.5831
50.5834
50.5838
50.584
50.5843
50.5845
50.5847
50.5848
50.5849
50.585
50.5851
50.5851
50.5851
50.5851
50.585
50.5849
50.5848
50.5847
50.5846
50.5844
50.5843
50.5841
50.584
50.5838
50.5836
50.5835
50.5833
50.5832
50.5831
50.583
50.583
50.583
50.583
50.5831
50.5832
50.5833
50.5834
50.5836
50.5838
50.584
50.5843
50.5835
50.5917
50.5725
50.5412
50.5286
50.5278
50.5279
50.5261
50.5243
50.524
50.5244
50.5249
50.5248
50.5246
50.5245
50.5247
50.5249
50.5251
50.5251
50.5251
50.5252
50.5255
50.526
50.5265
50.5269
50.5257
50.5171
50.4977
50.4871
50.486
50.4911
50.5097
50.5262
50.534
50.5366
50.5368
50.5363
50.5355
50.5348
50.5343
50.5339
50.5336
50.5334
50.5332
50.5331
50.533
50.533
50.5329
50.5329
50.5329
50.533
50.5331
50.5332
50.5333
50.5335
50.5337
50.5339
50.5341
50.5344
50.5347
50.535
50.5353
50.5357
50.5361
50.5365
50.537
50.5374
50.5379
50.5384
50.5389
50.5395
50.54
50.5406
50.5412
50.5418
50.5424
50.543
50.5436
50.5442
50.5449
50.5455
50.5462
50.5468
50.5475
50.5482
50.5488
50.5495
50.5502
50.5509
50.5515
50.5522
50.5529
50.5536
50.5543
50.5549
50.5556
50.5563
50.5569
50.5575
50.5582
50.5588
50.5594
50.5599
50.5605
50.561
50.5615
50.562
50.5625
50.5629
50.5633
50.5637
50.5641
50.5644
50.5647
50.565
50.5653
50.5656
50.5658
50.5661
50.5663
50.5666
50.5668
50.567
50.5673
50.5675
50.5678
50.568
50.5683
50.5686
50.5689
50.5692
50.5695
50.5698
50.5701
50.5705
50.5709
50.5713
50.5717
50.5721
50.5726
50.5731
50.5736
50.5741
50.5746
50.5751
50.5757
50.5763
50.5769
50.5774
50.578
50.5786
50.5792
50.5798
50.5803
50.5809
50.5814
50.5818
50.5823
50.5827
50.5831
50.5835
50.5838
50.5841
50.5843
50.5845
50.5847
50.5849
50.585
50.5851
50.5851
50.5851
50.5851
50.5851
50.585
50.585
50.5849
50.5848
50.5846
50.5845
50.5843
50.5842
50.584
50.5838
50.5837
50.5835
50.5834
50.5832
50.5831
50.5831
50.583
50.583
50.5831
50.5831
50.5832
50.5833
50.5835
50.5836
50.5839
50.5841
50.5843
50.5839
50.5875
50.4862
50.4991
50.508
50.5093
50.508
50.5072
50.5072
50.5073
50.5074
50.5075
50.5075
50.5075
50.5076
50.5077
50.5079
50.5082
50.509
50.5117
50.5172
50.5219
50.5252
50.5273
50.5285
50.5292
50.5298
50.5304
50.531
50.5318
50.5329
50.5338
50.5344
50.5346
50.5345
50.5343
50.5341
50.5339
50.5338
50.5336
50.5335
50.5333
50.5332
50.5331
50.533
50.533
50.5329
50.5329
50.5329
50.5329
50.533
50.5331
50.5332
50.5333
50.5335
50.5337
50.5339
50.5341
50.5344
50.5347
50.535
50.5353
50.5357
50.5361
50.5365
50.537
50.5374
50.5379
50.5384
50.5389
50.5395
50.54
50.5406
50.5412
50.5418
50.5424
50.543
50.5436
50.5442
50.5449
50.5455
50.5462
50.5468
50.5475
50.5482
50.5488
50.5495
50.5502
50.5509
50.5515
50.5522
50.5529
50.5536
50.5543
50.5549
50.5556
50.5563
50.5569
50.5575
50.5582
50.5588
50.5594
50.5599
50.5605
50.561
50.5615
50.562
50.5625
50.5629
50.5633
50.5637
50.5641
50.5644
50.5647
50.565
50.5653
50.5656
50.5658
50.5661
50.5663
50.5666
50.5668
50.567
50.5673
50.5675
50.5678
50.568
50.5683
50.5686
50.5689
50.5692
50.5695
50.5698
50.5701
50.5705
50.5709
50.5713
50.5717
50.5721
50.5726
50.5731
50.5736
50.5741
50.5746
50.5751
50.5757
50.5763
50.5769
50.5774
50.578
50.5786
50.5792
50.5798
50.5803
50.5809
50.5814
50.5818
50.5823
50.5827
50.5831
50.5835
50.5838
50.5841
50.5843
50.5845
50.5847
50.5849
50.585
50.5851
50.5851
50.5851
50.5851
50.5851
50.585
50.585
50.5849
50.5848
50.5846
50.5845
50.5843
50.5842
50.584
50.5838
50.5837
50.5835
50.5834
50.5832
50.5831
50.5831
50.583
50.583
50.583
50.5831
50.5832
50.5833
50.5835
50.5837
50.5839
50.5841
50.5843
50.5846
50.5849
50.5313
50.5281
50.5269
50.5259
50.5249
50.5243
50.5243
50.5247
50.5249
50.5249
50.525
50.5252
50.5255
50.5257
50.526
50.5261
50.5261
50.5261
50.5262
50.5263
50.5259
50.5252
50.5251
50.5253
50.5252
50.5229
50.52
50.5194
50.5201
50.5227
50.5285
50.5326
50.5346
50.5352
50.5353
50.535
50.5346
50.5341
50.5338
50.5335
50.5333
50.5332
50.5331
50.533
50.5329
50.5329
50.5329
50.5329
50.533
50.5331
50.5332
50.5333
50.5335
50.5337
50.5339
50.5341
50.5344
50.5347
50.535
50.5353
50.5357
50.5361
50.5365
50.537
50.5374
50.5379
50.5384
50.5389
50.5395
50.54
50.5406
50.5412
50.5418
50.5424
50.543
50.5436
50.5442
50.5449
50.5455
50.5462
50.5468
50.5475
50.5482
50.5488
50.5495
50.5502
50.5509
50.5515
50.5522
50.5529
50.5536
50.5543
50.5549
50.5556
50.5563
50.5569
50.5575
50.5582
50.5588
50.5594
50.5599
50.5605
50.561
50.5615
50.562
50.5625
50.5629
50.5633
50.5637
50.5641
50.5644
50.5647
50.565
50.5653
50.5656
50.5658
50.5661
50.5663
50.5666
50.5668
50.567
50.5673
50.5675
50.5678
50.568
50.5683
50.5686
50.5689
50.5692
50.5695
50.5698
50.5701
50.5705
50.5709
50.5713
50.5717
50.5721
50.5726
50.5731
50.5736
50.5741
50.5746
50.5751
50.5757
50.5763
50.5769
50.5774
50.578
50.5786
50.5792
50.5798
50.5803
50.5809
50.5814
50.5818
50.5823
50.5827
50.5831
50.5835
50.5838
50.5841
50.5843
50.5845
50.5847
50.5849
50.585
50.5851
50.5851
50.5851
50.5851
50.5851
50.585
50.585
50.5849
50.5848
50.5846
50.5845
50.5843
50.5842
50.584
50.5838
50.5837
50.5835
50.5834
50.5832
50.5831
50.5831
50.583
50.583
50.583
50.5831
50.5832
50.5833
50.5835
50.5837
50.5839
50.5841
50.5844
50.585
50.5842
50.517
50.5196
50.519
50.5184
50.5174
50.5168
50.5169
50.5171
50.5173
50.5173
50.5174
50.5175
50.5178
50.518
50.518
50.5181
50.5182
50.5182
50.5176
50.5175
50.5179
50.5193
50.5219
50.5229
50.5209
50.5055
50.4805
50.4683
50.4663
50.4696
50.4847
50.5038
50.5166
50.5245
50.529
50.5314
50.5325
50.533
50.5332
50.5332
50.5332
50.5331
50.533
50.5329
50.5329
50.5329
50.5329
50.5329
50.533
50.533
50.5331
50.5333
50.5334
50.5336
50.5338
50.5341
50.5343
50.5346
50.535
50.5353
50.5357
50.5361
50.5365
50.5369
50.5374
50.5379
50.5384
50.5389
50.5394
50.54
50.5406
50.5411
50.5417
50.5423
50.5429
50.5436
50.5442
50.5448
50.5455
50.5461
50.5468
50.5474
50.5481
50.5488
50.5495
50.5501
50.5508
50.5515
50.5522
50.5529
50.5535
50.5542
50.5549
50.5556
50.5562
50.5569
50.5575
50.5581
50.5587
50.5593
50.5599
50.5605
50.561
50.5615
50.562
50.5624
50.5629
50.5633
50.5637
50.564
50.5644
50.5647
50.565
50.5653
50.5655
50.5658
50.5661
50.5663
50.5665
50.5668
50.567
50.5673
50.5675
50.5677
50.568
50.5683
50.5685
50.5688
50.5691
50.5694
50.5698
50.5701
50.5704
50.5708
50.5712
50.5716
50.5721
50.5725
50.573
50.5735
50.574
50.5746
50.5751
50.5757
50.5762
50.5768
50.5774
50.578
50.5786
50.5792
50.5797
50.5803
50.5808
50.5813
50.5818
50.5823
50.5827
50.5831
50.5834
50.5838
50.584
50.5843
50.5845
50.5847
50.5848
50.5849
50.585
50.5851
50.5851
50.5851
50.5851
50.585
50.5849
50.5848
50.5847
50.5846
50.5844
50.5843
50.5841
50.5839
50.5838
50.5836
50.5835
50.5833
50.5832
50.5831
50.583
50.583
50.583
50.583
50.5831
50.5832
50.5833
50.5834
50.5836
50.5838
50.5841
50.5843
50.585
50.584
50.5582
50.5465
50.5422
50.5413
50.5391
50.5345
50.5282
50.5216
50.5142
50.507
50.4994
50.4915
50.4842
50.4768
50.4703
50.4641
50.459
50.4545
50.4512
50.4496
50.5664
50.5636
50.5641
50.5653
50.5641
50.5606
50.5551
50.5502
50.5435
50.5381
50.5312
50.525
50.519
50.5127
50.5072
50.5024
50.4979
50.4943
50.4913
50.4894
50.5857
50.5857
50.5848
50.583
50.5806
50.5775
50.5738
50.5693
50.5639
50.5572
50.5498
50.5422
50.5353
50.5287
50.5213
50.5125
50.5028
50.4924
50.4811
50.4679
50.5954
50.5986
50.5986
50.5972
50.5956
50.5941
50.5919
50.5891
50.5871
50.5881
50.5932
50.5936
50.5862
50.5726
50.5604
50.5521
50.5447
50.5383
50.5349
50.5468
50.5986
50.605
50.6057
50.6041
50.6026
50.6009
50.5986
50.5959
50.5937
50.5944
50.599
50.6002
50.5944
50.5827
50.5697
50.5606
50.5527
50.5452
50.5412
50.5538
50.4682
50.4704
50.47
50.4694
50.4686
50.4681
50.4683
50.4686
50.4687
50.4688
50.4688
50.469
50.4692
50.4694
50.4696
50.4696
50.4695
50.4694
50.4691
50.4686
50.4687
50.4693
50.4713
50.473
50.473
50.4665
50.4428
50.4229
50.416
50.4164
50.4239
50.4434
50.4594
50.4697
50.4759
50.4794
50.4812
50.4821
50.4825
50.4827
50.4827
50.4827
50.4827
50.4827
50.4827
50.4827
50.4827
50.4827
50.4827
50.4828
50.4828
50.4829
50.4829
50.483
50.483
50.4831
50.4831
50.4832
50.4832
50.4832
50.4833
50.4833
50.4833
50.4833
50.4833
50.4833
50.4833
50.4833
50.4833
50.4833
50.4832
50.4832
50.4831
50.483
50.4829
50.4828
50.4827
50.4825
50.4824
50.4822
50.482
50.4819
50.4817
50.4816
50.4815
50.4814
50.4813
50.4812
50.4811
50.4811
50.4811
50.4811
50.4811
50.4812
50.4813
50.4814
50.4815
50.4817
50.4807
50.4884
50.4821
50.4788
50.4777
50.4769
50.4759
50.4755
50.4757
50.4761
50.4762
50.4762
50.4763
50.4765
50.4767
50.477
50.4772
50.4773
50.4773
50.477
50.4769
50.477
50.4769
50.4762
50.4756
50.4756
50.4756
50.4746
50.4714
50.4697
50.4698
50.4709
50.4749
50.4799
50.4828
50.4841
50.4845
50.4844
50.4841
50.4837
50.4834
50.4831
50.483
50.4829
50.4828
50.4827
50.4827
50.4827
50.4827
50.4827
50.4828
50.4828
50.4829
50.4829
50.483
50.483
50.4831
50.4831
50.4832
50.4832
50.4832
50.4833
50.4833
50.4833
50.4833
50.4834
50.4834
50.4834
50.4834
50.4834
50.4833
50.4833
50.4833
50.4832
50.4831
50.483
50.4829
50.4828
50.4827
50.4826
50.4824
50.4822
50.4821
50.4819
50.4818
50.4816
50.4815
50.4814
50.4813
50.4812
50.4812
50.4811
50.4811
50.4811
50.4812
50.4812
50.4813
50.4814
50.4815
50.4817
50.4811
50.4843
50.4391
50.4512
50.4595
50.4608
50.4595
50.4588
50.459
50.4592
50.4593
50.4594
50.4595
50.4596
50.4595
50.4593
50.4593
50.4594
50.4596
50.4607
50.4649
50.47
50.4738
50.4762
50.4776
50.4785
50.479
50.4794
50.4799
50.4805
50.4815
50.4825
50.4833
50.4836
50.4837
50.4836
50.4834
50.4833
50.4831
50.483
50.4829
50.4829
50.4828
50.4827
50.4827
50.4827
50.4827
50.4827
50.4827
50.4827
50.4828
50.4828
50.4829
50.4829
50.483
50.483
50.4831
50.4831
50.4832
50.4832
50.4832
50.4833
50.4833
50.4833
50.4833
50.4834
50.4834
50.4834
50.4834
50.4834
50.4833
50.4833
50.4833
50.4832
50.4831
50.483
50.4829
50.4828
50.4827
50.4826
50.4824
50.4822
50.4821
50.4819
50.4818
50.4816
50.4815
50.4814
50.4813
50.4812
50.4812
50.4811
50.4811
50.4811
50.4812
50.4812
50.4813
50.4814
50.4815
50.4817
50.4818
50.482
50.5261
50.4872
50.4777
50.4801
50.4804
50.4771
50.4753
50.4756
50.4763
50.4766
50.4761
50.4757
50.4758
50.476
50.4761
50.4763
50.4767
50.4764
50.4758
50.4756
50.4758
50.4763
50.4766
50.4765
50.4731
50.4581
50.4415
50.4357
50.4368
50.4471
50.4678
50.4801
50.4853
50.4865
50.4863
50.4854
50.4845
50.4839
50.4835
50.4833
50.4831
50.4829
50.4828
50.4828
50.4827
50.4827
50.4827
50.4827
50.4828
50.4828
50.4829
50.4829
50.483
50.483
50.4831
50.4831
50.4832
50.4832
50.4832
50.4833
50.4833
50.4833
50.4833
50.4834
50.4834
50.4834
50.4834
50.4834
50.4833
50.4833
50.4833
50.4832
50.4831
50.483
50.4829
50.4828
50.4827
50.4826
50.4824
50.4822
50.4821
50.4819
50.4818
50.4816
50.4815
50.4814
50.4813
50.4812
50.4812
50.4811
50.4811
50.4811
50.4812
50.4812
50.4813
50.4814
50.4816
50.4817
50.4823
50.4815
50.5287
50.4881
50.4783
50.4807
50.4816
50.4782
50.4762
50.4767
50.4776
50.4781
50.4775
50.477
50.477
50.4772
50.4774
50.4776
50.4784
50.4783
50.4776
50.4772
50.4772
50.4774
50.4776
50.477
50.4701
50.4372
50.3919
50.3745
50.3765
50.4048
50.4648
50.4987
50.5095
50.5093
50.5029
50.4938
50.4886
50.4858
50.4844
50.4836
50.4832
50.483
50.4828
50.4828
50.4827
50.4827
50.4827
50.4827
50.4827
50.4828
50.4828
50.4829
50.4829
50.483
50.483
50.4831
50.4831
50.4832
50.4832
50.4832
50.4833
50.4833
50.4833
50.4833
50.4833
50.4833
50.4833
50.4833
50.4833
50.4833
50.4832
50.4832
50.4831
50.483
50.4829
50.4828
50.4827
50.4825
50.4824
50.4822
50.482
50.4819
50.4817
50.4816
50.4815
50.4814
50.4813
50.4812
50.4811
50.4811
50.4811
50.4811
50.4811
50.4812
50.4813
50.4814
50.4815
50.4817
50.4822
50.4812
50.4552
50.4434
50.4391
50.4381
50.4359
50.4312
50.4248
50.4183
50.4108
50.4035
50.3958
50.3879
50.3806
50.3731
50.3666
50.3602
50.3551
50.3505
50.3472
50.3455
50.4634
50.4605
50.461
50.4621
50.4609
50.4574
50.4518
50.4468
50.4401
50.4347
50.4277
50.4215
50.4154
50.4091
50.4035
50.3987
50.3941
50.3905
50.3874
50.3854
50.4828
50.4827
50.4818
50.4799
50.4775
50.4744
50.4707
50.4661
50.4607
50.454
50.4465
50.439
50.432
50.4253
50.4179
50.409
50.3993
50.3889
50.3775
50.3643
50.4924
50.4956
50.4956
50.4941
50.4926
50.491
50.4888
50.486
50.4839
50.4849
50.49
50.4903
50.4829
50.4693
50.4571
50.4487
50.4412
50.4347
50.4313
50.443
50.4956
50.502
50.5027
50.501
50.4995
50.4979
50.4956
50.4928
50.4906
50.4912
50.4958
50.497
50.4911
50.4794
50.4664
50.4573
50.4493
50.4417
50.4376
50.45
50.364
50.366
50.3659
50.3654
50.3646
50.3642
50.3644
50.3647
50.3649
50.365
50.3651
50.3652
50.3654
50.3656
50.3656
50.3656
50.3656
50.3654
50.3649
50.3649
50.3655
50.3672
50.3692
50.3696
50.3651
50.3444
50.3228
50.3145
50.3144
50.3204
50.339
50.3558
50.3666
50.3731
50.3768
50.3787
50.3796
50.38
50.3801
50.3801
50.38
50.3799
50.3798
50.3797
50.3797
50.3796
50.3795
50.3795
50.3795
50.3794
50.3794
50.3794
50.3795
50.3795
50.3795
50.3796
50.3796
50.3797
50.3798
50.3799
50.38
50.3801
50.3802
50.3803
50.3804
50.3804
50.3805
50.3806
50.3807
50.3807
50.3808
50.3809
50.3809
50.3809
50.381
50.381
50.381
50.3811
50.3811
50.3811
50.3811
50.3812
50.3812
50.3813
50.3813
50.3814
50.3815
50.3816
50.3817
50.3819
50.3821
50.3823
50.3825
50.3827
50.383
50.3833
50.3836
50.3839
50.3842
50.3846
50.3849
50.3853
50.3857
50.3861
50.3865
50.3869
50.3874
50.3878
50.3882
50.3886
50.3891
50.3895
50.3899
50.3903
50.3908
50.3912
50.3916
50.392
50.3923
50.3927
50.3931
50.3934
50.3937
50.3941
50.3944
50.3947
50.3949
50.3952
50.3955
50.3957
50.3959
50.3962
50.3964
50.3966
50.3968
50.397
50.3972
50.3975
50.3977
50.3979
50.3981
50.3984
50.3986
50.3989
50.3991
50.3994
50.3997
50.4
50.4003
50.4006
50.4009
50.4012
50.4015
50.4018
50.4021
50.4025
50.4028
50.4032
50.4035
50.4039
50.4043
50.4046
50.4051
50.4055
50.4059
50.4064
50.4068
50.4073
50.4078
50.4083
50.4088
50.4094
50.4099
50.4104
50.411
50.4115
50.4121
50.4126
50.4132
50.4138
50.4143
50.4149
50.4155
50.4161
50.4167
50.4173
50.4179
50.4185
50.4191
50.4197
50.4203
50.4209
50.4215
50.422
50.4225
50.423
50.4235
50.4239
50.4247
50.4236
50.3777
50.3745
50.3736
50.3729
50.3719
50.3715
50.3718
50.3721
50.3722
50.3723
50.3725
50.3727
50.3729
50.3731
50.3733
50.3734
50.3732
50.3732
50.3733
50.3733
50.3728
50.3723
50.3723
50.3724
50.3719
50.3692
50.3675
50.3676
50.3686
50.3723
50.3773
50.3803
50.3816
50.382
50.3819
50.3816
50.3812
50.3808
50.3806
50.3803
50.3802
50.38
50.3799
50.3798
50.3797
50.3796
50.3796
50.3795
50.3795
50.3795
50.3795
50.3795
50.3795
50.3795
50.3796
50.3796
50.3797
50.3798
50.3798
50.3799
50.38
50.3801
50.3802
50.3803
50.3804
50.3805
50.3806
50.3806
50.3807
50.3808
50.3808
50.3809
50.3809
50.381
50.381
50.381
50.3811
50.3811
50.3811
50.3811
50.3812
50.3812
50.3812
50.3813
50.3814
50.3814
50.3815
50.3817
50.3818
50.3819
50.3821
50.3823
50.3825
50.3828
50.383
50.3833
50.3836
50.3839
50.3843
50.3846
50.385
50.3854
50.3857
50.3861
50.3866
50.387
50.3874
50.3878
50.3883
50.3887
50.3891
50.3895
50.39
50.3904
50.3908
50.3912
50.3916
50.392
50.3924
50.3927
50.3931
50.3935
50.3938
50.3941
50.3944
50.3947
50.395
50.3953
50.3955
50.3958
50.396
50.3962
50.3964
50.3966
50.3968
50.3971
50.3973
50.3975
50.3977
50.3979
50.3982
50.3984
50.3987
50.3989
50.3992
50.3994
50.3997
50.4
50.4003
50.4006
50.4009
50.4012
50.4015
50.4019
50.4022
50.4025
50.4028
50.4032
50.4035
50.4039
50.4043
50.4047
50.4051
50.4055
50.406
50.4064
50.4069
50.4074
50.4078
50.4083
50.4089
50.4094
50.4099
50.4105
50.411
50.4116
50.4121
50.4127
50.4132
50.4138
50.4144
50.415
50.4155
50.4161
50.4167
50.4173
50.4179
50.4185
50.4192
50.4197
50.4203
50.4209
50.4215
50.422
50.4226
50.423
50.4235
50.424
50.4247
50.4238
50.3349
50.3476
50.356
50.3571
50.3557
50.3551
50.3551
50.3552
50.3553
50.3553
50.3554
50.3554
50.3554
50.3554
50.3555
50.3557
50.3565
50.3594
50.3647
50.369
50.372
50.3739
50.375
50.3757
50.3763
50.3769
50.3776
50.3786
50.3797
50.3806
50.381
50.3811
50.3811
50.3809
50.3808
50.3806
50.3805
50.3804
50.3803
50.3802
50.38
50.3799
50.3799
50.3798
50.3797
50.3796
50.3796
50.3795
50.3795
50.3795
50.3795
50.3795
50.3795
50.3795
50.3796
50.3796
50.3797
50.3798
50.3798
50.3799
50.38
50.3801
50.3802
50.3803
50.3804
50.3805
50.3806
50.3806
50.3807
50.3808
50.3808
50.3809
50.3809
50.381
50.381
50.381
50.3811
50.3811
50.3811
50.3811
50.3812
50.3812
50.3812
50.3813
50.3814
50.3814
50.3815
50.3817
50.3818
50.3819
50.3821
50.3823
50.3825
50.3828
50.383
50.3833
50.3836
50.3839
50.3843
50.3846
50.385
50.3854
50.3857
50.3861
50.3866
50.387
50.3874
50.3878
50.3883
50.3887
50.3891
50.3895
50.39
50.3904
50.3908
50.3912
50.3916
50.392
50.3924
50.3927
50.3931
50.3935
50.3938
50.3941
50.3944
50.3947
50.395
50.3953
50.3955
50.3958
50.396
50.3962
50.3964
50.3966
50.3968
50.3971
50.3973
50.3975
50.3977
50.3979
50.3982
50.3984
50.3987
50.3989
50.3992
50.3994
50.3997
50.4
50.4003
50.4006
50.4009
50.4012
50.4015
50.4019
50.4022
50.4025
50.4028
50.4032
50.4035
50.4039
50.4043
50.4047
50.4051
50.4055
50.406
50.4064
50.4069
50.4074
50.4078
50.4083
50.4089
50.4094
50.4099
50.4105
50.411
50.4116
50.4121
50.4127
50.4132
50.4138
50.4144
50.415
50.4155
50.4161
50.4167
50.4173
50.4179
50.4185
50.4192
50.4197
50.4203
50.4209
50.4215
50.422
50.4226
50.423
50.4235
50.4239
50.4243
50.4245
50.4203
50.3824
50.3739
50.3764
50.3758
50.3727
50.3712
50.3715
50.3722
50.3724
50.372
50.3717
50.3718
50.372
50.3723
50.3726
50.3725
50.3722
50.3722
50.3724
50.3728
50.3732
50.3733
50.3709
50.3583
50.3412
50.3344
50.3351
50.3435
50.3637
50.3767
50.3823
50.3838
50.3837
50.3829
50.382
50.3814
50.381
50.3807
50.3804
50.3802
50.3801
50.3799
50.3798
50.3797
50.3796
50.3796
50.3795
50.3795
50.3795
50.3795
50.3795
50.3795
50.3795
50.3796
50.3796
50.3797
50.3798
50.3798
50.3799
50.38
50.3801
50.3802
50.3803
50.3804
50.3805
50.3806
50.3806
50.3807
50.3808
50.3808
50.3809
50.3809
50.381
50.381
50.381
50.3811
50.3811
50.3811
50.3811
50.3812
50.3812
50.3812
50.3813
50.3814
50.3814
50.3815
50.3817
50.3818
50.3819
50.3821
50.3823
50.3825
50.3828
50.383
50.3833
50.3836
50.3839
50.3843
50.3846
50.385
50.3854
50.3857
50.3861
50.3866
50.387
50.3874
50.3878
50.3883
50.3887
50.3891
50.3895
50.39
50.3904
50.3908
50.3912
50.3916
50.392
50.3924
50.3927
50.3931
50.3935
50.3938
50.3941
50.3944
50.3947
50.395
50.3953
50.3955
50.3958
50.396
50.3962
50.3964
50.3966
50.3968
50.3971
50.3973
50.3975
50.3977
50.3979
50.3982
50.3984
50.3987
50.3989
50.3992
50.3994
50.3997
50.4
50.4003
50.4006
50.4009
50.4012
50.4015
50.4019
50.4022
50.4025
50.4028
50.4032
50.4035
50.4039
50.4043
50.4047
50.4051
50.4055
50.406
50.4064
50.4069
50.4074
50.4078
50.4083
50.4089
50.4094
50.4099
50.4105
50.411
50.4116
50.4121
50.4127
50.4132
50.4138
50.4144
50.415
50.4155
50.4161
50.4167
50.4173
50.4179
50.4185
50.4191
50.4198
50.4203
50.4209
50.4215
50.422
50.4226
50.423
50.4235
50.4239
50.4235
50.4273
50.423
50.3832
50.3744
50.3769
50.3769
50.3737
50.3721
50.3727
50.3735
50.3739
50.3734
50.373
50.373
50.3732
50.3735
50.3741
50.3741
50.3738
50.3736
50.3737
50.374
50.3743
50.374
50.3689
50.3413
50.2949
50.2749
50.2756
50.2992
50.3578
50.3936
50.4056
50.406
50.4003
50.3913
50.3861
50.3833
50.3818
50.381
50.3806
50.3803
50.3801
50.3799
50.3798
50.3797
50.3796
50.3795
50.3795
50.3795
50.3794
50.3794
50.3794
50.3795
50.3795
50.3795
50.3796
50.3796
50.3797
50.3798
50.3799
50.38
50.3801
50.3802
50.3803
50.3804
50.3804
50.3805
50.3806
50.3807
50.3807
50.3808
50.3809
50.3809
50.3809
50.381
50.381
50.381
50.3811
50.3811
50.3811
50.3811
50.3812
50.3812
50.3813
50.3813
50.3814
50.3815
50.3816
50.3817
50.3819
50.3821
50.3823
50.3825
50.3827
50.383