/*--------------------------------*- C++ -*----------------------------------*\
| =========                 |                                                 |
| \\      /  F ield         | OpenFOAM: The Open Source CFD Toolbox           |
|  \\    /   O peration     | Version:  3.0.x                                 |
|   \\  /    A nd           | Web:      www.OpenFOAM.org                      |
|    \\/     M anipulation  |                                                 |
\*---------------------------------------------------------------------------*/
FoamFile
{
    version     2.0;
    format      ascii;
    class       volScalarField;
    location    "0.13";
    object      T;
}
// * * * * * * * * * * * * * * * * * * * * * * * * * * * * * * * * * * * * * //

dimensions      [0 0 0 1 0 0 0];

internalField   nonuniform List<scalar> 
6900
(
773.388
773.388
773.388
773.388
773.388
773.388
773.388
773.385
773.383
773.38
773.379
773.378
773.379
773.379
773.381
773.383
773.384
773.386
773.388
773.39
773.392
773.394
773.397
773.399
773.402
773.404
773.407
773.409
773.412
773.415
773.418
773.42
773.423
773.426
773.429
773.431
773.434
773.436
773.439
773.441
773.444
773.446
773.448
773.45
773.452
773.454
773.456
773.457
773.459
773.46
773.462
773.463
773.465
773.466
773.467
773.468
773.47
773.471
773.472
773.473
773.475
773.476
773.478
773.479
773.481
773.482
773.484
773.485
773.487
773.489
773.491
773.492
773.494
773.496
773.498
773.499
773.501
773.503
773.504
773.506
773.508
773.509
773.51
773.511
773.512
773.513
773.514
773.515
773.516
773.516
773.517
773.517
773.517
773.518
773.518
773.518
773.518
773.518
773.518
773.519
773.519
773.519
773.519
773.52
773.521
773.521
773.522
773.523
773.524
773.525
773.527
773.528
773.53
773.531
773.533
773.535
773.537
773.538
773.54
773.542
773.544
773.545
773.546
773.548
773.549
773.55
773.55
773.551
773.551
773.551
773.551
773.551
773.55
773.55
773.549
773.548
773.547
773.546
773.545
773.543
773.542
773.541
773.539
773.538
773.537
773.536
773.535
773.534
773.533
773.532
773.531
773.531
773.531
773.53
773.53
773.53
773.53
773.53
773.53
773.531
773.531
773.531
773.531
773.531
773.531
773.531
773.531
773.531
773.531
773.53
773.53
773.53
773.529
773.529
773.528
773.527
773.527
773.526
773.525
773.524
773.523
773.523
773.522
773.521
773.521
773.52
773.52
773.52
773.52
773.52
773.52
773.52
773.521
773.521
773.522
773.523
773.523
773.525
773.525
773.59
773.387
773.387
773.387
773.387
773.387
773.388
773.387
773.385
773.382
773.379
773.378
773.377
773.378
773.379
773.38
773.382
773.384
773.385
773.387
773.39
773.392
773.394
773.396
773.399
773.401
773.404
773.406
773.409
773.412
773.414
773.417
773.42
773.423
773.425
773.428
773.431
773.433
773.436
773.438
773.441
773.443
773.445
773.448
773.45
773.451
773.453
773.455
773.457
773.458
773.46
773.461
773.463
773.464
773.465
773.467
773.468
773.469
773.47
773.472
773.473
773.474
773.476
773.477
773.478
773.48
773.482
773.483
773.485
773.487
773.488
773.49
773.492
773.494
773.495
773.497
773.499
773.501
773.502
773.504
773.505
773.507
773.508
773.51
773.511
773.512
773.513
773.514
773.515
773.515
773.516
773.516
773.517
773.517
773.517
773.517
773.517
773.518
773.518
773.518
773.518
773.518
773.518
773.519
773.519
773.52
773.521
773.522
773.522
773.524
773.525
773.526
773.528
773.529
773.531
773.533
773.534
773.536
773.538
773.54
773.541
773.543
773.544
773.546
773.547
773.548
773.549
773.55
773.55
773.551
773.551
773.55
773.55
773.55
773.549
773.548
773.547
773.546
773.545
773.544
773.543
773.541
773.54
773.539
773.537
773.536
773.535
773.534
773.533
773.532
773.531
773.531
773.53
773.53
773.53
773.53
773.53
773.53
773.53
773.53
773.53
773.53
773.53
773.53
773.531
773.531
773.531
773.53
773.53
773.53
773.53
773.529
773.529
773.528
773.528
773.527
773.527
773.526
773.525
773.525
773.524
773.523
773.522
773.521
773.521
773.52
773.52
773.519
773.519
773.519
773.519
773.519
773.52
773.52
773.521
773.521
773.522
773.522
773.524
773.525
773.584
773.387
773.387
773.387
773.387
773.387
773.388
773.387
773.385
773.382
773.379
773.378
773.377
773.378
773.379
773.38
773.382
773.384
773.385
773.387
773.39
773.392
773.394
773.396
773.399
773.401
773.404
773.406
773.409
773.412
773.414
773.417
773.42
773.423
773.425
773.428
773.431
773.433
773.436
773.438
773.441
773.443
773.445
773.448
773.45
773.451
773.453
773.455
773.457
773.458
773.46
773.461
773.463
773.464
773.465
773.467
773.468
773.469
773.47
773.472
773.473
773.474
773.476
773.477
773.478
773.48
773.482
773.483
773.485
773.487
773.488
773.49
773.492
773.494
773.495
773.497
773.499
773.501
773.502
773.504
773.505
773.507
773.508
773.51
773.511
773.512
773.513
773.514
773.515
773.515
773.516
773.516
773.517
773.517
773.517
773.517
773.517
773.518
773.518
773.518
773.518
773.518
773.518
773.519
773.519
773.52
773.521
773.522
773.522
773.524
773.525
773.526
773.528
773.529
773.531
773.533
773.534
773.536
773.538
773.54
773.541
773.543
773.544
773.546
773.547
773.548
773.549
773.55
773.55
773.551
773.551
773.55
773.55
773.55
773.549
773.548
773.547
773.546
773.545
773.544
773.543
773.541
773.54
773.539
773.537
773.536
773.535
773.534
773.533
773.532
773.531
773.531
773.53
773.53
773.53
773.53
773.53
773.53
773.53
773.53
773.53
773.53
773.53
773.53
773.531
773.531
773.531
773.53
773.53
773.53
773.53
773.529
773.529
773.528
773.528
773.527
773.527
773.526
773.525
773.525
773.524
773.523
773.522
773.521
773.521
773.52
773.52
773.519
773.519
773.519
773.519
773.519
773.52
773.52
773.521
773.521
773.522
773.522
773.523
773.524
773.527
773.387
773.387
773.387
773.387
773.387
773.388
773.387
773.385
773.382
773.379
773.378
773.377
773.378
773.379
773.38
773.382
773.384
773.385
773.387
773.39
773.392
773.394
773.396
773.399
773.401
773.404
773.406
773.409
773.412
773.414
773.417
773.42
773.423
773.425
773.428
773.431
773.433
773.436
773.438
773.441
773.443
773.445
773.448
773.45
773.451
773.453
773.455
773.457
773.458
773.46
773.461
773.463
773.464
773.465
773.467
773.468
773.469
773.47
773.472
773.473
773.474
773.476
773.477
773.478
773.48
773.482
773.483
773.485
773.487
773.488
773.49
773.492
773.494
773.495
773.497
773.499
773.501
773.502
773.504
773.505
773.507
773.508
773.51
773.511
773.512
773.513
773.514
773.515
773.515
773.516
773.516
773.517
773.517
773.517
773.517
773.517
773.518
773.518
773.518
773.518
773.518
773.518
773.519
773.519
773.52
773.521
773.522
773.522
773.524
773.525
773.526
773.528
773.529
773.531
773.533
773.534
773.536
773.538
773.54
773.541
773.543
773.544
773.546
773.547
773.548
773.549
773.55
773.55
773.551
773.551
773.55
773.55
773.55
773.549
773.548
773.547
773.546
773.545
773.544
773.543
773.541
773.54
773.539
773.537
773.536
773.535
773.534
773.533
773.532
773.531
773.531
773.53
773.53
773.53
773.53
773.53
773.53
773.53
773.53
773.53
773.53
773.53
773.53
773.531
773.531
773.531
773.53
773.53
773.53
773.53
773.529
773.529
773.528
773.528
773.527
773.527
773.526
773.525
773.525
773.524
773.523
773.522
773.521
773.521
773.52
773.52
773.519
773.519
773.519
773.519
773.519
773.52
773.52
773.521
773.521
773.522
773.523
773.521
773.526
773.413
773.388
773.388
773.388
773.388
773.388
773.388
773.388
773.385
773.383
773.38
773.379
773.378
773.379
773.379
773.381
773.383
773.384
773.386
773.388
773.39
773.392
773.394
773.397
773.399
773.402
773.404
773.407
773.409
773.412
773.415
773.418
773.42
773.423
773.426
773.429
773.431
773.434
773.436
773.439
773.441
773.444
773.446
773.448
773.45
773.452
773.454
773.456
773.457
773.459
773.46
773.462
773.463
773.465
773.466
773.467
773.468
773.47
773.471
773.472
773.473
773.475
773.476
773.478
773.479
773.481
773.482
773.484
773.485
773.487
773.489
773.491
773.492
773.494
773.496
773.498
773.499
773.501
773.503
773.504
773.506
773.508
773.509
773.51
773.511
773.512
773.513
773.514
773.515
773.516
773.516
773.517
773.517
773.517
773.518
773.518
773.518
773.518
773.518
773.518
773.519
773.519
773.519
773.519
773.52
773.521
773.521
773.522
773.523
773.524
773.525
773.527
773.528
773.53
773.531
773.533
773.535
773.537
773.538
773.54
773.542
773.544
773.545
773.546
773.548
773.549
773.55
773.55
773.551
773.551
773.551
773.551
773.551
773.55
773.55
773.549
773.548
773.547
773.546
773.545
773.543
773.542
773.541
773.539
773.538
773.537
773.536
773.535
773.534
773.533
773.532
773.531
773.531
773.531
773.53
773.53
773.53
773.53
773.53
773.53
773.531
773.531
773.531
773.531
773.531
773.531
773.531
773.531
773.531
773.531
773.53
773.53
773.53
773.529
773.529
773.528
773.527
773.527
773.526
773.525
773.524
773.524
773.523
773.522
773.521
773.521
773.52
773.52
773.52
773.52
773.52
773.52
773.52
773.521
773.521
773.522
773.522
773.523
773.521
773.534
773.333
773.576
773.589
773.587
773.587
773.584
773.581
773.576
773.574
773.576
773.584
773.574
773.55
773.537
773.525
773.489
773.459
773.46
773.471
773.493
773.418
773.564
773.567
773.566
773.561
773.558
773.553
773.544
773.54
773.54
773.547
773.537
773.505
773.499
773.492
773.46
773.407
773.402
773.413
773.433
773.404
773.527
773.527
773.524
773.52
773.515
773.509
773.502
773.495
773.486
773.479
773.473
773.47
773.468
773.46
773.449
773.44
773.434
773.428
773.42
773.421
773.463
773.464
773.469
773.467
773.46
773.447
773.434
773.412
773.399
773.378
773.359
773.349
773.332
773.311
773.3
773.286
773.276
773.263
773.256
773.248
773.413
773.395
773.391
773.392
773.391
773.386
773.376
773.362
773.348
773.335
773.319
773.308
773.292
773.284
773.271
773.267
773.259
773.259
773.265
773.289
773.276
773.238
773.232
773.204
773.203
773.219
773.223
773.215
773.208
773.209
773.215
773.217
773.217
773.216
773.216
773.216
773.217
773.218
773.221
773.223
773.224
773.226
773.234
773.289
773.605
774.393
774.865
774.932
774.704
773.836
773.11
772.827
772.787
772.847
772.997
773.097
773.149
773.176
773.188
773.195
773.198
773.199
773.2
773.2
773.2
773.201
773.201
773.201
773.201
773.201
773.202
773.202
773.203
773.203
773.204
773.205
773.205
773.206
773.207
773.208
773.21
773.211
773.212
773.213
773.215
773.216
773.218
773.219
773.221
773.223
773.225
773.226
773.228
773.23
773.232
773.234
773.236
773.238
773.24
773.242
773.244
773.246
773.248
773.25
773.252
773.254
773.256
773.258
773.26
773.262
773.264
773.266
773.269
773.271
773.273
773.275
773.277
773.278
773.28
773.282
773.284
773.286
773.287
773.289
773.29
773.292
773.293
773.294
773.295
773.296
773.298
773.299
773.3
773.3
773.301
773.302
773.303
773.303
773.304
773.305
773.306
773.306
773.307
773.308
773.309
773.31
773.31
773.311
773.312
773.313
773.314
773.315
773.316
773.317
773.319
773.32
773.321
773.323
773.324
773.326
773.327
773.329
773.33
773.332
773.334
773.336
773.338
773.339
773.341
773.343
773.345
773.346
773.348
773.35
773.351
773.352
773.354
773.355
773.356
773.357
773.358
773.359
773.359
773.36
773.36
773.361
773.361
773.361
773.361
773.361
773.361
773.361
773.361
773.36
773.36
773.36
773.359
773.359
773.358
773.358
773.357
773.357
773.356
773.356
773.355
773.355
773.355
773.355
773.355
773.355
773.355
773.355
773.356
773.356
773.357
773.357
773.358
773.355
773.362
773.199
773.251
773.247
773.241
773.216
773.219
773.239
773.241
773.232
773.228
773.232
773.237
773.238
773.236
773.236
773.236
773.238
773.239
773.241
773.243
773.243
773.241
773.241
773.244
773.271
773.415
773.723
773.895
773.923
773.853
773.576
773.326
773.209
773.171
773.166
773.171
773.182
773.189
773.193
773.196
773.198
773.199
773.199
773.2
773.2
773.2
773.2
773.2
773.2
773.201
773.201
773.201
773.202
773.202
773.203
773.203
773.204
773.205
773.206
773.207
773.208
773.209
773.21
773.211
773.213
773.214
773.216
773.217
773.219
773.22
773.222
773.224
773.226
773.228
773.229
773.231
773.233
773.235
773.237
773.239
773.241
773.243
773.245
773.247
773.249
773.251
773.253
773.255
773.257
773.26
773.262
773.264
773.266
773.268
773.27
773.272
773.274
773.276
773.278
773.28
773.282
773.283
773.285
773.287
773.288
773.29
773.291
773.292
773.294
773.295
773.296
773.297
773.298
773.299
773.3
773.3
773.301
773.302
773.303
773.304
773.304
773.305
773.306
773.307
773.307
773.308
773.309
773.31
773.311
773.311
773.312
773.313
773.315
773.316
773.317
773.318
773.319
773.321
773.322
773.323
773.325
773.327
773.328
773.33
773.332
773.333
773.335
773.337
773.339
773.341
773.342
773.344
773.346
773.347
773.349
773.35
773.352
773.353
773.354
773.355
773.356
773.357
773.358
773.359
773.359
773.36
773.36
773.36
773.36
773.36
773.36
773.36
773.36
773.36
773.36
773.359
773.359
773.359
773.358
773.358
773.357
773.357
773.356
773.356
773.355
773.355
773.354
773.354
773.354
773.354
773.354
773.354
773.355
773.355
773.355
773.356
773.356
773.357
773.355
773.356
773.265
773.434
773.438
773.453
773.464
773.473
773.476
773.478
773.481
773.484
773.486
773.488
773.491
773.494
773.496
773.497
773.496
773.487
773.45
773.37
773.304
773.26
773.237
773.228
773.226
773.228
773.23
773.23
773.227
773.218
773.208
773.203
773.202
773.203
773.204
773.205
773.205
773.204
773.204
773.203
773.202
773.202
773.201
773.201
773.201
773.2
773.2
773.2
773.2
773.201
773.201
773.201
773.202
773.202
773.203
773.203
773.204
773.205
773.206
773.207
773.208
773.209
773.21
773.211
773.213
773.214
773.216
773.217
773.219
773.22
773.222
773.224
773.226
773.228
773.229
773.231
773.233
773.235
773.237
773.239
773.241
773.243
773.245
773.247
773.249
773.251
773.253
773.255
773.257
773.26
773.262
773.264
773.266
773.268
773.27
773.272
773.274
773.276
773.278
773.28
773.282
773.283
773.285
773.287
773.288
773.29
773.291
773.292
773.294
773.295
773.296
773.297
773.298
773.299
773.3
773.3
773.301
773.302
773.303
773.304
773.304
773.305
773.306
773.307
773.307
773.308
773.309
773.31
773.311
773.311
773.312
773.313
773.315
773.316
773.317
773.318
773.319
773.321
773.322
773.323
773.325
773.327
773.328
773.33
773.332
773.333
773.335
773.337
773.339
773.341
773.342
773.344
773.346
773.347
773.349
773.35
773.352
773.353
773.354
773.355
773.356
773.357
773.358
773.359
773.359
773.36
773.36
773.36
773.36
773.36
773.36
773.36
773.36
773.36
773.36
773.359
773.359
773.359
773.358
773.357
773.357
773.356
773.356
773.356
773.355
773.355
773.354
773.354
773.354
773.354
773.354
773.354
773.355
773.355
773.355
773.356
773.357
773.357
773.358
773.359
773.362
773.226
773.221
773.214
773.213
773.215
773.216
773.215
773.214
773.215
773.217
773.219
773.219
773.219
773.22
773.221
773.223
773.228
773.232
773.236
773.242
773.256
773.276
773.287
773.293
773.307
773.351
773.404
773.422
773.418
773.382
773.296
773.235
773.204
773.191
773.188
773.189
773.192
773.196
773.198
773.199
773.2
773.2
773.2
773.2
773.2
773.2
773.2
773.2
773.201
773.201
773.201
773.202
773.202
773.203
773.203
773.204
773.205
773.206
773.207
773.208
773.209
773.21
773.211
773.213
773.214
773.216
773.217
773.219
773.22
773.222
773.224
773.226
773.228
773.229
773.231
773.233
773.235
773.237
773.239
773.241
773.243
773.245
773.247
773.249
773.251
773.253
773.255
773.257
773.26
773.262
773.264
773.266
773.268
773.27
773.272
773.274
773.276
773.278
773.28
773.282
773.283
773.285
773.287
773.288
773.29
773.291
773.292
773.294
773.295
773.296
773.297
773.298
773.299
773.3
773.3
773.301
773.302
773.303
773.304
773.304
773.305
773.306
773.307
773.307
773.308
773.309
773.31
773.311
773.311
773.312
773.313
773.315
773.316
773.317
773.318
773.319
773.321
773.322
773.323
773.325
773.327
773.328
773.33
773.332
773.333
773.335
773.337
773.339
773.341
773.342
773.344
773.346
773.347
773.349
773.35
773.352
773.353
773.354
773.355
773.356
773.357
773.358
773.359
773.359
773.36
773.36
773.36
773.36
773.36
773.36
773.36
773.36
773.36
773.36
773.359
773.359
773.359
773.358
773.357
773.357
773.356
773.356
773.356
773.355
773.355
773.354
773.354
773.354
773.354
773.354
773.354
773.355
773.355
773.355
773.356
773.357
773.357
773.359
773.362
773.41
773.335
773.335
773.331
773.327
773.329
773.33
773.329
773.329
773.331
773.334
773.335
773.337
773.337
773.339
773.342
773.345
773.347
773.353
773.367
773.377
773.378
773.366
773.336
773.331
773.372
773.617
774.01
774.205
774.242
774.195
773.967
773.675
773.479
773.356
773.284
773.244
773.224
773.213
773.207
773.204
773.203
773.202
773.201
773.201
773.201
773.201
773.201
773.201
773.201
773.201
773.202
773.202
773.203
773.203
773.204
773.205
773.205
773.206
773.207
773.208
773.21
773.211
773.212
773.213
773.215
773.216
773.218
773.219
773.221
773.223
773.225
773.226
773.228
773.23
773.232
773.234
773.236
773.238
773.24
773.242
773.244
773.246
773.248
773.25
773.252
773.254
773.256
773.258
773.26
773.262
773.264
773.266
773.269
773.271
773.273
773.275
773.277
773.278
773.28
773.282
773.284
773.286
773.287
773.289
773.29
773.292
773.293
773.294
773.295
773.296
773.298
773.299
773.3
773.3
773.301
773.302
773.303
773.303
773.304
773.305
773.306
773.306
773.307
773.308
773.309
773.31
773.31
773.311
773.312
773.313
773.314
773.315
773.316
773.317
773.319
773.32
773.321
773.323
773.324
773.326
773.327
773.329
773.33
773.332
773.334
773.336
773.338
773.339
773.341
773.343
773.345
773.346
773.348
773.35
773.351
773.352
773.354
773.355
773.356
773.357
773.358
773.359
773.359
773.36
773.36
773.361
773.361
773.361
773.361
773.361
773.361
773.361
773.361
773.36
773.36
773.36
773.359
773.359
773.358
773.358
773.357
773.357
773.356
773.356
773.355
773.355
773.355
773.355
773.355
773.355
773.355
773.355
773.355
773.356
773.356
773.357
773.358
773.36
773.363
773.415
773.257
773.238
773.233
773.235
773.233
773.228
773.215
773.206
773.19
773.181
773.163
773.154
773.139
773.132
773.119
773.115
773.106
773.107
773.111
773.133
773.303
773.303
773.308
773.306
773.299
773.287
773.268
773.256
773.236
773.221
773.206
773.189
773.17
773.158
773.144
773.129
773.122
773.112
773.106
773.095
773.363
773.362
773.36
773.357
773.351
773.346
773.34
773.331
773.325
773.318
773.314
773.311
773.304
773.294
773.286
773.279
773.274
773.268
773.264
773.274
773.399
773.402
773.4
773.396
773.393
773.387
773.383
773.382
773.386
773.378
773.355
773.349
773.339
773.304
773.264
773.262
773.273
773.285
773.294
773.184
773.41
773.422
773.421
773.421
773.418
773.416
773.414
773.415
773.42
773.413
773.395
773.385
773.371
773.337
773.316
773.318
773.327
773.343
773.346
773.21
773.18
773.181
773.175
773.175
773.177
773.177
773.176
773.177
773.18
773.182
773.184
773.184
773.185
773.186
773.186
773.189
773.192
773.195
773.201
773.212
773.216
773.212
773.188
773.168
773.177
773.284
773.654
773.966
774.077
774.075
773.963
773.665
773.42
773.261
773.164
773.108
773.078
773.063
773.054
773.05
773.048
773.048
773.047
773.047
773.047
773.047
773.047
773.047
773.047
773.047
773.047
773.047
773.048
773.048
773.048
773.048
773.048
773.048
773.048
773.049
773.049
773.049
773.049
773.049
773.049
773.049
773.049
773.049
773.049
773.049
773.048
773.048
773.048
773.048
773.048
773.047
773.047
773.046
773.046
773.045
773.045
773.045
773.044
773.044
773.043
773.043
773.042
773.042
773.042
773.042
773.042
773.042
773.042
773.042
773.043
773.043
773.043
773.04
773.045
772.885
773.075
773.067
773.062
773.063
773.066
773.066
773.063
773.063
773.066
773.068
773.069
773.069
773.069
773.07
773.07
773.07
773.073
773.078
773.082
773.085
773.091
773.106
773.122
773.129
773.137
773.16
773.215
773.248
773.253
773.24
773.181
773.106
773.061
773.04
773.033
773.033
773.034
773.038
773.041
773.043
773.044
773.045
773.046
773.046
773.046
773.046
773.046
773.046
773.046
773.047
773.047
773.047
773.047
773.047
773.047
773.047
773.048
773.048
773.048
773.048
773.048
773.048
773.048
773.048
773.048
773.048
773.048
773.048
773.048
773.048
773.048
773.048
773.047
773.047
773.047
773.047
773.046
773.046
773.045
773.045
773.044
773.044
773.043
773.043
773.043
773.042
773.042
773.042
773.041
773.041
773.041
773.041
773.042
773.042
773.042
773.042
773.042
773.04
773.04
772.95
773.27
773.274
773.294
773.308
773.316
773.317
773.318
773.322
773.325
773.326
773.326
773.328
773.333
773.34
773.343
773.344
773.341
773.325
773.263
773.186
773.132
773.1
773.084
773.078
773.078
773.079
773.079
773.077
773.069
773.058
773.049
773.046
773.046
773.047
773.048
773.049
773.049
773.049
773.048
773.048
773.047
773.047
773.047
773.046
773.046
773.046
773.046
773.046
773.047
773.047
773.047
773.047
773.047
773.047
773.047
773.047
773.048
773.048
773.048
773.048
773.048
773.048
773.048
773.048
773.048
773.048
773.048
773.048
773.048
773.048
773.048
773.048
773.047
773.047
773.047
773.047
773.046
773.046
773.045
773.045
773.044
773.044
773.043
773.043
773.042
773.042
773.042
773.042
773.041
773.041
773.041
773.041
773.041
773.042
773.042
773.042
773.043
773.043
773.044
773.046
773.092
773.085
773.083
773.061
773.075
773.094
773.088
773.077
773.076
773.082
773.087
773.086
773.085
773.085
773.085
773.085
773.089
773.095
773.097
773.097
773.096
773.092
773.092
773.1
773.16
773.397
773.66
773.758
773.748
773.597
773.285
773.099
773.021
773.002
773.004
773.016
773.027
773.034
773.039
773.041
773.043
773.044
773.045
773.045
773.046
773.046
773.046
773.046
773.046
773.047
773.047
773.047
773.047
773.047
773.047
773.047
773.048
773.048
773.048
773.048
773.048
773.048
773.048
773.048
773.048
773.048
773.048
773.048
773.048
773.048
773.048
773.048
773.047
773.047
773.047
773.047
773.046
773.046
773.045
773.045
773.044
773.044
773.043
773.043
773.042
773.042
773.042
773.042
773.041
773.041
773.041
773.041
773.042
773.042
773.042
773.042
773.043
773.044
773.047
773.094
773.109
773.077
773.075
773.051
773.057
773.078
773.073
773.06
773.056
773.059
773.067
773.067
773.066
773.066
773.066
773.065
773.064
773.065
773.069
773.074
773.075
773.075
773.077
773.093
773.205
773.718
774.423
774.699
774.674
774.246
773.331
772.814
772.651
772.652
772.751
772.888
772.965
773.006
773.026
773.036
773.041
773.043
773.045
773.046
773.046
773.046
773.047
773.047
773.047
773.047
773.047
773.047
773.048
773.048
773.048
773.048
773.048
773.048
773.048
773.049
773.049
773.049
773.049
773.049
773.049
773.049
773.049
773.049
773.049
773.049
773.048
773.048
773.048
773.048
773.048
773.047
773.047
773.046
773.046
773.045
773.045
773.045
773.044
773.044
773.043
773.043
773.042
773.042
773.042
773.042
773.042
773.042
773.042
773.042
773.043
773.043
773.043
773.045
773.047
773.098
772.941
772.922
772.916
772.918
772.916
772.911
772.898
772.889
772.873
772.864
772.846
772.837
772.821
772.814
772.801
772.797
772.788
772.789
772.793
772.814
772.987
772.986
772.991
772.989
772.983
772.97
772.952
772.939
772.919
772.904
772.889
772.872
772.852
772.84
772.826
772.811
772.804
772.794
772.788
772.777
773.047
773.047
773.044
773.041
773.035
773.03
773.024
773.015
773.008
773.001
772.997
772.993
772.986
772.976
772.968
772.962
772.956
772.95
772.946
772.955
773.083
773.086
773.084
773.08
773.077
773.071
773.066
773.065
773.069
773.06
773.037
773.031
773.022
772.987
772.946
772.944
772.954
772.966
772.975
772.865
773.094
773.107
773.105
773.105
773.103
773.1
773.097
773.098
773.102
773.096
773.078
773.068
773.054
773.02
772.998
773
773.008
773.024
773.026
772.891
772.862
772.863
772.858
772.857
772.859
772.858
772.856
772.856
772.858
772.86
772.861
772.862
772.863
772.865
772.869
772.872
772.876
772.883
772.895
772.901
772.9
772.882
772.86
772.864
772.941
773.269
773.609
773.743
773.751
773.662
773.379
773.123
772.956
772.854
772.796
772.764
772.748
772.739
772.735
772.733
772.732
772.731
772.731
772.731
772.73
772.73
772.73
772.73
772.73
772.73
772.73
772.73
772.73
772.73
772.73
772.73
772.73
772.73
772.731
772.731
772.731
772.731
772.732
772.732
772.732
772.733
772.733
772.733
772.733
772.734
772.734
772.734
772.734
772.734
772.734
772.734
772.734
772.734
772.735
772.735
772.735
772.735
772.735
772.735
772.735
772.736
772.736
772.736
772.737
772.737
772.738
772.738
772.739
772.74
772.74
772.741
772.742
772.743
772.744
772.745
772.746
772.748
772.749
772.75
772.751
772.753
772.754
772.755
772.756
772.758
772.759
772.761
772.762
772.763
772.764
772.766
772.767
772.768
772.769
772.77
772.772
772.773
772.774
772.774
772.775
772.776
772.777
772.778
772.779
772.779
772.78
772.781
772.782
772.782
772.783
772.784
772.784
772.785
772.786
772.786
772.787
772.788
772.788
772.789
772.79
772.791
772.792
772.793
772.794
772.794
772.795
772.796
772.797
772.798
772.799
772.8
772.801
772.802
772.804
772.805
772.806
772.807
772.808
772.81
772.811
772.812
772.814
772.815
772.817
772.818
772.82
772.822
772.823
772.825
772.826
772.828
772.83
772.832
772.833
772.835
772.837
772.839
772.84
772.842
772.844
772.846
772.848
772.85
772.852
772.853
772.855
772.857
772.859
772.86
772.862
772.864
772.865
772.867
772.87
772.925
772.755
772.748
772.744
772.745
772.747
772.746
772.743
772.743
772.745
772.747
772.747
772.747
772.748
772.749
772.75
772.753
772.758
772.763
772.767
772.772
772.787
772.804
772.813
772.82
772.838
772.887
772.922
772.928
772.919
772.866
772.791
772.746
772.725
772.718
772.717
772.719
772.723
772.726
772.728
772.729
772.73
772.73
772.73
772.73
772.729
772.729
772.729
772.729
772.729
772.729
772.729
772.729
772.729
772.729
772.729
772.729
772.73
772.73
772.73
772.73
772.731
772.731
772.731
772.731
772.732
772.732
772.732
772.733
772.733
772.733
772.733
772.733
772.733
772.734
772.734
772.734
772.734
772.734
772.734
772.734
772.734
772.734
772.734
772.735
772.735
772.735
772.735
772.736
772.736
772.736
772.737
772.738
772.738
772.739
772.74
772.741
772.742
772.743
772.744
772.745
772.746
772.747
772.748
772.749
772.751
772.752
772.753
772.755
772.756
772.757
772.759
772.76
772.761
772.763
772.764
772.765
772.766
772.767
772.769
772.77
772.771
772.772
772.773
772.774
772.775
772.776
772.777
772.777
772.778
772.779
772.78
772.78
772.781
772.782
772.782
772.783
772.784
772.784
772.785
772.786
772.786
772.787
772.788
772.789
772.79
772.79
772.791
772.792
772.793
772.794
772.795
772.796
772.797
772.798
772.799
772.8
772.801
772.802
772.803
772.804
772.805
772.806
772.808
772.809
772.81
772.812
772.813
772.815
772.816
772.818
772.819
772.821
772.823
772.824
772.826
772.828
772.829
772.831
772.833
772.834
772.836
772.838
772.84
772.842
772.843
772.845
772.847
772.849
772.851
772.853
772.855
772.856
772.858
772.86
772.861
772.863
772.864
772.867
772.87
772.92
772.949
772.953
772.973
772.986
772.992
772.994
772.997
773.002
773.006
773.007
773.008
773.012
773.017
773.021
773.022
773.022
773.013
772.972
772.895
772.833
772.794
772.773
772.764
772.762
772.762
772.763
772.761
772.754
772.743
772.735
772.732
772.731
772.732
772.733
772.734
772.734
772.734
772.733
772.732
772.732
772.731
772.731
772.73
772.73
772.73
772.729
772.729
772.729
772.729
772.729
772.729
772.729
772.729
772.729
772.729
772.729
772.73
772.73
772.73
772.73
772.731
772.731
772.731
772.731
772.732
772.732
772.732
772.733
772.733
772.733
772.733
772.733
772.733
772.734
772.734
772.734
772.734
772.734
772.734
772.734
772.734
772.734
772.734
772.735
772.735
772.735
772.735
772.736
772.736
772.736
772.737
772.738
772.738
772.739
772.74
772.741
772.742
772.743
772.744
772.745
772.746
772.747
772.748
772.749
772.751
772.752
772.753
772.755
772.756
772.757
772.759
772.76
772.761
772.763
772.764
772.765
772.766
772.767
772.769
772.77
772.771
772.772
772.773
772.774
772.775
772.776
772.777
772.777
772.778
772.779
772.78
772.78
772.781
772.782
772.782
772.783
772.784
772.784
772.785
772.786
772.786
772.787
772.788
772.789
772.79
772.79
772.791
772.792
772.793
772.794
772.795
772.796
772.797
772.798
772.799
772.8
772.801
772.802
772.803
772.804
772.805
772.806
772.808
772.809
772.81
772.812
772.813
772.815
772.816
772.818
772.819
772.821
772.823
772.824
772.826
772.828
772.829
772.831
772.833
772.834
772.836
772.838
772.84
772.842
772.843
772.845
772.847
772.849
772.851
772.853
772.855
772.856
772.858
772.86
772.861
772.863
772.864
772.866
772.867
772.87
772.773
772.764
772.761
772.742
772.757
772.772
772.765
772.757
772.758
772.764
772.768
772.767
772.766
772.766
772.767
772.768
772.771
772.773
772.775
772.776
772.775
772.775
772.781
772.827
773.031
773.304
773.418
773.417
773.295
772.992
772.796
772.712
772.69
772.691
772.701
772.712
772.719
772.723
772.726
772.728
772.729
772.729
772.729
772.729
772.729
772.729
772.729
772.729
772.729
772.729
772.729
772.729
772.729
772.729
772.729
772.729
772.73
772.73
772.73
772.73
772.731
772.731
772.731
772.731
772.732
772.732
772.732
772.733
772.733
772.733
772.733
772.733
772.733
772.734
772.734
772.734
772.734
772.734
772.734
772.734
772.734
772.734
772.734
772.735
772.735
772.735
772.735
772.736
772.736
772.736
772.737
772.738
772.738
772.739
772.74
772.741
772.742
772.743
772.744
772.745
772.746
772.747
772.748
772.749
772.751
772.752
772.753
772.755
772.756
772.757
772.759
772.76
772.761
772.763
772.764
772.765
772.766
772.767
772.769
772.77
772.771
772.772
772.773
772.774
772.775
772.776
772.777
772.777
772.778
772.779
772.78
772.78
772.781
772.782
772.782
772.783
772.784
772.784
772.785
772.786
772.786
772.787
772.788
772.789
772.79
772.79
772.791
772.792
772.793
772.794
772.795
772.796
772.797
772.798
772.799
772.8
772.801
772.802
772.803
772.804
772.805
772.806
772.808
772.809
772.81
772.812
772.813
772.815
772.816
772.818
772.819
772.821
772.823
772.824
772.826
772.828
772.829
772.831
772.833
772.834
772.836
772.838
772.84
772.842
772.844
772.845
772.847
772.849
772.851
772.853
772.855
772.856
772.858
772.86
772.861
772.863
772.864
772.863
772.863
772.768
772.788
772.757
772.753
772.732
772.74
772.757
772.75
772.739
772.738
772.742
772.748
772.748
772.747
772.747
772.747
772.746
772.747
772.75
772.754
772.756
772.757
772.759
772.771
772.858
773.293
774.016
774.334
774.332
773.976
773.083
772.537
772.356
772.35
772.436
772.572
772.65
772.691
772.711
772.721
772.726
772.728
772.729
772.73
772.73
772.73
772.73
772.73
772.73
772.73
772.73
772.729
772.73
772.73
772.73
772.73
772.73
772.73
772.73
772.731
772.731
772.731
772.731
772.732
772.732
772.732
772.733
772.733
772.733
772.733
772.734
772.734
772.734
772.734
772.734
772.734
772.734
772.734
772.734
772.735
772.735
772.735
772.735
772.735
772.735
772.735
772.736
772.736
772.736
772.737
772.737
772.738
772.738
772.739
772.74
772.74
772.741
772.742
772.743
772.744
772.745
772.746
772.748
772.749
772.75
772.751
772.753
772.754