/*--------------------------------*- C++ -*----------------------------------*\
| =========                 |                                                 |
| \\      /  F ield         | OpenFOAM: The Open Source CFD Toolbox           |
|  \\    /   O peration     | Version:  3.0.x                                 |
|   \\  /    A nd           | Web:      www.OpenFOAM.org                      |
|    \\/     M anipulation  |                                                 |
\*---------------------------------------------------------------------------*/
FoamFile
{
    version     2.0;
    format      ascii;
    class       volVectorField;
    location    "0.24";
    object      U;
}
// * * * * * * * * * * * * * * * * * * * * * * * * * * * * * * * * * * * * * //

dimensions      [0 1 -1 0 0 0 0];

internalField   nonuniform List<vector> 
13800
(
(42.6937 0.000141827 0)
(42.6834 0.000123521 0)
(42.6719 0.000122334 0)
(42.661 0.000124495 0)
(42.6509 0.000126318 0)
(42.6409 0.000127837 0)
(42.6311 0.000129107 0)
(42.6216 0.000130157 0)
(42.6123 0.000131061 0)
(42.6034 0.000131738 0)
(42.5948 0.000132351 0)
(42.5866 0.00013289 0)
(42.5787 0.000133338 0)
(42.5711 0.000133722 0)
(42.564 0.000134053 0)
(42.5572 0.000134339 0)
(42.5507 0.000134587 0)
(42.5447 0.0001348 0)
(42.539 0.000134981 0)
(42.5336 0.000135132 0)
(42.5286 0.00013525 0)
(42.5239 0.000135329 0)
(42.5195 0.000135358 0)
(42.5153 0.000135318 0)
(42.5114 0.000135178 0)
(42.5078 0.000134902 0)
(42.5044 0.000134427 0)
(42.5012 0.00013369 0)
(42.4981 0.000132607 0)
(42.4953 0.000131083 0)
(42.4926 0.000129022 0)
(42.4901 0.000126329 0)
(42.4877 0.00012292 0)
(42.4855 0.000118733 0)
(42.4835 0.000113741 0)
(42.4816 0.00010795 0)
(42.4799 0.000101411 0)
(42.4784 9.42205e-05 0)
(42.477 8.65092e-05 0)
(42.4759 7.8442e-05 0)
(42.4749 7.02023e-05 0)
(42.4741 6.19809e-05 0)
(42.4735 5.39623e-05 0)
(42.473 4.63135e-05 0)
(42.4727 3.91738e-05 0)
(42.4725 3.26494e-05 0)
(42.4724 2.68089e-05 0)
(42.4724 2.16861e-05 0)
(42.4724 1.72792e-05 0)
(42.4725 1.35629e-05 0)
(42.4727 1.04866e-05 0)
(42.4729 7.98737e-06 0)
(42.473 5.99352e-06 0)
(42.4732 4.43104e-06 0)
(42.4734 3.22783e-06 0)
(42.4736 2.31707e-06 0)
(42.4738 1.63911e-06 0)
(42.474 1.14271e-06 0)
(42.4741 7.85013e-07 0)
(42.4743 5.31314e-07 0)
(42.4744 3.53983e-07 0)
(42.4746 2.31598e-07 0)
(42.4747 1.4856e-07 0)
(42.4749 9.37622e-08 0)
(42.475 5.87136e-08 0)
(42.4752 3.68988e-08 0)
(42.4753 2.35885e-08 0)
(42.4755 1.55896e-08 0)
(42.4756 1.08644e-08 0)
(42.4758 8.13392e-09 0)
(42.476 6.62134e-09 0)
(42.4761 5.85514e-09 0)
(42.4763 5.54862e-09 0)
(42.4765 5.49332e-09 0)
(42.4768 5.57064e-09 0)
(42.477 5.72608e-09 0)
(42.4772 5.93337e-09 0)
(42.4775 6.16245e-09 0)
(42.4777 6.39043e-09 0)
(42.4779 6.64324e-09 0)
(42.4782 6.84207e-09 0)
(42.4785 7.18692e-09 0)
(42.4787 7.49461e-09 0)
(42.479 7.71624e-09 0)
(42.4793 7.93283e-09 0)
(42.4796 8.15407e-09 0)
(42.4799 9.03242e-09 0)
(42.4802 1.06782e-08 0)
(42.4804 1.09655e-08 0)
(42.4807 1.06818e-08 0)
(42.481 1.00106e-08 0)
(42.4813 9.94337e-09 0)
(42.4816 1.02546e-08 0)
(42.4819 1.12881e-08 0)
(42.4822 1.18145e-08 0)
(42.4825 1.22869e-08 0)
(42.4828 1.26621e-08 0)
(42.4831 1.29566e-08 0)
(42.4834 1.32388e-08 0)
(42.4836 1.34999e-08 0)
(42.4839 1.37521e-08 0)
(42.4842 1.40151e-08 0)
(42.4845 1.42838e-08 0)
(42.4848 1.45587e-08 0)
(42.4851 1.48373e-08 0)
(42.4854 1.5113e-08 0)
(42.4858 1.54033e-08 0)
(42.4861 1.57164e-08 0)
(42.4864 1.60487e-08 0)
(42.4868 1.64374e-08 0)
(42.4871 1.6825e-08 0)
(42.4875 1.72379e-08 0)
(42.4879 1.76852e-08 0)
(42.4883 1.81656e-08 0)
(42.4887 1.86623e-08 0)
(42.4892 1.92027e-08 0)
(42.4897 1.97559e-08 0)
(42.4903 2.03673e-08 0)
(42.4908 2.1022e-08 0)
(42.4915 2.16971e-08 0)
(42.4921 2.24409e-08 0)
(42.4929 2.3174e-08 0)
(42.4937 2.3991e-08 0)
(42.4945 2.47984e-08 0)
(42.4954 2.56365e-08 0)
(42.4964 2.65231e-08 0)
(42.4975 2.73775e-08 0)
(42.4987 2.83033e-08 0)
(42.4999 2.92762e-08 0)
(42.5012 3.02489e-08 0)
(42.5027 3.1082e-08 0)
(42.5042 3.1508e-08 0)
(42.5058 3.1654e-08 0)
(42.5076 3.19368e-08 0)
(42.5094 3.2646e-08 0)
(42.5114 3.38045e-08 0)
(42.5134 3.49223e-08 0)
(42.5156 3.58087e-08 0)
(42.5178 3.64292e-08 0)
(42.5202 3.67219e-08 0)
(42.5227 3.69747e-08 0)
(42.5252 3.70298e-08 0)
(42.5279 3.70772e-08 0)
(42.5306 3.70716e-08 0)
(42.5334 3.68987e-08 0)
(42.5362 3.67773e-08 0)
(42.5391 3.63361e-08 0)
(42.5421 3.5919e-08 0)
(42.545 3.52581e-08 0)
(42.548 3.44497e-08 0)
(42.551 3.35531e-08 0)
(42.554 3.2292e-08 0)
(42.5569 3.11232e-08 0)
(42.5598 2.94537e-08 0)
(42.5627 2.78743e-08 0)
(42.5654 2.59645e-08 0)
(42.5681 2.3915e-08 0)
(42.5707 2.18292e-08 0)
(42.5731 1.9288e-08 0)
(42.5754 1.70121e-08 0)
(42.5776 1.42203e-08 0)
(42.5796 1.15625e-08 0)
(42.5814 8.8092e-09 0)
(42.583 5.64363e-09 0)
(42.5844 3.04747e-09 0)
(42.5855 -6.83151e-10 0)
(42.5864 -2.95424e-09 0)
(42.5871 -7.284e-09 0)
(42.5876 -1.17479e-08 0)
(42.5877 -1.85601e-08 0)
(42.5877 -2.17316e-08 0)
(42.5873 -2.74312e-08 0)
(42.5867 -3.0576e-08 0)
(42.5858 -3.39879e-08 0)
(42.5846 -3.72378e-08 0)
(42.5832 -4.0151e-08 0)
(42.5815 -4.28075e-08 0)
(42.5796 -4.51476e-08 0)
(42.5774 -4.72365e-08 0)
(42.575 -4.90913e-08 0)
(42.5724 -5.06589e-08 0)
(42.5696 -5.20716e-08 0)
(42.5666 -5.32677e-08 0)
(42.5634 -5.42777e-08 0)
(42.56 -5.51547e-08 0)
(42.5565 -5.57867e-08 0)
(42.5528 -5.61922e-08 0)
(42.5491 -5.58697e-08 0)
(42.5452 -5.32961e-08 0)
(42.5412 -3.97794e-08 0)
(42.5372 3.55466e-08 0)
(42.5331 3.86135e-07 0)
(42.5289 2.051e-06 0)
(42.5245 1.00528e-05 0)
(42.5189 4.85032e-05 0)
(42.5082 0.000232594 0)
(42.4731 0.00110866 0)
(42.325 0.00523899 0)
(41.8581 0.0268913 0)
(37.443 0.106018 0)
(42.6976 0.000222491 0)
(42.6912 0.000162093 0)
(42.6836 0.00014988 0)
(42.6766 0.000147878 0)
(42.6704 0.000146054 0)
(42.6643 0.000144602 0)
(42.6584 0.000143501 0)
(42.6528 0.000142612 0)
(42.6474 0.000141933 0)
(42.6424 0.000141218 0)
(42.6377 0.000140693 0)
(42.6334 0.000140282 0)
(42.6294 0.000139906 0)
(42.6257 0.000139582 0)
(42.6225 0.000139305 0)
(42.6196 0.000139064 0)
(42.617 0.000138856 0)
(42.6149 0.000138672 0)
(42.6131 0.000138508 0)
(42.6116 0.000138358 0)
(42.6105 0.000138214 0)
(42.6096 0.000138063 0)
(42.6091 0.000137889 0)
(42.6089 0.00013767 0)
(42.6089 0.000137369 0)
(42.6091 0.000136952 0)
(42.6096 0.000136345 0)
(42.6102 0.000135485 0)
(42.611 0.000134282 0)
(42.6119 0.000132641 0)
(42.613 0.000130461 0)
(42.6141 0.000127644 0)
(42.6153 0.000124106 0)
(42.6166 0.000119785 0)
(42.6178 0.000114652 0)
(42.6191 0.000108719 0)
(42.6204 0.000102038 0)
(42.6217 9.47073e-05 0)
(42.623 8.68636e-05 0)
(42.6242 7.86751e-05 0)
(42.6253 7.03281e-05 0)
(42.6264 6.20158e-05 0)
(42.6274 5.39238e-05 0)
(42.6284 4.62195e-05 0)
(42.6293 3.90415e-05 0)
(42.6301 3.2494e-05 0)
(42.6309 2.66435e-05 0)
(42.6315 2.15215e-05 0)
(42.6321 1.71221e-05 0)
(42.6327 1.34197e-05 0)
(42.6332 1.03601e-05 0)
(42.6336 7.87872e-06 0)
(42.634 5.90266e-06 0)
(42.6343 4.35684e-06 0)
(42.6346 3.16859e-06 0)
(42.6349 2.27079e-06 0)
(42.6351 1.60379e-06 0)
(42.6353 1.1166e-06 0)
(42.6355 7.66613e-07 0)
(42.6357 5.19518e-07 0)
(42.6358 3.48372e-07 0)
(42.636 2.32818e-07 0)
(42.6361 1.56368e-07 0)
(42.6363 1.05877e-07 0)
(42.6364 7.23955e-08 0)
(42.6366 5.03603e-08 0)
(42.6367 3.61398e-08 0)
(42.6369 2.71695e-08 0)
(42.637 2.16597e-08 0)
(42.6372 1.83606e-08 0)
(42.6374 1.64507e-08 0)
(42.6375 1.54126e-08 0)
(42.6377 1.48971e-08 0)
(42.6379 1.46927e-08 0)
(42.6381 1.46085e-08 0)
(42.6384 1.46268e-08 0)
(42.6386 1.46911e-08 0)
(42.6388 1.47808e-08 0)
(42.6391 1.48937e-08 0)
(42.6393 1.4994e-08 0)
(42.6396 1.49894e-08 0)
(42.6398 1.52325e-08 0)
(42.6401 1.53765e-08 0)
(42.6404 1.535e-08 0)
(42.6406 1.52668e-08 0)
(42.6409 1.51498e-08 0)
(42.6412 1.61413e-08 0)
(42.6415 1.81336e-08 0)
(42.6418 1.75434e-08 0)
(42.6421 1.64936e-08 0)
(42.6423 1.51255e-08 0)
(42.6426 1.48192e-08 0)
(42.6429 1.49624e-08 0)
(42.6432 1.61502e-08 0)
(42.6435 1.64334e-08 0)
(42.6438 1.67266e-08 0)
(42.6441 1.69098e-08 0)
(42.6444 1.70128e-08 0)
(42.6447 1.70965e-08 0)
(42.645 1.71535e-08 0)
(42.6452 1.72162e-08 0)
(42.6455 1.72992e-08 0)
(42.6458 1.74066e-08 0)
(42.6461 1.75248e-08 0)
(42.6464 1.76635e-08 0)
(42.6467 1.78126e-08 0)
(42.647 1.79949e-08 0)
(42.6474 1.82249e-08 0)
(42.6477 1.8504e-08 0)
(42.648 1.88324e-08 0)
(42.6484 1.92294e-08 0)
(42.6488 1.96801e-08 0)
(42.6492 2.02045e-08 0)
(42.6496 2.07851e-08 0)
(42.65 2.14153e-08 0)
(42.6505 2.21474e-08 0)
(42.651 2.2924e-08 0)
(42.6515 2.37985e-08 0)
(42.6521 2.47409e-08 0)
(42.6527 2.57537e-08 0)
(42.6534 2.68994e-08 0)
(42.6541 2.80544e-08 0)
(42.6549 2.93561e-08 0)
(42.6557 3.0684e-08 0)
(42.6567 3.20987e-08 0)
(42.6577 3.36276e-08 0)
(42.6587 3.5152e-08 0)
(42.6599 3.68516e-08 0)
(42.6611 3.86597e-08 0)
(42.6625 4.05253e-08 0)
(42.6639 4.22677e-08 0)
(42.6654 4.34753e-08 0)
(42.6671 4.4441e-08 0)
(42.6688 4.56966e-08 0)
(42.6706 4.75725e-08 0)
(42.6726 5.00216e-08 0)
(42.6746 5.2343e-08 0)
(42.6768 5.43846e-08 0)
(42.679 5.61296e-08 0)
(42.6814 5.7459e-08 0)
(42.6839 5.87771e-08 0)
(42.6864 5.9828e-08 0)
(42.689 6.08873e-08 0)
(42.6918 6.1873e-08 0)
(42.6945 6.26286e-08 0)
(42.6974 6.34578e-08 0)
(42.7003 6.38066e-08 0)
(42.7032 6.42103e-08 0)
(42.7062 6.42291e-08 0)
(42.7092 6.40126e-08 0)
(42.7122 6.36514e-08 0)
(42.7151 6.27218e-08 0)
(42.7181 6.19005e-08 0)
(42.721 6.03374e-08 0)
(42.7238 5.88631e-08 0)
(42.7266 5.68383e-08 0)
(42.7293 5.45196e-08 0)
(42.7318 5.21519e-08 0)
(42.7343 4.90097e-08 0)
(42.7366 4.62862e-08 0)
(42.7387 4.25535e-08 0)
(42.7407 3.92511e-08 0)
(42.7425 3.52225e-08 0)
(42.7441 3.13314e-08 0)
(42.7455 2.71081e-08 0)
(42.7466 2.28586e-08 0)
(42.7476 1.8924e-08 0)
(42.7482 1.55751e-08 0)
(42.7487 8.4581e-09 0)
(42.7488 2.09685e-09 0)
(42.7488 1.23331e-09 0)
(42.7484 -1.05678e-08 0)
(42.7478 -1.44739e-08 0)
(42.7469 -1.95537e-08 0)
(42.7457 -2.4854e-08 0)
(42.7443 -2.98565e-08 0)
(42.7426 -3.4672e-08 0)
(42.7407 -3.91084e-08 0)
(42.7385 -4.32976e-08 0)
(42.7361 -4.72191e-08 0)
(42.7335 -5.07874e-08 0)
(42.7307 -5.40802e-08 0)
(42.7276 -5.71722e-08 0)
(42.7244 -5.98616e-08 0)
(42.7211 -6.23239e-08 0)
(42.7175 -6.43491e-08 0)
(42.7139 -6.56788e-08 0)
(42.7101 -6.49183e-08 0)
(42.7062 -5.50246e-08 0)
(42.7022 -5.86283e-09 0)
(42.6982 2.37262e-07 0)
(42.6941 1.41485e-06 0)
(42.6899 7.0771e-06 0)
(42.6855 3.43314e-05 0)
(42.68 0.000165302 0)
(42.6693 0.000792371 0)
(42.6343 0.00377683 0)
(42.4869 0.0178181 0)
(42.0209 0.0896057 0)
(37.8425 0.334057 0)
(42.6975 0.000163809 0)
(42.6912 0.000113096 0)
(42.6835 0.000107302 0)
(42.6766 0.000110511 0)
(42.6704 0.000111548 0)
(42.6643 0.000112011 0)
(42.6584 0.000112417 0)
(42.6528 0.000112751 0)
(42.6474 0.000113072 0)
(42.6424 0.000113216 0)
(42.6377 0.000113411 0)
(42.6334 0.00011361 0)
(42.6294 0.000113763 0)
(42.6257 0.000113898 0)
(42.6225 0.00011402 0)
(42.6196 0.000114127 0)
(42.6171 0.000114224 0)
(42.6149 0.00011431 0)
(42.6131 0.000114384 0)
(42.6117 0.000114445 0)
(42.6105 0.00011449 0)
(42.6097 0.000114511 0)
(42.6092 0.000114497 0)
(42.609 0.000114429 0)
(42.609 0.000114281 0)
(42.6092 0.000114024 0)
(42.6097 0.000113597 0)
(42.6103 0.000112947 0)
(42.6111 0.000112002 0)
(42.6121 0.00011068 0)
(42.6131 0.000108899 0)
(42.6143 0.000106576 0)
(42.6155 0.000103642 0)
(42.6167 0.000100046 0)
(42.618 9.57642e-05 0)
(42.6193 9.08079e-05 0)
(42.6206 8.52225e-05 0)
(42.6219 7.90917e-05 0)
(42.6231 7.2531e-05 0)
(42.6243 6.5682e-05 0)
(42.6255 5.87014e-05 0)
(42.6266 5.17517e-05 0)
(42.6276 4.49883e-05 0)
(42.6285 3.85513e-05 0)
(42.6294 3.25562e-05 0)
(42.6302 2.70898e-05 0)
(42.631 2.2207e-05 0)
(42.6316 1.79337e-05 0)
(42.6323 1.42647e-05 0)
(42.6328 1.11778e-05 0)
(42.6333 8.6277e-06 0)
(42.6337 6.56002e-06 0)
(42.6341 4.91387e-06 0)
(42.6344 3.62646e-06 0)
(42.6347 2.63716e-06 0)
(42.635 1.89001e-06 0)
(42.6352 1.3353e-06 0)
(42.6354 9.30515e-07 0)
(42.6356 6.40064e-07 0)
(42.6358 4.34942e-07 0)
(42.6359 2.91975e-07 0)
(42.6361 1.9357e-07 0)
(42.6362 1.26526e-07 0)
(42.6364 8.14478e-08 0)
(42.6365 5.16864e-08 0)
(42.6366 3.25681e-08 0)
(42.6368 2.05918e-08 0)
(42.6369 1.32114e-08 0)
(42.6371 8.74523e-09 0)
(42.6373 6.10099e-09 0)
(42.6374 4.58249e-09 0)
(42.6376 3.76872e-09 0)
(42.6378 3.38905e-09 0)
(42.638 3.24124e-09 0)
(42.6382 3.21744e-09 0)
(42.6384 3.26968e-09 0)
(42.6387 3.37481e-09 0)
(42.6389 3.51195e-09 0)
(42.6392 3.65659e-09 0)
(42.6394 3.81962e-09 0)
(42.6397 3.9049e-09 0)
(42.6399 4.1958e-09 0)
(42.6402 4.42804e-09 0)
(42.6405 4.52508e-09 0)
(42.6407 4.62482e-09 0)
(42.641 4.785e-09 0)
(42.6413 5.70376e-09 0)
(42.6416 7.10087e-09 0)
(42.6419 6.40543e-09 0)
(42.6421 5.7976e-09 0)
(42.6424 4.98515e-09 0)
(42.6427 4.87697e-09 0)
(42.643 5.02979e-09 0)
(42.6433 5.92581e-09 0)
(42.6436 6.13322e-09 0)
(42.6439 6.41063e-09 0)
(42.6442 6.59887e-09 0)
(42.6445 6.73505e-09 0)
(42.6448 6.83567e-09 0)
(42.645 6.90461e-09 0)
(42.6453 6.96635e-09 0)
(42.6456 7.029e-09 0)
(42.6459 7.09728e-09 0)
(42.6462 7.16183e-09 0)
(42.6465 7.22632e-09 0)
(42.6468 7.28501e-09 0)
(42.6471 7.35225e-09 0)
(42.6475 7.44109e-09 0)
(42.6478 7.54778e-09 0)
(42.6481 7.68322e-09 0)
(42.6485 7.85115e-09 0)
(42.6489 8.04411e-09 0)
(42.6492 8.27394e-09 0)
(42.6497 8.53126e-09 0)
(42.6501 8.81551e-09 0)
(42.6506 9.15663e-09 0)
(42.6511 9.52842e-09 0)
(42.6516 9.95446e-09 0)
(42.6522 1.04316e-08 0)
(42.6528 1.09498e-08 0)
(42.6535 1.15474e-08 0)
(42.6542 1.21616e-08 0)
(42.655 1.28692e-08 0)
(42.6558 1.36074e-08 0)
(42.6568 1.442e-08 0)
(42.6577 1.53197e-08 0)
(42.6588 1.62407e-08 0)
(42.66 1.7295e-08 0)
(42.6612 1.84497e-08 0)
(42.6626 1.96589e-08 0)
(42.664 2.07964e-08 0)
(42.6655 2.15779e-08 0)
(42.6671 2.22102e-08 0)
(42.6689 2.30765e-08 0)
(42.6707 2.43928e-08 0)
(42.6727 2.61269e-08 0)
(42.6747 2.77725e-08 0)
(42.6769 2.92233e-08 0)
(42.6791 3.04574e-08 0)
(42.6815 3.13953e-08 0)
(42.6839 3.23158e-08 0)
(42.6865 3.3048e-08 0)
(42.6891 3.37909e-08 0)
(42.6918 3.4473e-08 0)
(42.6946 3.50077e-08 0)
(42.6975 3.55813e-08 0)
(42.7004 3.58294e-08 0)
(42.7033 3.60985e-08 0)
(42.7063 3.61005e-08 0)
(42.7093 3.59362e-08 0)
(42.7123 3.56531e-08 0)
(42.7152 3.49784e-08 0)
(42.7182 3.43468e-08 0)
(42.7211 3.31878e-08 0)
(42.7239 3.20639e-08 0)
(42.7267 3.05523e-08 0)
(42.7294 2.88248e-08 0)
(42.7319 2.70196e-08 0)
(42.7344 2.46651e-08 0)
(42.7367 2.25584e-08 0)
(42.7388 1.97581e-08 0)
(42.7408 1.71332e-08 0)
(42.7426 1.41705e-08 0)
(42.7442 1.09865e-08 0)
(42.7456 7.74682e-09 0)
(42.7467 4.14959e-09 0)
(42.7476 1.68567e-09 0)
(42.7483 -3.89155e-10 0)
(42.7488 -7.8349e-09 0)
(42.7489 -1.0551e-08 0)
(42.7489 -2.22925e-09 0)
(42.7485 -1.82353e-08 0)
(42.7479 -1.86758e-08 0)
(42.747 -2.11711e-08 0)
(42.7458 -2.45721e-08 0)
(42.7444 -2.79659e-08 0)
(42.7427 -3.13728e-08 0)
(42.7408 -3.45759e-08 0)
(42.7386 -3.77283e-08 0)
(42.7362 -4.07343e-08 0)
(42.7336 -4.34933e-08 0)
(42.7308 -4.6014e-08 0)
(42.7277 -4.85338e-08 0)
(42.7245 -5.0537e-08 0)
(42.7211 -5.25033e-08 0)
(42.7176 -5.40739e-08 0)
(42.714 -5.46605e-08 0)
(42.7102 -5.17095e-08 0)
(42.7063 -3.19313e-08 0)
(42.7023 6.97924e-08 0)
(42.6983 5.49475e-07 0)
(42.6942 2.87601e-06 0)
(42.69 1.41021e-05 0)
(42.6856 6.81703e-05 0)
(42.6801 0.000328019 0)
(42.6695 0.00157242 0)
(42.6353 0.00749911 0)
(42.4917 0.0353806 0)
(42.0396 0.177081 0)
(38.089 0.64553 0)
(42.6975 0.000119143 0)
(42.6911 0.000102445 0)
(42.6835 9.96171e-05 0)
(42.6766 0.000103829 0)
(42.6703 0.000105988 0)
(42.6643 0.000107233 0)
(42.6584 0.000108289 0)
(42.6528 0.000109185 0)
(42.6474 0.000109959 0)
(42.6424 0.000110532 0)
(42.6377 0.000111065 0)
(42.6333 0.000111541 0)
(42.6293 0.000111938 0)
(42.6257 0.000112282 0)
(42.6225 0.000112583 0)
(42.6196 0.000112846 0)
(42.617 0.000113077 0)
(42.6149 0.000113278 0)
(42.6131 0.000113454 0)
(42.6116 0.000113603 0)
(42.6105 0.000113725 0)
(42.6097 0.000113815 0)
(42.6092 0.000113862 0)
(42.6089 0.000113851 0)
(42.6089 0.000113757 0)
(42.6092 0.000113551 0)
(42.6096 0.000113179 0)
(42.6103 0.000112588 0)
(42.6111 0.000111707 0)
(42.612 0.000110459 0)
(42.6131 0.00010876 0)
(42.6142 0.00010653 0)
(42.6154 0.000103698 0)
(42.6167 0.000100212 0)
(42.618 9.60456e-05 0)
(42.6193 9.12045e-05 0)
(42.6206 8.57299e-05 0)
(42.6219 7.97003e-05 0)
(42.6231 7.32261e-05 0)
(42.6243 6.64447e-05 0)
(42.6255 5.95101e-05 0)
(42.6266 5.25831e-05 0)
(42.6276 4.58195e-05 0)
(42.6285 3.93607e-05 0)
(42.6294 3.33254e-05 0)
(42.6302 2.78041e-05 0)
(42.631 2.28561e-05 0)
(42.6316 1.85113e-05 0)
(42.6322 1.47695e-05 0)
(42.6328 1.16105e-05 0)
(42.6333 8.99267e-06 0)
(42.6337 6.86332e-06 0)
(42.6341 5.16266e-06 0)
(42.6344 3.82842e-06 0)
(42.6347 2.79988e-06 0)
(42.635 2.02056e-06 0)
(42.6352 1.4399e-06 0)
(42.6354 1.01438e-06 0)
(42.6356 7.07414e-07 0)
(42.6358 4.89077e-07 0)
(42.6359 3.35437e-07 0)
(42.6361 2.28579e-07 0)
(42.6362 1.55518e-07 0)
(42.6364 1.0697e-07 0)
(42.6365 7.57627e-08 0)
(42.6366 5.63223e-08 0)
(42.6368 4.44621e-08 0)
(42.6369 3.73074e-08 0)
(42.6371 3.30542e-08 0)
(42.6373 3.05723e-08 0)
(42.6374 2.91739e-08 0)
(42.6376 2.84481e-08 0)
(42.6378 2.81298e-08 0)
(42.638 2.80462e-08 0)
(42.6382 2.80778e-08 0)
(42.6384 2.81808e-08 0)
(42.6387 2.83335e-08 0)
(42.6389 2.85154e-08 0)
(42.6392 2.87132e-08 0)
(42.6394 2.89206e-08 0)
(42.6397 2.90832e-08 0)
(42.6399 2.93877e-08 0)
(42.6402 2.96605e-08 0)
(42.6405 2.98461e-08 0)
(42.6407 3.00473e-08 0)
(42.641 3.03406e-08 0)
(42.6413 3.11365e-08 0)
(42.6416 3.23374e-08 0)
(42.6419 3.23343e-08 0)
(42.6421 3.22453e-08 0)
(42.6424 3.18129e-08 0)
(42.6427 3.18085e-08 0)
(42.643 3.20878e-08 0)
(42.6433 3.29103e-08 0)
(42.6436 3.33206e-08 0)
(42.6439 3.37211e-08 0)
(42.6442 3.40439e-08 0)
(42.6445 3.43045e-08 0)
(42.6448 3.453e-08 0)
(42.645 3.47316e-08 0)
(42.6453 3.49242e-08 0)
(42.6456 3.51183e-08 0)
(42.6459 3.53168e-08 0)
(42.6462 3.55113e-08 0)
(42.6465 3.56999e-08 0)
(42.6468 3.58869e-08 0)
(42.6471 3.608e-08 0)
(42.6475 3.62839e-08 0)
(42.6478 3.65049e-08 0)
(42.6481 3.67436e-08 0)
(42.6485 3.69991e-08 0)
(42.6489 3.72697e-08 0)
(42.6492 3.75612e-08 0)
(42.6497 3.78743e-08 0)
(42.6501 3.81982e-08 0)
(42.6506 3.85509e-08 0)
(42.6511 3.89251e-08 0)
(42.6516 3.93303e-08 0)
(42.6522 3.97722e-08 0)
(42.6528 4.02423e-08 0)
(42.6535 4.07679e-08 0)
(42.6542 4.13117e-08 0)
(42.655 4.19119e-08 0)
(42.6558 4.25381e-08 0)
(42.6568 4.32044e-08 0)
(42.6577 4.39248e-08 0)
(42.6588 4.46579e-08 0)
(42.66 4.54708e-08 0)
(42.6612 4.63567e-08 0)
(42.6626 4.72735e-08 0)
(42.664 4.81104e-08 0)
(42.6655 4.8639e-08 0)
(42.6671 4.89848e-08 0)
(42.6689 4.94813e-08 0)
(42.6707 5.03503e-08 0)
(42.6727 5.15843e-08 0)
(42.6747 5.27989e-08 0)
(42.6769 5.38203e-08 0)
(42.6791 5.46347e-08 0)
(42.6815 5.52005e-08 0)
(42.6839 5.5711e-08 0)
(42.6865 5.60825e-08 0)
(42.6891 5.64329e-08 0)
(42.6918 5.67358e-08 0)
(42.6946 5.69229e-08 0)
(42.6975 5.7123e-08 0)
(42.7004 5.70921e-08 0)
(42.7033 5.70461e-08 0)
(42.7063 5.68176e-08 0)
(42.7093 5.64481e-08 0)
(42.7123 5.59858e-08 0)
(42.7152 5.52414e-08 0)
(42.7182 5.45046e-08 0)
(42.7211 5.3397e-08 0)
(42.7239 5.22842e-08 0)
(42.7267 5.0922e-08 0)
(42.7294 4.93938e-08 0)
(42.7319 4.77953e-08 0)
(42.7344 4.57813e-08 0)
(42.7367 4.40699e-08 0)
(42.7388 4.15478e-08 0)
(42.7408 3.9608e-08 0)
(42.7426 3.67105e-08 0)
(42.7442 3.45355e-08 0)
(42.7456 3.07444e-08 0)
(42.7467 2.86531e-08 0)
(42.7476 2.66884e-08 0)
(42.7483 2.69431e-08 0)
(42.7488 1.23621e-08 0)
(42.7489 6.7631e-09 0)
(42.7489 3.41106e-08 0)
(42.7485 -1.74403e-09 0)
(42.7479 3.41784e-09 0)
(42.747 3.52479e-09 0)
(42.7458 1.24816e-09 0)
(42.7444 -1.25159e-09 0)
(42.7427 -3.77218e-09 0)
(42.7408 -6.03027e-09 0)
(42.7386 -8.27741e-09 0)
(42.7362 -1.05493e-08 0)
(42.7336 -1.23052e-08 0)
(42.7308 -1.41775e-08 0)
(42.7277 -1.5749e-08 0)
(42.7245 -1.71543e-08 0)
(42.7211 -1.80737e-08 0)
(42.7176 -1.87289e-08 0)
(42.714 -1.71074e-08 0)
(42.7102 -6.81917e-09 0)
(42.7063 4.38552e-08 0)
(42.7023 2.98162e-07 0)
(42.6983 1.52291e-06 0)
(42.6942 7.42337e-06 0)
(42.69 3.58617e-05 0)
(42.6856 0.000172828 0)
(42.6803 0.000831062 0)
(42.6705 0.00398163 0)
(42.6396 0.0189359 0)
(42.5137 0.0882973 0)
(42.1213 0.407273 0)
(39.1163 1.46197 0)
(42.6975 3.5994e-05 0)
(42.6911 2.78914e-05 0)
(42.6835 1.98116e-05 0)
(42.6766 1.66353e-05 0)
(42.6703 1.40951e-05 0)
(42.6643 1.18925e-05 0)
(42.6584 1.01584e-05 0)
(42.6527 8.76799e-06 0)
(42.6474 7.62529e-06 0)
(42.6424 6.64709e-06 0)
(42.6377 5.8314e-06 0)
(42.6333 5.13993e-06 0)
(42.6293 4.54235e-06 0)
(42.6257 4.02549e-06 0)
(42.6224 3.5769e-06 0)
(42.6195 3.18559e-06 0)
(42.617 2.84344e-06 0)
(42.6149 2.54333e-06 0)
(42.6131 2.27946e-06 0)
(42.6116 2.04695e-06 0)
(42.6105 1.8417e-06 0)
(42.6097 1.66009e-06 0)
(42.6091 1.49907e-06 0)
(42.6089 1.3559e-06 0)
(42.6089 1.22814e-06 0)
(42.6092 1.11488e-06 0)
(42.6096 1.01159e-06 0)
(42.6103 9.17677e-07 0)
(42.6111 8.31006e-07 0)
(42.612 7.49701e-07 0)
(42.6131 6.72032e-07 0)
(42.6142 5.96505e-07 0)
(42.6154 5.22067e-07 0)
(42.6167 4.47996e-07 0)
(42.618 3.74116e-07 0)
(42.6193 3.01034e-07 0)
(42.6206 2.29377e-07 0)
(42.6219 1.60586e-07 0)
(42.6231 9.61428e-08 0)
(42.6243 3.76541e-08 0)
(42.6255 -1.35577e-08 0)
(42.6265 -5.63428e-08 0)
(42.6276 -9.01884e-08 0)
(42.6285 -1.14944e-07 0)
(42.6294 -1.30963e-07 0)
(42.6302 -1.39084e-07 0)
(42.631 -1.40614e-07 0)
(42.6316 -1.36679e-07 0)
(42.6322 -1.29127e-07 0)
(42.6328 -1.18696e-07 0)
(42.6333 -1.06961e-07 0)
(42.6337 -9.48241e-08 0)
(42.6341 -8.30206e-08 0)
(42.6344 -7.21008e-08 0)
(42.6347 -6.24069e-08 0)
(42.635 -5.41192e-08 0)
(42.6352 -4.73045e-08 0)
(42.6354 -4.19091e-08 0)
(42.6356 -3.78216e-08 0)
(42.6358 -3.47815e-08 0)
(42.6359 -3.21961e-08 0)
(42.6361 -2.8707e-08 0)
(42.6362 -2.45048e-08 0)
(42.6364 -2.11015e-08 0)
(42.6365 -1.9221e-08 0)
(42.6366 -1.85644e-08 0)
(42.6368 -1.85587e-08 0)
(42.6369 -1.87767e-08 0)
(42.6371 -1.90132e-08 0)
(42.6373 -1.91974e-08 0)
(42.6374 -1.93321e-08 0)
(42.6376 -1.94257e-08 0)
(42.6378 -1.94955e-08 0)
(42.638 -1.9558e-08 0)
(42.6382 -1.96228e-08 0)
(42.6384 -1.96885e-08 0)
(42.6387 -1.97533e-08 0)
(42.6389 -1.98228e-08 0)
(42.6392 -1.99042e-08 0)
(42.6394 -1.99914e-08 0)
(42.6397 -2.01035e-08 0)
(42.6399 -2.01853e-08 0)
(42.6402 -2.02933e-08 0)
(42.6405 -2.04502e-08 0)
(42.6407 -2.06358e-08 0)
(42.641 -2.08179e-08 0)
(42.6413 -2.08286e-08 0)
(42.6416 -2.06891e-08 0)
(42.6419 -2.09132e-08 0)
(42.6421 -2.11821e-08 0)
(42.6424 -2.14945e-08 0)
(42.6427 -2.16187e-08 0)
(42.643 -2.1646e-08 0)
(42.6433 -2.1557e-08 0)
(42.6436 -2.16139e-08 0)
(42.6439 -2.16899e-08 0)
(42.6442 -2.17734e-08 0)
(42.6445 -2.18618e-08 0)
(42.6448 -2.19507e-08 0)
(42.645 -2.2035e-08 0)
(42.6453 -2.21123e-08 0)
(42.6456 -2.21798e-08 0)
(42.6459 -2.22331e-08 0)
(42.6462 -2.22746e-08 0)
(42.6465 -2.23059e-08 0)
(42.6468 -2.23282e-08 0)
(42.6471 -2.23329e-08 0)
(42.6475 -2.23252e-08 0)
(42.6478 -2.23005e-08 0)
(42.6481 -2.22573e-08 0)
(42.6485 -2.2197e-08 0)
(42.6489 -2.21172e-08 0)
(42.6492 -2.20187e-08 0)
(42.6497 -2.19037e-08 0)
(42.6501 -2.17704e-08 0)
(42.6506 -2.16148e-08 0)
(42.6511 -2.14396e-08 0)
(42.6516 -2.12432e-08 0)
(42.6522 -2.10257e-08 0)
(42.6528 -2.07893e-08 0)
(42.6535 -2.05286e-08 0)
(42.6542 -2.0252e-08 0)
(42.655 -1.99529e-08 0)
(42.6558 -1.9635e-08 0)
(42.6568 -1.92969e-08 0)
(42.6577 -1.89359e-08 0)
(42.6588 -1.85577e-08 0)
(42.66 -1.81494e-08 0)
(42.6612 -1.77093e-08 0)
(42.6626 -1.72549e-08 0)
(42.664 -1.68186e-08 0)
(42.6655 -1.64477e-08 0)
(42.6671 -1.60873e-08 0)
(42.6689 -1.56424e-08 0)
(42.6707 -1.51026e-08 0)
(42.6727 -1.45086e-08 0)
(42.6747 -1.39552e-08 0)
(42.6769 -1.34591e-08 0)
(42.6791 -1.30062e-08 0)
(42.6815 -1.26086e-08 0)
(42.6839 -1.22231e-08 0)
(42.6865 -1.18701e-08 0)
(42.6891 -1.15325e-08 0)
(42.6918 -1.12107e-08 0)
(42.6946 -1.09226e-08 0)
(42.6975 -1.06472e-08 0)
(42.7004 -1.04405e-08 0)
(42.7033 -1.02566e-08 0)
(42.7063 -1.0132e-08 0)
(42.7093 -1.00608e-08 0)
(42.7123 -1.00305e-08 0)
(42.7152 -1.00813e-08 0)
(42.7182 -1.01559e-08 0)
(42.7211 -1.03182e-08 0)
(42.7239 -1.05106e-08 0)
(42.7267 -1.07868e-08 0)
(42.7294 -1.11511e-08 0)
(42.7319 -1.14771e-08 0)
(42.7344 -1.20479e-08 0)
(42.7367 -1.22863e-08 0)
(42.7388 -1.32547e-08 0)
(42.7408 -1.33881e-08 0)
(42.7426 -1.47621e-08 0)
(42.7442 -1.47378e-08 0)
(42.7456 -1.70973e-08 0)
(42.7467 -1.6209e-08 0)
(42.7476 -1.52882e-08 0)
(42.7483 -1.0181e-08 0)
(42.7488 -3.09179e-08 0)
(42.7489 -4.2185e-08 0)
(42.7489 4.60536e-08 0)
(42.7485 -6.09261e-08 0)
(42.7479 -3.046e-08 0)
(42.747 -2.56504e-08 0)
(42.7458 -2.60347e-08 0)
(42.7444 -2.69234e-08 0)
(42.7427 -2.79976e-08 0)
(42.7408 -2.87659e-08 0)
(42.7386 -2.97063e-08 0)
(42.7362 -3.08103e-08 0)
(42.7336 -3.14422e-08 0)
(42.7308 -3.20138e-08 0)
(42.7277 -3.30503e-08 0)
(42.7245 -3.34589e-08 0)
(42.7211 -3.36648e-08 0)
(42.7176 -3.39805e-08 0)
(42.714 -3.02626e-08 0)
(42.7102 -1.19818e-08 0)
(42.7063 7.62636e-08 0)
(42.7023 4.96438e-07 0)
(42.6983 2.52739e-06 0)
(42.6942 1.23248e-05 0)
(42.69 5.95643e-05 0)
(42.6858 0.000287206 0)
(42.6812 0.00138241 0)
(42.6748 0.00663472 0)
(42.6599 0.031624 0)
(42.6035 0.147789 0)
(42.4297 0.663566 0)
(40.6409 2.35657 0)
(42.6975 -3.5994e-05 0)
(42.6911 -2.78914e-05 0)
(42.6835 -1.98116e-05 0)
(42.6766 -1.66353e-05 0)
(42.6703 -1.40951e-05 0)
(42.6643 -1.18925e-05 0)
(42.6584 -1.01584e-05 0)
(42.6527 -8.76799e-06 0)
(42.6474 -7.62529e-06 0)
(42.6424 -6.64709e-06 0)
(42.6377 -5.8314e-06 0)
(42.6333 -5.13993e-06 0)
(42.6293 -4.54235e-06 0)
(42.6257 -4.02549e-06 0)
(42.6224 -3.5769e-06 0)
(42.6195 -3.18559e-06 0)
(42.617 -2.84345e-06 0)
(42.6149 -2.54333e-06 0)
(42.6131 -2.27946e-06 0)
(42.6116 -2.04695e-06 0)
(42.6105 -1.8417e-06 0)
(42.6097 -1.66009e-06 0)
(42.6091 -1.49907e-06 0)
(42.6089 -1.3559e-06 0)
(42.6089 -1.22814e-06 0)
(42.6092 -1.11488e-06 0)
(42.6096 -1.01159e-06 0)
(42.6103 -9.17683e-07 0)
(42.6111 -8.31008e-07 0)
(42.612 -7.49701e-07 0)
(42.6131 -6.72033e-07 0)
(42.6142 -5.96504e-07 0)
(42.6154 -5.22066e-07 0)
(42.6167 -4.47996e-07 0)
(42.618 -3.74114e-07 0)
(42.6193 -3.01033e-07 0)
(42.6206 -2.29375e-07 0)
(42.6219 -1.60586e-07 0)
(42.6231 -9.61426e-08 0)
(42.6243 -3.76558e-08 0)
(42.6255 1.3557e-08 0)
(42.6265 5.63447e-08 0)
(42.6276 9.01874e-08 0)
(42.6285 1.14943e-07 0)
(42.6294 1.30966e-07 0)
(42.6302 1.39085e-07 0)
(42.631 1.40615e-07 0)
(42.6316 1.36679e-07 0)
(42.6322 1.29129e-07 0)
(42.6328 1.18696e-07 0)
(42.6333 1.06961e-07 0)
(42.6337 9.48234e-08 0)
(42.6341 8.30198e-08 0)
(42.6344 7.21036e-08 0)
(42.6347 6.24083e-08 0)
(42.635 5.41206e-08 0)
(42.6352 4.73035e-08 0)
(42.6354 4.19102e-08 0)
(42.6356 3.78225e-08 0)
(42.6358 3.47816e-08 0)
(42.6359 3.21949e-08 0)
(42.6361 2.87069e-08 0)
(42.6362 2.45034e-08 0)
(42.6364 2.11017e-08 0)
(42.6365 1.92218e-08 0)
(42.6366 1.85655e-08 0)
(42.6368 1.85575e-08 0)
(42.6369 1.8775e-08 0)
(42.6371 1.90127e-08 0)
(42.6373 1.91979e-08 0)
(42.6374 1.93308e-08 0)
(42.6376 1.94245e-08 0)
(42.6378 1.94953e-08 0)
(42.638 1.95574e-08 0)
(42.6382 1.96211e-08 0)
(42.6384 1.96858e-08 0)
(42.6387 1.97518e-08 0)
(42.6389 1.98232e-08 0)
(42.6392 1.99024e-08 0)
(42.6394 1.99905e-08 0)
(42.6397 2.01036e-08 0)
(42.6399 2.01879e-08 0)
(42.6402 2.02939e-08 0)
(42.6405 2.04503e-08 0)
(42.6407 2.06351e-08 0)
(42.641 2.08199e-08 0)
(42.6413 2.083e-08 0)
(42.6416 2.06884e-08 0)
(42.6419 2.0911e-08 0)
(42.6421 2.11814e-08 0)
(42.6424 2.14915e-08 0)
(42.6427 2.1615e-08 0)
(42.643 2.16442e-08 0)
(42.6433 2.15577e-08 0)
(42.6436 2.1612e-08 0)
(42.6439 2.1689e-08 0)
(42.6442 2.17722e-08 0)
(42.6445 2.18613e-08 0)
(42.6448 2.19517e-08 0)
(42.645 2.2034e-08 0)
(42.6453 2.21119e-08 0)
(42.6456 2.21769e-08 0)
(42.6459 2.22316e-08 0)
(42.6462 2.22775e-08 0)
(42.6465 2.23097e-08 0)
(42.6468 2.23285e-08 0)
(42.6471 2.23345e-08 0)
(42.6475 2.23268e-08 0)
(42.6478 2.23006e-08 0)
(42.6481 2.22566e-08 0)
(42.6485 2.21966e-08 0)
(42.6489 2.21173e-08 0)
(42.6492 2.202e-08 0)
(42.6497 2.19036e-08 0)
(42.6501 2.17715e-08 0)
(42.6506 2.16156e-08 0)
(42.6511 2.14401e-08 0)
(42.6516 2.12444e-08 0)
(42.6522 2.10259e-08 0)
(42.6528 2.07896e-08 0)
(42.6535 2.05276e-08 0)
(42.6542 2.02515e-08 0)
(42.655 1.99499e-08 0)
(42.6558 1.96346e-08 0)
(42.6568 1.92985e-08 0)
(42.6577 1.89362e-08 0)
(42.6588 1.85585e-08 0)
(42.66 1.81498e-08 0)
(42.6612 1.77099e-08 0)
(42.6626 1.72539e-08 0)
(42.664 1.68174e-08 0)
(42.6655 1.64467e-08 0)
(42.6671 1.6086e-08 0)
(42.6689 1.5643e-08 0)
(42.6707 1.51012e-08 0)
(42.6727 1.45064e-08 0)
(42.6747 1.39552e-08 0)
(42.6769 1.34609e-08 0)
(42.6791 1.30077e-08 0)
(42.6815 1.26072e-08 0)
(42.6839 1.22218e-08 0)
(42.6865 1.18711e-08 0)
(42.6891 1.15324e-08 0)
(42.6918 1.12067e-08 0)
(42.6946 1.09205e-08 0)
(42.6975 1.06483e-08 0)
(42.7004 1.04415e-08 0)
(42.7033 1.02564e-08 0)
(42.7063 1.01331e-08 0)
(42.7093 1.00593e-08 0)
(42.7123 1.0031e-08 0)
(42.7152 1.00827e-08 0)
(42.7182 1.01555e-08 0)
(42.7211 1.03219e-08 0)
(42.7239 1.05048e-08 0)
(42.7267 1.07985e-08 0)
(42.7294 1.11216e-08 0)
(42.7319 1.15381e-08 0)
(42.7344 1.18826e-08 0)
(42.7367 1.26466e-08 0)
(42.7388 1.28588e-08 0)
(42.7408 1.39508e-08 0)
(42.7426 1.40542e-08 0)
(42.7442 1.56764e-08 0)
(42.7456 1.46142e-08 0)
(42.7467 1.67096e-08 0)
(42.7476 2.00354e-08 0)
(42.7483 2.58351e-08 0)
(42.7488 1.0238e-08 0)
(42.7489 -1.29939e-08 0)
(42.7489 1.18696e-07 0)
(42.7485 -3.57383e-08 0)
(42.7479 1.53986e-08 0)
(42.747 2.39397e-08 0)
(42.7458 2.57407e-08 0)
(42.7444 2.68459e-08 0)
(42.7427 2.78881e-08 0)
(42.7408 2.8915e-08 0)
(42.7386 2.99337e-08 0)
(42.7362 3.05374e-08 0)
(42.7336 3.14581e-08 0)
(42.7308 3.25903e-08 0)
(42.7277 3.28066e-08 0)
(42.7245 3.36118e-08 0)
(42.7211 3.47238e-08 0)
(42.7176 3.5501e-08 0)
(42.714 3.99668e-08 0)
(42.7102 5.82352e-08 0)
(42.7063 1.46294e-07 0)
(42.7023 5.68142e-07 0)
(42.6983 2.60006e-06 0)
(42.6942 1.24038e-05 0)
(42.6901 5.97138e-05 0)
(42.686 0.000288138 0)
(42.6823 0.00139152 0)
(42.6803 0.00673137 0)
(42.6855 0.0326244 0)
(42.7202 0.157462 0)
(42.8523 0.754257 0)
(43.3537 2.65116 0)
(42.6975 -0.000119143 0)
(42.6911 -0.000102445 0)
(42.6835 -9.96171e-05 0)
(42.6766 -0.000103829 0)
(42.6703 -0.000105988 0)
(42.6643 -0.000107233 0)
(42.6584 -0.000108289 0)
(42.6528 -0.000109185 0)
(42.6474 -0.000109959 0)
(42.6424 -0.000110532 0)
(42.6377 -0.000111065 0)
(42.6333 -0.000111541 0)
(42.6293 -0.000111938 0)
(42.6257 -0.000112282 0)
(42.6225 -0.000112583 0)