/*--------------------------------*- C++ -*----------------------------------*\
| =========                 |                                                 |
| \\      /  F ield         | OpenFOAM: The Open Source CFD Toolbox           |
|  \\    /   O peration     | Version:  3.0.x                                 |
|   \\  /    A nd           | Web:      www.OpenFOAM.org                      |
|    \\/     M anipulation  |                                                 |
\*---------------------------------------------------------------------------*/
FoamFile
{
    version     2.0;
    format      ascii;
    class       surfaceScalarField;
    location    "0.41";
    object      phi;
}
// * * * * * * * * * * * * * * * * * * * * * * * * * * * * * * * * * * * * * //

dimensions      [1 0 -1 0 0 0 0];

internalField   nonuniform List<scalar> 
26210
(
3.90824
0.000503904
3.90789
0.000345991
3.90755
0.0003397
3.90721
0.000341353
3.90686
0.00034139
3.90652
0.0003413
3.90617
0.000341289
3.90583
0.000341274
3.90548
0.000341258
3.90514
0.000341244
3.90479
0.000341226
3.90445
0.00034121
3.9041
0.000341195
3.90376
0.000341178
3.90341
0.000341161
3.90307
0.000341145
3.90272
0.000341125
3.90238
0.000341111
3.90204
0.00034109
3.90169
0.000341071
3.90135
0.000341051
3.901
0.000341028
3.90066
0.000341004
3.90031
0.000340963
3.89996
0.000341094
3.89962
0.000340886
3.89927
0.000340944
3.89893
0.000340931
3.89858
0.000340885
3.89824
0.000340892
3.8979
0.000341
3.89756
0.000340851
3.89721
0.000340891
3.89687
0.000340886
3.89653
0.00034088
3.89618
0.000340827
3.89584
0.000340893
3.89549
0.000340888
3.89515
0.000340853
3.89481
0.000340841
3.89446
0.000340813
3.89412
0.000340802
3.89378
0.000340739
3.89344
0.000340656
3.8931
0.000341023
3.89276
0.000340158
3.89242
0.00034027
3.89208
0.000339969
3.89174
0.000339531
3.8914
0.000338913
3.89107
0.000338055
3.89073
0.000336854
3.89039
0.000335345
3.89006
0.000333342
3.88973
0.00033068
3.8894
0.000327402
3.88908
0.000323285
3.88876
0.000318641
3.88845
0.000312152
3.88815
0.000305334
3.88785
0.000297162
3.88757
0.000287822
3.88729
0.000277315
3.88702
0.000265675
3.88677
0.000252972
3.88653
0.000239314
3.88631
0.000224842
3.8861
0.000209725
3.88591
0.000194157
3.88573
0.000178346
3.88557
0.000162506
3.88542
0.000146851
3.88529
0.000131591
3.88517
0.000116886
3.88507
0.000102914
3.88498
8.98212e-05
3.8849
7.76804e-05
3.88484
6.65744e-05
3.88478
5.6534e-05
3.88474
4.75661e-05
3.8847
3.96511e-05
3.88466
3.27511e-05
3.88464
2.67972e-05
3.88461
2.17235e-05
3.8846
1.74473e-05
3.88458
1.38834e-05
3.88457
1.09469e-05
3.88456
8.54753e-06
3.88456
6.61667e-06
3.88455
5.07294e-06
3.88455
3.85705e-06
3.88454
2.90375e-06
3.88454
2.16681e-06
3.88454
1.60254e-06
3.88454
1.17473e-06
3.88454
8.53568e-07
3.88454
6.1484e-07
3.88453
4.391e-07
3.88453
3.10967e-07
3.88453
2.18432e-07
3.88453
1.52235e-07
3.88453
1.05309e-07
3.88453
7.23594e-08
3.88453
4.94183e-08
3.88453
3.36004e-08
3.88453
2.28029e-08
3.88453
1.5476e-08
3.88452
1.05683e-08
3.88452
7.30142e-09
3.88452
5.16229e-09
3.88452
3.76167e-09
3.88452
2.85945e-09
3.88452
2.26282e-09
3.88452
1.88084e-09
3.88452
1.60799e-09
3.88451
1.42245e-09
3.88451
1.28421e-09
3.88451
1.21508e-09
3.88451
1.09503e-09
3.88451
1.05865e-09
3.8845
1.01136e-09
3.8845
1.37152e-09
3.8845
6.33008e-10
3.8845
1.0732e-09
3.8845
1.16415e-09
3.88449
1.2551e-09
3.88449
1.37152e-09
3.88449
1.50612e-09
3.88448
1.68438e-09
3.88448
1.88447e-09
3.88447
2.10639e-09
3.88447
2.37196e-09
3.88446
2.65572e-09
3.88446
2.96859e-09
3.88445
3.32511e-09
3.88444
3.72893e-09
3.88444
4.19095e-09
3.88443
4.70391e-09
3.88442
5.27871e-09
3.88441
5.91535e-09
3.8844
6.62476e-09
3.88439
7.43239e-09
3.88437
8.31642e-09
3.88436
9.27685e-09
3.88434
1.03464e-08
3.88432
1.15215e-08
3.8843
1.28093e-08
3.88428
1.42172e-08
3.88426
1.5727e-08
3.88423
1.73677e-08
3.88421
1.91576e-08
3.88418
2.11076e-08
3.88414
2.32067e-08
3.88411
2.54731e-08
3.88407
2.78778e-08
3.88402
3.04572e-08
3.88398
3.32257e-08
3.88393
3.62343e-08
3.88387
3.94721e-08
3.88381
4.29573e-08
3.88375
4.66898e-08
3.88368
5.06734e-08
3.88361
5.49517e-08
3.88352
5.95173e-08
3.88344
6.43922e-08
3.88334
6.95727e-08
3.88324
7.50733e-08
3.88313
8.09196e-08
3.88302
8.7115e-08
3.88289
9.36598e-08
3.88276
1.00576e-07
3.88261
1.0787e-07
3.88246
1.15564e-07
3.88229
1.2368e-07
3.88211
1.32233e-07
3.88193
1.41241e-07
3.88172
1.50725e-07
3.88151
1.60686e-07
3.88128
1.7116e-07
3.88104
1.82139e-07
3.88078
1.93646e-07
3.8805
2.05691e-07
3.88021
2.18282e-07
3.8799
2.3143e-07
3.87957
2.45174e-07
3.87922
2.59603e-07
3.87885
2.75133e-07
3.87846
2.93789e-07
3.87805
3.25246e-07
3.87761
4.16163e-07
3.87715
7.9133e-07
3.87666
2.53361e-06
3.87614
1.08558e-05
3.87556
5.08195e-05
3.87475
0.000242553
3.873
0.00115862
3.86688
0.00550386
3.84024
0.0259803
3.70663
0.132931
0.503545
3.20237
5.52789
0.000460537
5.52791
0.000328385
5.52793
0.000315104
5.52794
0.000318624
5.52796
0.000318804
5.52798
0.000318657
5.52799
0.000318688
5.52801
0.000318723
5.52803
0.000318751
5.52805
0.000318782
5.52806
0.0003188
5.52808
0.000318833
5.5281
0.000318859
5.52811
0.000318886
5.52813
0.000318909
5.52814
0.000318937
5.52816
0.000318962
5.52818
0.000318989
5.52819
0.000319012
5.52821
0.000319035
5.52822
0.000319058
5.52824
0.000319078
5.52826
0.000319098
5.52827
0.000319104
5.52829
0.00031926
5.5283
0.000319115
5.52831
0.000319207
5.52833
0.000319238
5.52834
0.000319238
5.52836
0.000319286
5.52838
0.000319419
5.5284
0.000319334
5.52842
0.000319408
5.52844
0.000319445
5.52845
0.000319481
5.52847
0.000319477
5.52849
0.000319572
5.5285
0.000319612
5.52852
0.000319621
5.52854
0.000319651
5.52855
0.000319666
5.52857
0.000319695
5.52859
0.000319677
5.52861
0.000319641
5.52863
0.000319991
5.52865
0.000319258
5.52868
0.000319368
5.5287
0.000319113
5.52872
0.000318719
5.52874
0.000318147
5.52876
0.000317339
5.52878
0.000316198
5.52879
0.000314742
5.52881
0.000312811
5.52883
0.000310241
5.52885
0.000307067
5.52887
0.000303084
5.52889
0.000298561
5.52892
0.000292326
5.52894
0.00028572
5.52896
0.000277842
5.52898
0.000268851
5.529
0.000258758
5.52902
0.000247601
5.52904
0.000235454
5.52906
0.000222426
5.52907
0.000208656
5.52909
0.000194311
5.5291
0.000179577
5.52912
0.000164655
5.52913
0.000149748
5.52914
0.000135057
5.52915
0.000120778
5.52916
0.000107058
5.52917
9.40603e-05
5.52918
8.19156e-05
5.52919
7.06864e-05
5.52919
6.04447e-05
5.5292
5.12124e-05
5.5292
4.29899e-05
5.52921
3.5754e-05
5.52921
2.94642e-05
5.52921
2.40508e-05
5.52922
1.94519e-05
5.52922
1.55863e-05
5.52922
1.23733e-05
5.52922
9.73409e-06
5.52922
7.58215e-06
5.52922
5.85583e-06
5.52922
4.47906e-06
5.52922
3.39801e-06
5.52922
2.5522e-06
5.52922
1.90021e-06
5.52922
1.40228e-06
5.52922
1.02573e-06
5.52922
7.43785e-07
5.52921
5.34726e-07
5.52921
3.81209e-07
5.52921
2.69552e-07
5.52921
1.89113e-07
5.52921
1.317e-07
5.52921
9.10932e-08
5.52921
6.26405e-08
5.5292
4.28809e-08
5.5292
2.92839e-08
5.5292
2.0018e-08
5.5292
1.37352e-08
5.5292
9.54242e-09
5.52919
6.75209e-09
5.52919
4.93674e-09
5.52919
3.74712e-09
5.52919
2.98314e-09
5.52918
2.48292e-09
5.52918
2.17369e-09
5.52918
1.93722e-09
5.52918
1.7917e-09
5.52917
1.67529e-09
5.52917
1.62981e-09
5.52917
1.52068e-09
5.52917
1.5043e-09
5.52916
1.47338e-09
5.52916
1.81717e-09
5.52916
1.1496e-09
5.52915
1.54432e-09
5.52915
1.64437e-09
5.52914
1.74077e-09
5.52914
1.84809e-09
5.52913
1.97906e-09
5.52913
2.14641e-09
5.52912
2.32649e-09
5.52911
2.53385e-09
5.52911
2.79033e-09
5.5291
3.04499e-09
5.52909
3.33785e-09
5.52908
3.66526e-09
5.52907
4.0327e-09
5.52906
4.46744e-09
5.52905
4.94038e-09
5.52903
5.47698e-09
5.52902
6.06997e-09
5.529
6.72844e-09
5.52899
7.46877e-09
5.52897
8.29095e-09
5.52894
9.18408e-09
5.52892
1.01791e-08
5.5289
1.12668e-08
5.52887
1.24583e-08
5.52884
1.37716e-08
5.5288
1.51795e-08
5.52877
1.6702e-08
5.52873
1.83663e-08
5.52868
2.01817e-08
5.52864
2.21407e-08
5.52859
2.42471e-08
5.52853
2.64899e-08
5.52847
2.89037e-08
5.5284
3.14867e-08
5.52833
3.43061e-08
5.52825
3.73311e-08
5.52817
4.05998e-08
5.52808
4.41014e-08
5.52798
4.7834e-08
5.52787
5.18503e-08
5.52776
5.61213e-08
5.52764
6.06942e-08
5.5275
6.55491e-08
5.52736
7.07059e-08
5.5272
7.61629e-08
5.52704
8.19819e-08
5.52686
8.81009e-08
5.52667
9.45693e-08
5.52647
1.0139e-07
5.52625
1.08594e-07
5.52601
1.16179e-07
5.52576
1.24179e-07
5.52549
1.32595e-07
5.52521
1.41465e-07
5.5249
1.50772e-07
5.52458
1.60573e-07
5.52423
1.7083e-07
5.52387
1.81584e-07
5.52348
1.92838e-07
5.52306
2.04605e-07
5.52262
2.169e-07
5.52216
2.29784e-07
5.52166
2.43466e-07
5.52114
2.58951e-07
5.52059
2.81116e-07
5.52001
3.33352e-07
5.51939
5.28375e-07
5.51874
1.4092e-06
5.51805
5.59199e-06
5.51732
2.56709e-05
5.51649
0.000122194
5.51535
0.000585402
5.51287
0.00279895
5.50419
0.0133074
5.4664
0.0628475
5.28194
0.31642
1.16482
4.61965
7.81762
0.000402741
7.81764
0.000300841
7.81767
0.000280967
7.81769
0.000286074
7.81772
0.000286457
7.81774
0.000286208
7.81776
0.000286237
7.81779
0.000286281
7.81781
0.00028631
7.81784
0.000286343
7.81786
0.000286352
7.81789
0.000286389
7.81791
0.000286413
7.81794
0.000286439
7.81796
0.000286456
7.81798
0.000286484
7.81801
0.000286509
7.81803
0.000286532
7.81806
0.000286553
7.81808
0.000286574
7.8181
0.000286595
7.81813
0.000286612
7.81815
0.000286632
7.81817
0.000286641
7.8182
0.00028677
7.81822
0.000286651
7.81824
0.000286729
7.81826
0.000286757
7.81829
0.00028676
7.81831
0.000286802
7.81834
0.000286911
7.81837
0.000286851
7.8184
0.00028691
7.81843
0.000286944
7.81845
0.000286976
7.81848
0.000286978
7.81851
0.000287054
7.81853
0.000287095
7.81856
0.000287103
7.81858
0.00028713
7.81861
0.000287145
7.81864
0.00028717
7.81866
0.000287155
7.81869
0.000287129
7.81873
0.000287411
7.81876
0.000286803
7.8188
0.000286876
7.81883
0.000286654
7.81887
0.000286302
7.8189
0.000285792
7.81893
0.00028507
7.81896
0.000284056
7.81899
0.000282749
7.81901
0.000281026
7.81904
0.00027873
7.81907
0.000275894
7.8191
0.000272335
7.81914
0.000268269
7.81917
0.000262719
7.8192
0.00025679
7.81923
0.00024974
7.81926
0.000241688
7.81929
0.000232646
7.81932
0.000222648
7.81934
0.00021176
7.81937
0.000200078
7.81939
0.000187727
7.81941
0.000174857
7.81943
0.000161633
7.81944
0.000148236
7.81946
0.000134848
7.81947
0.00012165
7.81948
0.000108816
7.81949
9.64827e-05
7.8195
8.47933e-05
7.81951
7.38665e-05
7.81952
6.3761e-05
7.81953
5.45398e-05
7.81953
4.62245e-05
7.81954
3.88159e-05
7.81954
3.22938e-05
7.81954
2.66219e-05
7.81954
2.17387e-05
7.81955
1.75883e-05
7.81955
1.40984e-05
7.81955
1.11965e-05
7.81955
8.81157e-06
7.81955
6.86657e-06
7.81955
5.30525e-06
7.81955
4.05965e-06
7.81955
3.08102e-06
7.81955
2.31517e-06
7.81954
1.72447e-06
7.81954
1.27314e-06
7.81954
9.31686e-07
7.81954
6.75889e-07
7.81954
4.86137e-07
7.81954
3.46725e-07
7.81953
2.45283e-07
7.81953
1.72161e-07
7.81953
1.19946e-07
7.81953
8.30014e-08
7.81953
5.7089e-08
7.81952
3.91019e-08
7.81952
2.67046e-08
7.81952
1.82627e-08
7.81951
1.25283e-08
7.81951
8.70114e-09
7.81951
6.15e-09
7.81951
4.49472e-09
7.8195
3.40242e-09
7.8195
2.70666e-09
7.8195
2.24372e-09
7.81949
1.96724e-09
7.81949
1.75169e-09
7.81949
1.61162e-09
7.81948
1.50521e-09
7.81948
1.4752e-09
7.81947
1.36424e-09
7.81947
1.35969e-09
7.81946
1.32422e-09
7.81946
1.63709e-09
7.81945
1.04137e-09
7.81945
1.3697e-09
7.81944
1.47156e-09
7.81944
1.56706e-09
7.81943
1.65619e-09
7.81942
1.77624e-09
7.81941
1.92449e-09
7.81941
2.09002e-09
7.8194
2.27556e-09
7.81939
2.50384e-09
7.81938
2.73394e-09
7.81936
2.99588e-09
7.81935
3.29419e-09
7.81934
3.61797e-09
7.81932
4.01451e-09
7.8193
4.43742e-09
7.81928
4.91491e-09
7.81926
5.45333e-09
7.81924
6.04086e-09
7.81921
6.71207e-09
7.81919
7.44785e-09
7.81916
8.24821e-09
7.81912
9.14133e-09
7.81909
1.01254e-08
7.81905
1.11922e-08
7.819
1.23719e-08
7.81896
1.36379e-08
7.81891
1.5003e-08
7.81885
1.65019e-08
7.81879
1.81244e-08
7.81872
1.98816e-08
7.81865
2.17788e-08
7.81857
2.3796e-08
7.81848
2.5967e-08
7.81839
2.82835e-08
7.81829
3.08191e-08
7.81818
3.35303e-08
7.81806
3.64707e-08
7.81793
3.96149e-08
7.81779
4.29691e-08
7.81764
4.65761e-08
7.81748
5.04042e-08
7.8173
5.45206e-08
7.81712
5.88789e-08
7.81691
6.35109e-08
7.8167
6.84095e-08
7.81646
7.36454e-08
7.81621
7.9136e-08
7.81594
8.49477e-08
7.81565
9.10732e-08
7.81534
9.75442e-08
7.81501
1.0436e-07
7.81465
1.11542e-07
7.81428
1.19107e-07
7.81387
1.2707e-07
7.81344
1.35436e-07
7.81298
1.44239e-07
7.81249
1.53449e-07
7.81198
1.63106e-07
7.81142
1.73219e-07
7.81084
1.83792e-07
7.81022
1.94851e-07
7.80956
2.06487e-07
7.80886
2.19075e-07
7.80812
2.34424e-07
7.80734
2.61298e-07
7.80652
3.41855e-07
7.80564
6.79223e-07
7.80473
2.25179e-06
7.80375
9.77334e-06
7.80271
4.59374e-05
7.80154
0.000219852
7.79995
0.00105462
7.79652
0.00504492
7.78458
0.0240012
7.73286
0.113261
7.48422
0.563688
2.03345
6.61417
34.5086
0.000186232
34.5087
0.000157
34.5088
0.000139131
34.5089
0.000142629
34.509
0.000143578
34.5091
0.000143252
34.5093
0.000143188
34.5094
0.000143205
34.5095
0.000143207
34.5096
0.000143216
34.5097
0.000143199
34.5098
0.000143224
34.5099
0.000143228
34.51
0.000143238
34.5101
0.000143244
34.5102
0.000143254
34.5103
0.000143267
34.5104
0.000143273
34.5105
0.000143284
34.5106
0.000143294
34.5108
0.000143303
34.5109
0.000143311
34.511
0.000143321
34.5111
0.000143329
34.5112
0.00014338
34.5112
0.000143333
34.5113
0.000143366
34.5115
0.00014338
34.5116
0.000143384
34.5117
0.000143405
34.5118
0.000143445
34.5119
0.000143434
34.5121
0.000143456
34.5122
0.000143473
34.5123
0.000143488
34.5124
0.000143496
34.5125
0.000143523
34.5126
0.000143547
34.5127
0.000143552
34.5129
0.000143566
34.513
0.000143574
34.5131
0.000143585
34.5132
0.00014358
34.5134
0.000143574
34.5135
0.000143674
34.5137
0.000143435
34.5138
0.000143441
34.514
0.000143337
34.5141
0.000143165
34.5143
0.000142916
34.5144
0.000142563
34.5145
0.00014207
34.5146
0.00014142
34.5148
0.000140575
34.5149
0.000139447
34.515
0.00013805
34.5152
0.000136297
34.5153
0.000134265
34.5155
0.000131555
34.5156
0.000128602
34.5157
0.000125112
34.5159
0.000121118
34.516
0.00011663
34.5161
0.000111661
34.5162
0.000106246
34.5163
0.00010043
34.5164
9.42747e-05
34.5165
8.78548e-05
34.5166
8.1253e-05
34.5167
7.45583e-05
34.5167
6.78624e-05
34.5168
6.12554e-05
34.5169
5.48247e-05
34.5169
4.864e-05
34.517
4.27729e-05
34.517
3.72833e-05
34.517
3.22034e-05
34.5171
2.7563e-05
34.5171
2.33754e-05
34.5171
1.96413e-05
34.5171
1.63514e-05
34.5171
1.34879e-05
34.5171
1.1021e-05
34.5171
8.92239e-06
34.5171
7.15652e-06
34.5172
5.68707e-06
34.5172
4.4782e-06
34.5172
3.49215e-06
34.5172
2.69963e-06
34.5171
2.0671e-06
34.5171
1.56959e-06
34.5171
1.18021e-06
34.5171
8.79593e-07
34.5171
6.49744e-07
34.5171
4.75749e-07
34.5171
3.45316e-07
34.5171
2.48503e-07
34.5171
1.77325e-07
34.5171
1.25506e-07
34.5171
8.81314e-08
34.5171
6.1425e-08
34.5171
4.2523e-08
34.5171
2.92539e-08
34.517
2.00398e-08
34.517
1.36861e-08
34.517
9.35961e-09
34.517
6.41421e-09
34.517
4.45334e-09
34.517
3.13821e-09
34.517
2.29056e-09
34.517
1.72395e-09
34.5169
1.37152e-09
34.5169
1.13005e-09
34.5169
9.91349e-10
34.5169
8.79936e-10
34.5169
8.12179e-10
34.5169
7.53971e-10
34.5168
7.42602e-10
34.5168
6.76209e-10
34.5168
6.89852e-10
34.5168
6.67569e-10
34.5168
8.21728e-10
34.5167
5.36602e-10
34.5167
6.61203e-10
34.5167
7.28051e-10
34.5167
7.84894e-10
34.5166
8.25366e-10
34.5166
8.86303e-10
34.5166
9.66338e-10
34.5165
1.04183e-09
34.5165
1.13596e-09
34.5164
1.2551e-09
34.5164
1.3647e-09
34.5163
1.49839e-09
34.5163
1.64891e-09
34.5162
1.80444e-09
34.5161
2.00862e-09
34.5161
2.21871e-09
34.516
2.457e-09
34.5159
2.73076e-09
34.5158
3.02225e-09
34.5157
3.35285e-09
34.5156
3.72484e-09
34.5154
4.12501e-09
34.5153
4.57067e-09
34.5151
5.06498e-09
34.5149
5.59612e-09
34.5148
6.18684e-09
34.5145
6.81985e-09
34.5143
7.5047e-09
34.5141
8.25321e-09
34.5138
9.06039e-09
34.5135
9.93987e-09
34.5132
1.08885e-08
34.5128
1.18989e-08
34.5125
1.29853e-08
34.512
1.41385e-08
34.5116
1.54109e-08
34.5111
1.67583e-08
34.5106
1.82345e-08
34.51
1.98174e-08
34.5094
2.14777e-08
34.5087
2.33035e-08
34.508
2.51871e-08
34.5073
2.72707e-08
34.5064
2.94363e-08
34.5055
3.17546e-08
34.5046
3.41838e-08
34.5035
3.68595e-08
34.5024
3.9553e-08
34.5012
4.24775e-08
34.4999
4.55311e-08
34.4986
4.8773e-08
34.4971
5.21786e-08
34.4956
5.57693e-08
34.4939
5.95587e-08
34.4921
6.35337e-08
34.4902
6.77155e-08
34.4882
7.21188e-08
34.486
7.67272e-08
34.4837
8.15512e-08
34.4813
8.66089e-08
34.4787
9.19122e-08
34.476
9.74969e-08
34.4731
1.03595e-07
34.47
1.11223e-07
34.4667
1.25366e-07
34.4633
1.69964e-07
34.4596
3.60427e-07
34.4558
1.2531e-06
34.4517
5.52786e-06
34.4474
2.60968e-05
34.4429
0.000125135
34.4377
0.000601678
34.4309
0.00289031
34.4169
0.0138343
34.3697
0.0656929
34.1713
0.305896
33.3448
1.3842
4.87805
30.4939
34.5086
-9.09495e-13
34.5087
-2.27374e-12
34.5088
-4.54747e-13
34.5089
4.54747e-13
34.509
-4.54747e-13
34.5091
3.18323e-12
34.5092
2.27374e-12
34.5093
4.54747e-13
34.5095
-4.54747e-13
34.5096
-9.09495e-13
34.5097
-4.54747e-13
34.5098
9.09495e-13
34.5099
3.63798e-12
34.51
2.27374e-12
34.5101
4.54747e-13
34.5102
-9.09495e-13
34.5103
3.63798e-12
34.5104
4.54747e-13
34.5105
-9.09495e-13
34.5106
-4.54747e-13
34.5107
3.63798e-12
34.5108
3.63798e-12
34.5109
2.72848e-12
34.511
2.72848e-12
34.5111
4.54747e-13
34.5112
-1.81899e-12
34.5113
4.54747e-13
34.5114
-9.09495e-13
34.5115
4.54747e-13
34.5117
4.54747e-13
34.5118
4.54747e-13
34.5119
-4.54747e-13
34.512
-9.09495e-13
34.5122
4.54747e-13
34.5123
-9.09495e-13
34.5124
9.09495e-13
34.5125
-1.81899e-12
34.5126
2.27374e-12
34.5127
3.18323e-12
34.5128
3.18323e-12
34.513
9.09495e-13
34.5131
0
34.5132
-4.54747e-13
34.5133
-1.81899e-12
34.5135
-2.27374e-12
34.5136
1.36424e-12
34.5138
9.09495e-13
34.514
1.36424e-12
34.5141
5.45697e-12
34.5142
4.09273e-12
34.5144
1.36424e-12
34.5145
9.09495e-13
34.5146
4.54747e-13
34.5148
0
34.5149
1.81899e-12
34.515
-1.36424e-12
34.5151
-2.27374e-12
34.5153
-1.81899e-12
34.5154
0
34.5156
-1.81899e-12
34.5157
-9.09495e-13
34.5159
-4.54747e-13
34.516
9.09495e-13
34.5161
-1.81899e-12
34.5162
0
34.5163
-2.27374e-12
34.5164
1.81899e-12
34.5165
2.27374e-12
34.5166
2.72848e-12
34.5167
2.27374e-12
34.5167
4.54747e-13
34.5168
-2.27374e-12
34.5169
-2.27374e-12
34.5169
-2.72848e-12
34.5169
4.54747e-13
34.517
-4.54747e-13
34.517
2.27374e-12
34.5171
1.36424e-12
34.5171
4.09273e-12
34.5171
-4.54747e-13
34.5171
-4.54747e-13
34.5171
-1.36424e-12
34.5171
0
34.5171
0
34.5171
4.54747e-13
34.5172
0
34.5172
0
34.5172
0
34.5172
3.63798e-12
34.5171
1.36424e-12
34.5171
-4.54747e-13
34.5171
4.54747e-13
34.5171
-1.81899e-12
34.5171
4.54747e-13
34.5171
0
34.5171
4.54747e-13
34.5171
2.72848e-12
34.5171
-4.54747e-13
34.5171
1.36424e-12
34.5171
2.27374e-12
34.5171
0
34.5171
2.72848e-12
34.5171
-4.54747e-13
34.517
-4.54747e-13
34.517
-4.54747e-13
34.517
-1.81899e-12
34.517
9.09495e-13
34.517
-1.36424e-12
34.517
-2.72848e-12
34.517
-4.54747e-13
34.517
4.54747e-13
34.5169
0
34.5169
-4.54747e-13
34.5169
4.09273e-12
34.5169
2.72848e-12
34.5169
-1.36424e-12
34.5169
1.36424e-12
34.5168
1.36424e-12
34.5168
2.27374e-12
34.5168
-4.54747e-13
34.5168
-9.09495e-13
34.5168
9.09495e-13
34.5167
-1.36424e-12
34.5167
-4.54747e-13
34.5167
1.81899e-12
34.5167
-2.27374e-12
34.5166
-1.36424e-12
34.5166
-2.27374e-12
34.5166
-4.54747e-13
34.5165
9.09495e-13
34.5165
0
34.5164
-4.54747e-13
34.5164
9.09495e-13
34.5163
-1.36424e-12
34.5163
-9.09495e-13
34.5162
-3.18323e-12
34.5161
0
34.5161
-4.54747e-13
34.516
1.36424e-12
34.5159
2.72848e-12
34.5158
2.72848e-12
34.5157
-9.09495e-13
34.5156
-2.27374e-12
34.5154
-1.81899e-12
34.5153
2.72848e-12
34.5151
4.54747e-12
34.5149
1.36424e-12
34.5148
2.72848e-12
34.5145
2.72848e-12
34.5143
4.54747e-12
34.5141
-1.36424e-12
34.5138
1.36424e-12
34.5135
-5.00222e-12
34.5132
-2.72848e-12
34.5128
1.36424e-12
34.5125
2.72848e-12
34.512
-5.45697e-12
34.5116
9.09495e-12
34.5111
-2.00089e-11
34.5106
8.18545e-12
34.51
1.00044e-11
34.5094
-6.82121e-12
34.5087
4.09273e-12
34.508
-4.54747e-12
34.5073
-4.54747e-13
34.5064
2.72848e-12
34.5055
-9.09495e-13
34.5046
-3.18323e-12
34.5035
-8.6402e-12
34.5024
1.63709e-11
34.5012
5.00222e-12
34.4999
-7.27596e-12
34.4986
-1.13687e-11
34.4971
-1.81899e-12
34.4956
1.81899e-12
34.4939
5.45697e-12
34.4921
-1.36424e-12
34.4902
-4.54747e-12
34.4882
-1.81899e-12
34.486
-5.00222e-12
34.4837
4.54747e-13
34.4813
5.91172e-12
34.4787
1.95541e-11
34.476
1.08685e-10
34.4731
5.44787e-10
34.47
2.57751e-09
34.4667
1.24351e-08
34.4633
5.97138e-08
34.4596
2.87593e-07
34.4558
1.38703e-06
34.4517
6.68495e-06
34.4474
3.22175e-05
34.4429
0.000155271
34.438
0.000748199
34.4323
0.00360374
34.4236
0.0173358
34.4007
0.0831084
34.3074
0.39342
33.8698
1.81583
6.48794
32.2536
34.5086
-0.000186232
34.5087
-0.000157
34.5088
-0.000139131
34.5089
-0.000142629
34.509
-0.000143578
34.5091
-0.000143252
34.5092
-0.000143188
34.5093
-0.000143205
34.5095
-0.000143207
34.5096
-0.000143216
34.5097
-0.000143199
34.5098
-0.000143224
34.5099
-0.000143228
34.51
-0.000143238
34.5101
-0.000143244
34.5102
-0.000143254
34.5103
-0.000143267
34.5104
-0.000143273
34.5105
-0.000143284
34.5106
-0.000143294
34.5107
-0.000143303
34.5108
-0.000143311
34.5109
-0.000143321
34.511
-0.000143329
34.5111
-0.00014338
34.5112
-0.000143333
34.5113
-0.000143366
34.5114
-0.00014338
34.5115
-0.000143384
34.5117
-0.000143405
34.5118
-0.000143445
34.5119
-0.000143434
34.512
-0.000143456
34.5122
-0.000143473
34.5123
-0.000143488
34.5124
-0.000143496
34.5125
-0.000143523
34.5126
-0.000143547
34.5127
-0.000143552
34.5128
-0.000143566
34.513
-0.000143574
34.5131
-0.000143585
34.5132
-0.00014358
34.5133
-0.000143574
34.5135
-0.000143674
34.5136
-0.000143435
34.5138
-0.000143441
34.514
-0.000143337
34.5141
-0.000143165
34.5142
-0.000142916
34.5144
-0.000142563
34.5145
-0.00014207
34.5146
-0.00014142
34.5148
-0.000140575
34.5149
-0.000139447
34.515
-0.00013805
34.5151
-0.000136297
34.5153
-0.000134265
34.5154
-0.000131555
34.5156
-0.000128602
34.5157
-0.000125112
34.5159
-0.000121118
34.516
-0.00011663
34.5161
-0.000111661
34.5162
-0.000106246
34.5163
-0.00010043
34.5164
-9.42747e-05
34.5165
-8.78548e-05
34.5166
-8.1253e-05
34.5167
-7.45583e-05
34.5167
-6.78624e-05
34.5168
-6.12554e-05
34.5169
-5.48247e-05
34.5169
-4.864e-05
34.5169
-4.27729e-05
34.517
-3.72833e-05
34.517
-3.22034e-05
34.5171
-2.7563e-05
34.5171
-2.33754e-05
34.5171
-1.96413e-05
34.5171
-1.63514e-05
34.5171
-1.34879e-05
34.5171
-1.1021e-05
34.5171
-8.92239e-06
34.5171
-7.15651e-06
34.5172
-5.68707e-06
34.5172
-4.4782e-06
34.5172
-3.49215e-06
34.5172
-2.69963e-06
34.5171
-2.06709e-06
34.5171
-1.5696e-06
34.5171
-1.1802e-06
34.5171
-8.79596e-07
34.5171
-6.49746e-07
34.5171
-4.75749e-07
34.5171
-3.45315e-07
34.5171
-2.48498e-07
34.5171
-1.77327e-07
34.5171
-1.25503e-07
34.5171
-8.81273e-08
34.5171
-6.14241e-08
34.5171
-4.25166e-08
34.5171
-2.92566e-08
34.517
-2.00434e-08
34.517
-1.36856e-08
34.517
-9.36097e-09
34.517
-6.41194e-09
34.517
-4.45516e-09
34.517
-3.14049e-09
34.517
-2.29193e-09
34.517
-1.72622e-09
34.5169
-1.37288e-09
34.5169
-1.13232e-09
34.5169
-9.84073e-10
34.5169
-8.74934e-10
34.5169
-8.14907e-10
34.5169
-7.52152e-10
34.5168
-7.40329e-10
34.5168
-6.72571e-10
34.5168
-6.91216e-10
34.5168
-6.69843e-10
34.5168
-8.19e-10
34.5167
-5.40695e-10
34.5167
-6.63476e-10
34.5167
-7.24413e-10
34.5167
-7.90806e-10
34.5166
-8.29914e-10
34.5166
-8.9085e-10
34.5166
-9.68157e-10
34.5165
-1.0391e-09
34.5165
-1.13914e-09
34.5164
-1.25556e-09
34.5164
-1.36197e-09
34.5163
-1.4993e-09
34.5163
-1.64982e-09
34.5162
-1.80989e-09
34.5161
-2.0068e-09
34.5161
-2.21826e-09
34.516
-2.45564e-09
34.5159
-2.72621e-09
34.5158
-3.01725e-09
34.5157
-3.35285e-09
34.5156
-3.72665e-09
34.5154
-4.12683e-09
34.5153
-4.56384e-09
34.5151
-5.05588e-09
34.5149
-5.59157e-09
34.5148
-6.18002e-09
34.5145
-6.81666e-09
34.5143
-7.4956e-09
34.5141
-8.25139e-09
34.5138
-9.0613e-09
34.5135
-9.94623e-09
34.5132
-1.08948e-08
34.5128
-1.18935e-08
34.5125
-1.29839e-08
34.512
-1.41476e-08
34.5116
-1.54009e-08
34.5111
-1.67856e-08
34.5106
-1.82281e-08
34.51
-1.97965e-08
34.5094
-2.14827e-08
34.5087
-2.33044e-08
34.508
-2.51748e-08
34.5073
-2.72703e-08
34.5064
-2.94526e-08
34.5055
-3.17491e-08
34.5046
-3.42266e-08
34.5035
-3.68163e-08
34.5024
-3.95671e-08
34.5012
-4.24584e-08
34.4999
-4.55384e-08
34.4986
-4.87712e-08
34.4971
-5.21886e-08
34.4956
-5.57757e-08
34.4939
-5.95633e-08
34.4921
-6.35387e-08
34.4902
-6.7721e-08
34.4882
-7.21075e-08
34.486
-7.67332e-08
34.4837
-8.15589e-08
34.4813
-8.66085e-08
34.4787
-9.18758e-08
34.476
-9.73127e-08
34.4731
-1.02721e-07
34.47
-1.07063e-07
34.4667
-1.05234e-07
34.4633
-7.37073e-08
34.4596
1.02848e-07
34.4558
9.82197e-07
34.4517
5.24552e-06
34.4475
2.58284e-05
34.443
0.000125158
34.4384
0.00060486
34.4341
0.00292641
34.432
0.0142114
34.4401
0.0695581
34.4848
0.342923
34.5537
1.74093
5.92862
35.1067
34.5086
-0.000402741
34.5087
-0.000300841
34.5088
-0.000280967
34.5089
-0.000286074
34.509
-0.000286457
34.5091
-0.000286208
34.5093
-0.000286237
34.5094
-0.000286281
34.5095
-0.00028631
34.5096
-0.000286343
34.5097
-0.000286352
34.5098
-0.000286389
34.5099
-0.000286413
34.51
-0.000286439
34.5101
-0.000286456
34.5102
-0.000286484
34.5103
-0.000286509
34.5104
-0.000286532
34.5105
-0.000286553
34.5106
-0.000286574
34.5108
-0.000286595
34.5109
-0.000286612
34.511
-0.000286632
34.5111
-0.000286641
34.5112
-0.00028677
34.5112
-0.000286651
34.5113
-0.000286729
34.5115
-0.000286757
34.5116
-0.00028676
34.5117
-0.000286802
34.5118
-0.000286911
34.5119
-0.000286851
34.5121
-0.00028691
34.5122
-0.000286944
34.5123
-0.000286976
34.5124
-0.000286978
34.5125
-0.000287055
34.5126
-0.000287095
34.5127
-0.000287103
34.5129
-0.00028713
34.513
-0.000287145
34.5131
-0.00028717
34.5132
-0.000287155
34.5134
-0.000287129
34.5135
-0.000287411
34.5137
-0.000286803
34.5138
-0.000286876
34.514
-0.000286654
34.5141
-0.000286302
34.5143
-0.000285792
34.5144
-0.00028507
34.5145
-0.000284056
34.5146
-0.000282749
34.5148
-0.000281026
34.5149
-0.00027873
34.515
-0.000275894
34.5152
-0.000272335
34.5153
-0.000268269
34.5155
-0.000262719
34.5156
-0.00025679
34.5157
-0.00024974
34.5159
-0.000241688
34.516
-0.000232646
34.5161
-0.000222648
34.5162
-0.00021176
34.5163
-0.000200078
34.5164
-0.000187727
34.5165
-0.000174857
34.5166
-0.000161633
34.5167
-0.000148236
34.5167
-0.000134848
34.5168
-0.00012165
34.5169
-0.000108816
34.5169
-9.64827e-05
34.517
-8.47933e-05
34.517
-7.38665e-05
34.517
-6.37609e-05
34.5171
-5.45398e-05
34.5171
-4.62245e-05
34.5171
-3.88159e-05
34.5171
-3.22938e-05
34.5171
-2.66219e-05
34.5171
-2.17387e-05
34.5171
-1.75883e-05
34.5171
-1.40984e-05
34.5172
-1.11965e-05
34.5172
-8.81157e-06
34.5172
-6.86658e-06
34.5172
-5.30524e-06
34.5171
-4.05964e-06
34.5171
-3.08102e-06
34.5171
-2.31516e-06
34.5171
-1.72448e-06
34.5171
-1.27315e-06
34.5171
-9.31688e-07
34.5171
-6.75888e-07
34.5171
-4.86129e-07
34.5171
-3.46726e-07
34.5171
-2.45276e-07
34.5171
-1.72156e-07
34.5171
-1.19942e-07
34.5171
-8.29923e-08
34.5171
-5.70935e-08
34.517
-3.91074e-08
34.517
-2.67019e-08
34.517
-1.82636e-08
34.517
-1.25247e-08
34.517
-8.70295e-09
34.517
-6.15182e-09
34.517
-4.49745e-09
34.517
-3.40606e-09
34.5169
-2.70848e-09
34.5169
-2.25009e-09
34.5169
-1.95723e-09
34.5169
-1.7435e-09
34.5169
-1.6189e-09
34.5169
-1.50794e-09
34.5168
-1.4752e-09
34.5168
-1.3606e-09
34.5168
-1.3606e-09
34.5168
-1.32513e-09
34.5168
-1.63254e-09
34.5167
-1.04774e-09
34.5167
-1.37152e-09
34.5167
-1.46338e-09
34.5167
-1.57524e-09
34.5166
-1.65983e-09
34.5166
-1.7817e-09
34.5166
-1.92813e-09
34.5165
-2.08456e-09
34.5165
-2.28101e-09
34.5164
-2.50475e-09
34.5164
-2.72939e-09
34.5163
-2.9986e-09
34.5163
-3.2951e-09
34.5162
-3.62161e-09
34.5161
-4.01269e-09
34.5161
-4.43561e-09
34.516
-4.91764e-09
34.5159
-5.44969e-09
34.5158
-6.03359e-09
34.5157
-6.71116e-09
34.5156
-7.4524e-09
34.5154
-8.25094e-09
34.5153
-9.13133e-09
34.5151
-1.01109e-08
34.5149
-1.11895e-08
34.5148
-1.23646e-08
34.5145
-1.36324e-08
34.5143
-1.49948e-08
34.5141
-1.64964e-08
34.5138
-1.8128e-08
34.5135
-1.9887e-08
34.5132
-2.17897e-08
34.5128
-2.37933e-08
34.5125
-2.59652e-08
34.512
-2.82871e-08
34.5116
-3.08137e-08
34.5111
-3.35367e-08
34.5106
-3.6468e-08
34.51
-3.96067e-08
34.5094
-4.297e-08
34.5087
-4.6578e-08
34.508
-5.04051e-08
34.5073
-5.45233e-08
34.5064
-5.88825e-08
34.5055
-6.35109e-08
34.5046
-6.8424e-08
34.5035
-7.36363e-08
34.5024
-7.91315e-08
34.5012
-8.49395e-08
34.4999
-9.10768e-08
34.4986
-9.75469e-08
34.4971
-1.04364e-07
34.4956
-1.11549e-07
34.4939
-1.19112e-07
34.4921
-1.27079e-07
34.4902
-1.3544e-07
34.4882
-1.44233e-07
34.486
-1.5345e-07
34.4837
-1.63112e-07
34.4813
-1.7322e-07
34.4787
-1.83778e-07
34.476
-1.94781e-07
34.4731
-2.06173e-07
34.47
-2.17556e-07
34.4667
-2.27111e-07
34.4633
-2.26296e-07
34.4596
-1.72676e-07
34.4558
1.37285e-07
34.4517
1.68217e-06
34.4475
9.18712e-06
34.4431
4.54621e-05
34.4387
0.000220797
34.4356
0.00107079
34.4393
0.0052259
34.4774
0.0260583
34.6781
0.136456
35.4669
0.946027
3.03679
38.3524
7.81762
-0.000460537
7.81764
-0.000328385
7.81767
-0.000315104
7.81769
-0.000318624
7.81772
-0.000318804
7.81774
-0.000318657
7.81776
-0.000318688
7.81779
-0.000318723
7.81781
-0.000318751
7.81784
-0.000318782
7.81786
-0.0003188
7.81789
-0.000318833
7.81791
-0.000318859
7.81794
-0.000318886
7.81796
-0.000318909
7.81798
-0.000318937
7.81801
-0.000318962
7.81803
-0.000318989
7.81806
-0.000319012
7.81808
-0.000319035
7.8181
-0.000319058
7.81813
-0.000319078
7.81815
-0.000319098
7.81817
-0.000319104
7.8182
-0.00031926
7.81822
-0.000319115
7.81824
-0.000319207
7.81826
-0.000319238
7.81829
-0.000319238
7.81831
-0.000319286
7.81834
-0.000319419
7.81837
-0.000319334
7.8184
-0.000319408
7.81843
-0.000319445
7.81845
-0.000319481
7.81848
-0.000319477
7.81851
-0.000319572
7.81853
-0.000319612
7.81856
-0.000319621
7.81858
-0.000319651
7.81861
-0.000319666
7.81864
-0.000319695
7.81866
-0.000319677
7.81869
-0.000319641
7.81873
-0.000319991
7.81876
-0.000319258
7.8188
-0.000319368
7.81883
-0.000319113
7.81887
-0.000318719
7.8189
-0.000318147
7.81893
-0.000317339
7.81896
-0.000316198
7.81899
-0.000314742
7.81901
-0.000312811
7.81904
-0.000310241
7.81907
-0.000307067
7.8191
-0.000303084
7.81914
-0.000298561
7.81917
-0.000292326
7.8192
-0.00028572
7.81923