/*--------------------------------*- C++ -*----------------------------------*\
| =========                 |                                                 |
| \\      /  F ield         | OpenFOAM: The Open Source CFD Toolbox           |
|  \\    /   O peration     | Version:  3.0.x                                 |
|   \\  /    A nd           | Web:      www.OpenFOAM.org                      |
|    \\/     M anipulation  |                                                 |
\*---------------------------------------------------------------------------*/
FoamFile
{
    version     2.0;
    format      ascii;
    class       volScalarField;
    location    "0.41";
    object      T;
}
// * * * * * * * * * * * * * * * * * * * * * * * * * * * * * * * * * * * * * //

dimensions      [0 0 0 1 0 0 0];

internalField   nonuniform List<scalar> 
13800
(
773.144
773.144
773.144
773.144
773.144
773.144
773.144
773.144
773.144
773.144
773.144
773.144
773.144
773.144
773.144
773.144
773.144
773.144
773.144
773.144
773.144
773.144
773.144
773.144
773.144
773.144
773.144
773.144
773.144
773.144
773.144
773.143
773.143
773.142
773.142
773.142
773.142
773.142
773.142
773.142
773.142
773.142
773.142
773.142
773.142
773.141
773.14
773.139
773.139
773.139
773.138
773.138
773.138
773.138
773.138
773.138
773.138
773.138
773.137
773.137
773.136
773.136
773.136
773.136
773.135
773.135
773.135
773.135
773.135
773.135
773.135
773.135
773.135
773.135
773.135
773.135
773.135
773.135
773.135
773.135
773.135
773.135
773.135
773.135
773.135
773.135
773.135
773.135
773.135
773.135
773.135
773.135
773.135
773.135
773.135
773.135
773.135
773.135
773.135
773.135
773.135
773.135
773.135
773.135
773.135
773.135
773.135
773.135
773.135
773.135
773.135
773.135
773.135
773.135
773.135
773.135
773.135
773.135
773.135
773.135
773.135
773.135
773.135
773.135
773.135
773.135
773.135
773.135
773.135
773.135
773.135
773.135
773.135
773.135
773.135
773.135
773.135
773.135
773.135
773.135
773.135
773.135
773.135
773.135
773.136
773.136
773.136
773.136
773.136
773.136
773.136
773.136
773.136
773.136
773.136
773.136
773.136
773.136
773.137
773.137
773.137
773.137
773.137
773.138
773.138
773.138
773.138
773.138
773.139
773.139
773.139
773.14
773.14
773.141
773.141
773.142
773.142
773.143
773.143
773.144
773.145
773.145
773.146
773.147
773.148
773.149
773.15
773.151
773.152
773.153
773.154
773.156
773.157
773.158
773.16
773.162
773.163
773.17
773.174
773.287
773.138
773.138
773.138
773.138
773.138
773.138
773.138
773.138
773.138
773.138
773.138
773.138
773.138
773.138
773.138
773.138
773.138
773.138
773.138
773.138
773.138
773.138
773.138
773.138
773.138
773.138
773.138
773.139
773.139
773.139
773.138
773.138
773.137
773.137
773.137
773.137
773.137
773.137
773.137
773.137
773.137
773.137
773.137
773.137
773.137
773.136
773.135
773.134
773.134
773.134
773.134
773.134
773.134
773.134
773.134
773.134
773.134
773.133
773.133
773.132
773.132
773.132
773.131
773.131
773.131
773.131
773.131
773.131
773.131
773.131
773.131
773.131
773.131
773.131
773.131
773.131
773.131
773.131
773.131
773.131
773.131
773.131
773.131
773.131
773.131
773.131
773.131
773.131
773.131
773.131
773.131
773.131
773.131
773.131
773.131
773.131
773.131
773.131
773.131
773.131
773.131
773.131
773.131
773.131
773.131
773.131
773.131
773.131
773.131
773.131
773.131
773.131
773.131
773.131
773.131
773.131
773.131
773.131
773.131
773.131
773.131
773.131
773.131
773.131
773.131
773.131
773.131
773.131
773.131
773.131
773.131
773.131
773.131
773.131
773.131
773.131
773.131
773.131
773.131
773.131
773.131
773.131
773.131
773.131
773.131
773.131
773.131
773.131
773.131
773.132
773.132
773.132
773.132
773.132
773.132
773.132
773.132
773.132
773.132
773.133
773.133
773.133
773.133
773.133
773.134
773.134
773.134
773.134
773.135
773.135
773.135
773.136
773.136
773.136
773.137
773.137
773.138
773.139
773.139
773.14
773.14
773.141
773.142
773.143
773.144
773.145
773.146
773.147
773.148
773.149
773.15
773.151
773.153
773.154
773.156
773.157
773.159
773.166
773.169
773.299
773.138
773.138
773.138
773.138
773.138
773.138
773.138
773.138
773.138
773.138
773.138
773.138
773.138
773.138
773.138
773.138
773.138
773.138
773.138
773.138
773.138
773.138
773.138
773.138
773.138
773.138
773.138
773.139
773.139
773.139
773.138
773.138
773.137
773.137
773.137
773.137
773.137
773.137
773.137
773.137
773.137
773.137
773.137
773.137
773.137
773.136
773.135
773.134
773.134
773.134
773.134
773.134
773.134
773.134
773.134
773.134
773.134
773.133
773.133
773.132
773.132
773.132
773.131
773.131
773.131
773.131
773.131
773.131
773.131
773.131
773.131
773.131
773.131
773.131
773.131
773.131
773.131
773.131
773.131
773.131
773.131
773.131
773.131
773.131
773.131
773.131
773.131
773.131
773.131
773.131
773.131
773.131
773.131
773.131
773.131
773.131
773.131
773.131
773.131
773.131
773.131
773.131
773.131
773.131
773.131
773.131
773.131
773.131
773.131
773.131
773.131
773.131
773.131
773.131
773.131
773.131
773.131
773.131
773.131
773.131
773.131
773.131
773.131
773.131
773.131
773.131
773.131
773.131
773.131
773.131
773.131
773.131
773.131
773.131
773.131
773.131
773.131
773.131
773.131
773.131
773.131
773.131
773.131
773.131
773.131
773.131
773.131
773.131
773.131
773.132
773.132
773.132
773.132
773.132
773.132
773.132
773.132
773.132
773.132
773.133
773.133
773.133
773.133
773.133
773.133
773.134
773.134
773.134
773.135
773.135
773.135
773.136
773.136
773.136
773.137
773.137
773.138
773.139
773.139
773.14
773.14
773.141
773.142
773.143
773.144
773.145
773.146
773.147
773.148
773.149
773.15
773.151
773.153
773.154
773.156
773.157
773.159
773.166
773.169
773.295
773.138
773.138
773.138
773.138
773.138
773.138
773.138
773.138
773.138
773.138
773.138
773.138
773.138
773.138
773.138
773.138
773.138
773.138
773.138
773.138
773.138
773.138
773.138
773.138
773.138
773.138
773.139
773.139
773.139
773.139
773.138
773.138
773.137
773.137
773.137
773.137
773.137
773.137
773.137
773.137
773.137
773.137
773.137
773.137
773.137
773.136
773.135
773.134
773.134
773.134
773.134
773.134
773.134
773.134
773.134
773.134
773.134
773.133
773.133
773.132
773.132
773.132
773.131
773.131
773.131
773.131
773.131
773.131
773.131
773.131
773.131
773.131
773.131
773.131
773.131
773.131
773.131
773.131
773.131
773.131
773.131
773.131
773.131
773.131
773.131
773.131
773.131
773.131
773.131
773.131
773.131
773.131
773.131
773.131
773.131
773.131
773.131
773.131
773.131
773.131
773.131
773.131
773.131
773.131
773.131
773.131
773.131
773.131
773.131
773.131
773.131
773.131
773.131
773.131
773.131
773.131
773.131
773.131
773.131
773.131
773.131
773.131
773.131
773.131
773.131
773.131
773.131
773.131
773.131
773.131
773.131
773.131
773.131
773.131
773.131
773.131
773.131
773.131
773.131
773.131
773.131
773.131
773.131
773.131
773.131
773.131
773.131
773.131
773.131
773.132
773.132
773.132
773.132
773.132
773.132
773.132
773.132
773.132
773.132
773.133
773.133
773.133
773.133
773.133
773.133
773.134
773.134
773.134
773.135
773.135
773.135
773.136
773.136
773.136
773.137
773.137
773.138
773.139
773.139
773.14
773.14
773.141
773.142
773.143
773.144
773.145
773.146
773.147
773.148
773.149
773.15
773.151
773.153
773.154
773.156
773.157
773.159
773.165
773.168
773.263
773.138
773.138
773.138
773.138
773.138
773.138
773.138
773.138
773.138
773.138
773.138
773.138
773.138
773.138
773.138
773.138
773.138
773.138
773.138
773.138
773.138
773.138
773.138
773.138
773.138
773.138
773.139
773.139
773.139
773.139
773.138
773.138
773.137
773.137
773.137
773.137
773.137
773.137
773.137
773.137
773.137
773.137
773.137
773.137
773.137
773.136
773.135
773.134
773.134
773.134
773.134
773.134
773.134
773.134
773.134
773.134
773.134
773.133
773.133
773.132
773.132
773.132
773.131
773.131
773.131
773.131
773.131
773.131
773.131
773.131
773.131
773.131
773.131
773.131
773.131
773.131
773.131
773.131
773.131
773.131
773.131
773.131
773.131
773.131
773.131
773.131
773.131
773.131
773.131
773.131
773.131
773.131
773.131
773.131
773.131
773.131
773.131
773.131
773.131
773.131
773.131
773.131
773.131
773.131
773.131
773.131
773.131
773.131
773.131
773.131
773.131
773.131
773.131
773.131
773.131
773.131
773.131
773.131
773.131
773.131
773.131
773.131
773.131
773.131
773.131
773.131
773.131
773.131
773.131
773.131
773.131
773.131
773.131
773.131
773.131
773.131
773.131
773.131
773.131
773.131
773.131
773.131
773.131
773.131
773.131
773.131
773.131
773.131
773.131
773.132
773.132
773.132
773.132
773.132
773.132
773.132
773.132
773.132
773.132
773.133
773.133
773.133
773.133
773.133
773.133
773.134
773.134
773.134
773.135
773.135
773.135
773.136
773.136
773.136
773.137
773.137
773.138
773.139
773.139
773.14
773.14
773.141
773.142
773.143
773.144
773.145
773.146
773.147
773.148
773.149
773.15
773.151
773.153
773.154
773.156
773.157
773.159
773.163
773.164
773.226
773.138
773.138
773.138
773.138
773.138
773.138
773.138
773.138
773.138
773.138
773.138
773.138
773.138
773.138
773.138
773.138
773.138
773.138
773.138
773.138
773.138
773.138
773.138
773.138
773.138
773.138
773.139
773.139
773.139
773.139
773.138
773.138
773.137
773.137
773.137
773.137
773.137
773.137
773.137
773.137
773.137
773.137
773.137
773.137
773.137
773.136
773.135
773.134
773.134
773.134
773.134
773.134
773.134
773.134
773.134
773.134
773.134
773.133
773.133
773.132
773.132
773.132
773.131
773.131
773.131
773.131
773.131
773.131
773.131
773.131
773.131
773.131
773.131
773.131
773.131
773.131
773.131
773.131
773.131
773.131
773.131
773.131
773.131
773.131
773.131
773.131
773.131
773.131
773.131
773.131
773.131
773.131
773.131
773.131
773.131
773.131
773.131
773.131
773.131
773.131
773.131
773.131
773.131
773.131
773.131
773.131
773.131
773.131
773.131
773.131
773.131
773.131
773.131
773.131
773.131
773.131
773.131
773.131
773.131
773.131
773.131
773.131
773.131
773.131
773.131
773.131
773.131
773.131
773.131
773.131
773.131
773.131
773.131
773.131
773.131
773.131
773.131
773.131
773.131
773.131
773.131
773.131
773.131
773.131
773.131
773.131
773.131
773.131
773.131
773.132
773.132
773.132
773.132
773.132
773.132
773.132
773.132
773.132
773.132
773.133
773.133
773.133
773.133
773.133
773.133
773.134
773.134
773.134
773.135
773.135
773.135
773.136
773.136
773.136
773.137
773.137
773.138
773.139
773.139
773.14
773.14
773.141
773.142
773.143
773.144
773.145
773.146
773.147
773.148
773.149
773.15
773.151
773.153
773.154
773.156
773.157
773.159
773.16
773.159
773.145
773.138
773.138
773.138
773.138
773.138
773.138
773.138
773.138
773.138
773.138
773.138
773.138
773.138
773.138
773.138
773.138
773.138
773.138
773.138
773.138
773.138
773.138
773.138
773.138
773.138
773.138
773.139
773.139
773.139
773.139
773.138
773.138
773.137
773.137
773.137
773.137
773.137
773.137
773.137
773.137
773.137
773.137
773.137
773.137
773.137
773.136
773.135
773.134
773.134
773.134
773.134
773.134
773.134
773.134
773.134
773.134
773.134
773.133
773.133
773.132
773.132
773.132
773.131
773.131
773.131
773.131
773.131
773.131
773.131
773.131
773.131
773.131
773.131
773.131
773.131
773.131
773.131
773.131
773.131
773.131
773.131
773.131
773.131
773.131
773.131
773.131
773.131
773.131
773.131
773.131
773.131
773.131
773.131
773.131
773.131
773.131
773.131
773.131
773.131
773.131
773.131
773.131
773.131
773.131
773.131
773.131
773.131
773.131
773.131
773.131
773.131
773.131
773.131
773.131
773.131
773.131
773.131
773.131
773.131
773.131
773.131
773.131
773.131
773.131
773.131
773.131
773.131
773.131
773.131
773.131
773.131
773.131
773.131
773.131
773.131
773.131
773.131
773.131
773.131
773.131
773.131
773.131
773.131
773.131
773.131
773.131
773.131
773.131
773.131
773.132
773.132
773.132
773.132
773.132
773.132
773.132
773.132
773.132
773.132
773.133
773.133
773.133
773.133
773.133
773.133
773.134
773.134
773.134
773.135
773.135
773.135
773.136
773.136
773.136
773.137
773.137
773.138
773.139
773.139
773.14
773.14
773.141
773.142
773.143
773.144
773.145
773.146
773.147
773.148
773.149
773.15
773.151
773.153
773.154
773.156
773.157
773.159
773.155
773.155
773.037
773.138
773.138
773.138
773.138
773.138
773.138
773.138
773.138
773.138
773.138
773.138
773.138
773.138
773.138
773.138
773.138
773.138
773.138
773.138
773.138
773.138
773.138
773.138
773.138
773.138
773.138
773.138
773.139
773.139
773.139
773.138
773.138
773.137
773.137
773.137
773.137
773.137
773.137
773.137
773.137
773.137
773.137
773.137
773.137
773.137
773.136
773.135
773.134
773.134
773.134
773.134
773.134
773.134
773.134
773.134
773.134
773.134
773.133
773.133
773.132
773.132
773.132
773.131
773.131
773.131
773.131
773.131
773.131
773.131
773.131
773.131
773.131
773.131
773.131
773.131
773.131
773.131
773.131
773.131
773.131
773.131
773.131
773.131
773.131
773.131
773.131
773.131
773.131
773.131
773.131
773.131
773.131
773.131
773.131
773.131
773.131
773.131
773.131
773.131
773.131
773.131
773.131
773.131
773.131
773.131
773.131
773.131
773.131
773.131
773.131
773.131
773.131
773.131
773.131
773.131
773.131
773.131
773.131
773.131
773.131
773.131
773.131
773.131
773.131
773.131
773.131
773.131
773.131
773.131
773.131
773.131
773.131
773.131
773.131
773.131
773.131
773.131
773.131
773.131
773.131
773.131
773.131
773.131
773.131
773.131
773.131
773.131
773.131
773.131
773.132
773.132
773.132
773.132
773.132
773.132
773.132
773.132
773.132
773.132
773.133
773.133
773.133
773.133
773.133
773.133
773.134
773.134
773.134
773.135
773.135
773.135
773.136
773.136
773.136
773.137
773.137
773.138
773.139
773.139
773.14
773.14
773.141
773.142
773.143
773.144
773.145
773.146
773.147
773.148
773.149
773.15
773.151
773.153
773.154
773.156
773.157
773.159
773.153
773.166
772.882
773.138
773.138
773.138
773.138
773.138
773.138
773.138
773.138
773.138
773.138
773.138
773.138
773.138
773.138
773.138
773.138
773.138
773.138
773.138
773.138
773.138
773.138
773.138
773.138
773.138
773.138
773.138
773.139
773.139
773.139
773.138
773.138
773.137
773.137
773.137
773.137
773.137
773.137
773.137
773.137
773.137
773.137
773.137
773.137
773.137
773.136
773.135
773.134
773.134
773.134
773.134
773.134
773.134
773.134
773.134
773.134
773.134
773.133
773.133
773.132
773.132
773.132
773.131
773.131
773.131
773.131
773.131
773.131
773.131
773.131
773.131
773.131
773.131
773.131
773.131
773.131
773.131
773.131
773.131
773.131
773.131
773.131
773.131
773.131
773.131
773.131
773.131
773.131
773.131
773.131
773.131
773.131
773.131
773.131
773.131
773.131
773.131
773.131
773.131
773.131
773.131
773.131
773.131
773.131
773.131
773.131
773.131
773.131
773.131
773.131
773.131
773.131
773.131
773.131
773.131
773.131
773.131
773.131
773.131
773.131
773.131
773.131
773.131
773.131
773.131
773.131
773.131
773.131
773.131
773.131
773.131
773.131
773.131
773.131
773.131
773.131
773.131
773.131
773.131
773.131
773.131
773.131
773.131
773.131
773.131
773.131
773.131
773.131
773.131
773.132
773.132
773.132
773.132
773.132
773.132
773.132
773.132
773.132
773.132
773.133
773.133
773.133
773.133
773.133
773.134
773.134
773.134
773.134
773.135
773.135
773.135
773.136
773.136
773.136
773.137
773.137
773.138
773.139
773.139
773.14
773.14
773.141
773.142
773.143
773.144
773.145
773.146
773.147
773.148
773.149
773.15
773.151
773.153
773.154
773.156
773.157
773.159
773.152
773.174
772.806
773.144
773.144
773.144
773.144
773.144
773.144
773.144
773.144
773.144
773.144
773.144
773.144
773.144
773.144
773.144
773.144
773.144
773.144
773.144
773.144
773.144
773.144
773.144
773.144
773.144
773.144
773.144
773.144
773.144
773.144
773.144
773.143
773.143
773.142
773.142
773.142
773.142
773.142
773.142
773.142
773.142
773.142
773.142
773.142
773.142
773.141
773.14
773.139
773.139
773.139
773.138
773.138
773.138
773.138
773.138
773.138
773.138
773.138
773.137
773.137
773.136
773.136
773.136
773.136
773.135
773.135
773.135
773.135
773.135
773.135
773.135
773.135
773.135
773.135
773.135
773.135
773.135
773.135
773.135
773.135
773.135
773.135
773.135
773.135
773.135
773.135
773.135
773.135
773.135
773.135
773.135
773.135
773.135
773.135
773.135
773.135
773.135
773.135
773.135
773.135
773.135
773.135
773.135
773.135
773.135
773.135
773.135
773.135
773.135
773.135
773.135
773.135
773.135
773.135
773.135
773.135
773.135
773.135
773.135
773.135
773.135
773.135
773.135
773.135
773.135
773.135
773.135
773.135
773.135
773.135
773.135
773.135
773.135
773.135
773.135
773.135
773.135
773.135
773.135
773.135
773.135
773.135
773.135
773.135
773.136
773.136
773.136
773.136
773.136
773.136
773.136
773.136
773.136
773.136
773.136
773.136
773.136
773.136
773.137
773.137
773.137
773.137
773.137
773.138
773.138
773.138
773.138
773.138
773.139
773.139
773.139
773.14
773.14
773.141
773.141
773.142
773.142
773.143
773.143
773.144
773.145
773.145
773.146
773.147
773.148
773.149
773.15
773.151
773.152
773.153
773.154
773.156
773.157
773.158
773.16
773.161
773.163
773.155
773.186
772.734
773.267
773.287
773.3
773.305
773.308
773.31
773.312
773.313
773.314
773.315
773.315
773.316
773.316
773.315
773.313
773.31
773.306
773.299
773.286
773.262
773.263
773.276
773.285
773.287
773.288
773.289
773.29
773.29
773.29
773.29
773.29
773.289
773.289
773.287
773.286
773.282
773.278
773.271
773.259
773.237
773.261
773.276
773.286
773.288
773.29
773.292
773.293
773.294
773.294
773.294
773.294
773.294
773.292
773.291
773.288
773.283
773.277
773.268
773.255
773.234
773.237
773.245
773.248
773.249
773.25
773.251
773.253
773.254
773.256
773.258
773.26
773.262
773.265
773.267
773.268
773.269
773.267
773.263
773.253
773.24
773.209
773.218
773.226
773.232
773.236
773.239
773.24
773.239
773.238
773.235
773.231
773.226
773.219
773.212
773.205
773.197
773.189
773.182
773.176
773.171
773.154
773.15
773.143
773.137
773.133
773.131
773.131
773.133
773.135
773.14
773.146
773.153
773.163
773.173
773.183
773.193
773.204
773.212
773.222
773.225
773.086
773.081
773.081
773.083
773.084
773.081
773.08
773.075
773.07
773.061
773.054
773.043
773.034
773.024
773.016
773.008
773.007
773.01
773.02
773.028
772.995
772.972
772.95
772.937
772.93
772.927
772.926
772.927
772.931
772.938
772.948
772.959
772.974
772.99
773.008
773.026
773.052
773.07
773.103
773.13
772.936
772.912
772.889
772.872
772.861
772.85
772.843
772.836
772.832
772.828
772.828
772.83
772.835
772.842
772.852
772.864
772.879
772.903
772.934
772.974
772.903
772.869
772.83
772.815
772.803
772.803
772.807
772.812
772.821
772.835
772.848
772.868
772.885
772.91
772.932
772.957
772.985
773.018
773.06
773.106
773.193
773.172
773.167
773.168
773.169
773.171
773.173
773.176
773.179
773.181
773.184
773.186
773.189
773.191
773.194
773.197
773.2
773.203
773.207
773.21
773.214
773.217
773.221
773.225
773.228
773.232
773.236
773.24
773.244
773.249
773.253
773.257
773.262
773.267
773.271
773.276
773.281
773.286
773.291
773.296
773.301
773.307
773.313
773.319
773.325
773.331
773.337
773.343
773.349
773.356
773.362
773.369
773.375
773.382
773.389
773.396
773.404
773.411
773.418
773.426
773.433
773.441
773.449
773.457
773.465
773.473
773.481
773.488
773.495
773.501
773.507
773.515
773.523
773.531
773.539
773.546
773.556
773.574
773.618
773.759
774.225
775.108
775.973
776.714
777.272
777.629
777.803
777.844
777.809
777.543
776.674
775.643
774.82
774.22
773.829
773.608
773.509
773.484
773.488
773.529
773.62
773.698
773.758
773.803
773.837
773.864
773.886
773.905
773.922
773.937
773.953
773.968
773.983
773.998
774.012
774.027
774.042
774.057
774.072
774.087
774.103
774.118
774.134
774.149
774.165
774.181
774.197
774.213
774.23
774.246
774.263
774.279
774.296
774.313
774.33
774.347
774.365
774.382
774.4
774.418
774.436
774.454
774.472
774.49
774.508
774.527
774.546
774.564
774.583
774.602
774.622
774.641
774.66
774.68
774.7
774.72
774.74
774.76
774.78
774.8
774.821
774.841
774.862
774.883
774.904
774.925
774.947
774.968
774.989
775.011
775.033
775.055
775.077
775.099
775.121
775.143
775.166
775.189
775.211
775.234
775.257
775.28
775.303
775.327
775.35
775.373
775.398
775.42
775.447
775.467
775.496
775.515
775.545
775.563
775.595
775.611
775.645
775.658
775.706
775.51
773.176
773.157
773.152
773.153
773.154
773.156
773.158
773.161
773.164
773.166
773.169
773.171
773.174
773.176
773.179
773.182
773.185
773.188
773.191
773.195
773.198
773.202
773.206
773.209
773.213
773.217
773.221
773.225
773.229
773.233
773.238
773.242
773.246
773.251
773.256
773.26
773.265
773.27
773.275
773.28
773.286
773.291
773.297
773.303
773.309
773.315
773.321
773.327
773.334
773.34
773.346
773.353
773.359
773.366
773.373
773.38
773.387
773.395
773.402
773.41
773.418
773.426
773.433
773.441
773.45
773.458
773.466
773.474
773.482
773.49
773.498
773.507
773.516
773.524
773.53
773.533
773.532
773.527
773.516
773.512
773.512
773.513
773.518
773.534
773.586
773.723
773.882
774.016
774.114
774.174
774.197
774.197
774.167
774.056
773.93
773.841
773.787
773.765
773.76
773.762
773.77
773.791
773.814
773.835
773.854
773.872
773.888
773.904
773.919
773.934
773.949
773.964
773.979
773.993
774.008
774.023
774.038
774.053
774.068
774.083
774.099
774.114
774.13
774.145
774.161
774.177
774.193
774.209
774.225
774.242
774.258
774.275
774.292
774.309
774.326
774.343
774.361
774.378
774.396
774.413
774.431
774.449
774.468
774.486
774.504
774.523
774.541
774.56
774.579
774.598
774.618
774.637
774.656
774.676
774.696
774.715
774.735
774.756
774.776
774.796
774.817
774.837
774.858
774.879
774.9
774.921
774.942
774.964
774.985
775.007
775.029
775.051
775.073
775.095
775.117
775.139
775.162
775.184
775.207
775.23
775.253
775.276
775.299
775.323
775.346
775.369
775.394
775.416
775.443
775.463
775.492
775.511
775.541
775.559
775.591
775.607
775.64
775.654
775.699
775.542
773.178
773.16
773.156
773.156
773.157
773.159
773.161
773.164
773.167
773.169
773.172
773.174
773.177
773.179
773.182
773.185
773.188
773.191
773.194
773.198
773.201
773.205
773.209
773.212
773.216
773.22
773.224
773.228
773.232
773.236
773.24
773.245
773.249
773.254
773.259
773.263
773.268
773.273
773.278
773.283
773.289
773.294
773.3
773.306
773.312
773.318
773.324
773.33
773.336
773.343
773.349
773.356
773.362
773.369
773.376
773.383
773.39
773.398
773.405
773.413
773.42
773.428
773.436
773.444
773.453
773.461
773.469
773.478
773.486
773.494
773.502
773.51
773.519
773.528
773.537
773.546
773.551
773.551
773.541
773.496
773.426
773.367
773.327
773.308
773.304
773.305
773.313
773.343
773.433
773.551
773.653
773.732
773.785
773.819
773.837
773.844
773.845
773.839
773.829
773.828
773.829
773.833
773.841
773.852
773.865
773.878
773.892
773.906
773.921
773.935
773.95
773.964
773.979
773.994
774.008
774.023
774.038
774.053
774.068
774.083
774.099
774.114
774.13
774.145
774.161
774.177
774.193
774.209
774.225
774.242
774.258
774.275
774.292
774.309
774.326
774.343
774.361
774.378
774.396
774.413
774.431
774.449
774.468
774.486
774.504
774.523
774.541
774.56
774.579
774.598
774.617
774.637
774.656
774.676
774.696
774.715
774.735
774.756
774.776
774.796
774.817
774.837
774.858
774.879
774.9
774.921
774.942
774.964
774.985
775.007
775.029
775.051
775.073
775.095
775.117
775.139
775.162
775.184
775.207
775.23
775.253
775.276
775.299
775.323
775.346
775.369
775.394
775.416
775.443
775.463
775.492
775.511
775.541
775.559
775.591
775.607
775.64
775.654
775.694
775.586
773.202
773.189
773.189
773.19
773.192
773.195
773.197
773.2
773.202
773.205
773.208
773.211
773.213
773.216
773.219
773.221
773.224
773.228
773.231
773.234
773.237
773.241
773.245
773.248
773.252
773.256
773.26
773.264
773.268
773.272
773.277
773.281
773.286
773.29
773.295
773.3
773.305
773.31
773.315
773.32
773.325
773.33
773.336
773.342
773.348
773.354
773.36
773.366
773.373
773.379
773.385
773.392
773.398
773.405
773.412
773.419
773.426
773.434
773.441
773.449
773.456
773.464
773.471
773.479
773.487
773.495
773.502
773.509
773.516
773.524
773.531
773.539
773.548
773.557
773.566
773.573
773.575
773.572
773.55
773.494
773.437
773.392
773.364
773.353
773.352
773.354
773.363
773.393
773.463
773.537
773.603
773.657
773.698
773.728
773.751
773.768
773.781
773.792
773.801
773.81
773.82
773.831
773.842
773.855
773.868
773.881
773.895
773.909
773.923
773.937
773.951
773.966
773.98
773.994
774.009
774.024
774.038
774.053
774.068
774.083
774.099
774.114
774.13
774.145
774.161
774.177
774.193
774.209
774.225
774.242
774.258
774.275
774.292
774.309
774.326
774.343
774.361
774.378
774.396
774.413
774.431
774.449
774.468
774.486
774.504
774.523
774.541
774.56
774.579
774.598
774.617
774.637
774.656
774.676
774.696
774.715
774.735
774.756
774.776
774.796
774.817
774.837
774.858
774.879
774.9
774.921
774.942
774.964
774.985
775.007
775.029
775.051
775.073
775.095
775.117
775.139
775.162
775.184
775.207
775.23
775.253
775.276
775.299
775.323
775.346
775.369
775.394
775.416
775.442
775.464
775.49
775.512
775.539
775.56
775.59
775.607
775.64
775.655
775.688
775.666
773.157
773.154
773.151
773.15
773.15
773.151
773.153
773.155
773.157
773.159
773.162
773.165
773.168
773.17
773.173
773.176
773.179
773.182
773.185
773.189
773.192
773.196
773.199
773.203
773.207
773.211
773.215
773.219
773.223
773.227
773.231
773.236
773.24
773.245
773.25
773.254
773.259
773.264
773.269
773.275
773.28
773.285
773.291
773.297
773.302
773.308
773.315
773.321
773.327
773.334
773.34
773.347
773.353
773.36
773.367
773.374
773.382
773.389
773.397
773.404
773.412
773.42
773.428
773.437
773.445
773.454
773.463
773.472
773.481
773.49
773.499
773.509
773.519
773.528
773.538
773.548
773.558
773.566
773.569
773.568
773.556
773.526
773.5
773.487
773.485
773.486
773.49
773.498
773.518
773.554
773.592
773.629
773.662
773.69
773.715
773.736
773.754
773.771
773.786
773.801
773.815
773.829
773.842
773.856
773.869
773.883
773.896
773.91
773.924
773.938
773.952
773.966
773.98
773.995
774.009
774.024
774.039
774.053
774.068
774.084
774.099
774.114
774.13
774.145
774.161
774.177
774.193
774.209
774.225
774.242
774.258
774.275
774.292
774.309
774.326
774.343
774.361
774.378
774.396
774.413
774.431
774.449
774.468
774.486
774.504
774.523
774.541
774.56
774.579
774.598
774.617
774.637
774.656
774.676
774.696
774.715
774.735
774.756
774.776
774.796
774.817
774.837
774.858
774.879
774.9
774.921
774.942
774.964
774.985
775.007
775.029
775.051
775.073
775.095
775.117
775.139
775.162
775.184
775.207
775.23
775.253
775.276
775.299
775.323
775.346
775.37
775.393
775.417
775.44
775.466
775.488
775.514
775.538
775.561
775.587
775.612
775.634
775.663
775.682
775.707
773.237
773.246
773.253
773.259
773.264
773.267
773.27
773.273
773.275
773.278
773.28
773.283
773.286
773.289
773.292
773.295
773.298
773.301
773.304
773.307
773.311
773.314
773.318
773.321
773.325
773.329
773.333
773.337
773.341
773.345
773.35
773.354
773.359
773.363
773.368
773.373
773.377
773.382
773.388
773.393
773.398
773.403
773.409
773.414
773.42
773.426
773.432
773.438
773.444
773.45
773.456
773.462
773.468
773.474
773.48
773.486
773.493
773.499
773.505
773.512
773.518
773.524
773.53
773.536
773.541
773.547
773.553
773.559
773.566
773.574
773.582
773.591
773.599
773.605
773.607
773.605
773.591
773.564
773.541
773.522
773.507
773.499
773.498
773.5
773.503
773.509
773.52
773.543
773.573
773.605
773.636
773.664
773.689
773.711
773.731
773.749
773.765
773.78
773.794
773.808
773.821
773.835
773.848
773.861
773.873
773.886
773.9
773.913
773.926
773.94
773.953
773.967
773.981
773.996
774.01
774.024
774.039
774.054
774.069
774.084
774.099
774.114
774.13
774.145
774.161
774.177
774.193
774.209
774.225
774.242
774.258
774.275
774.292
774.309
774.326
774.343
774.361
774.378
774.396
774.413
774.431
774.449
774.468
774.486
774.504
774.523
774.541
774.56
774.579
774.598
774.617
774.637
774.656
774.676
774.696
774.715
774.735
774.756
774.776
774.796
774.817
774.837
774.858
774.879
774.9
774.921
774.942
774.964
774.985
775.007
775.029
775.051
775.073
775.095
775.117
775.139
775.162
775.184
775.207
775.23
775.253
775.276
775.299
775.323
775.346
775.37
775.393
775.418
775.44
775.467
775.487
775.516
775.535
775.565
775.583
775.615
775.633
775.666
775.685
775.732
773.075
773.089
773.093
773.094
773.095
773.097
773.099
773.101
773.104
773.106
773.109
773.111
773.114
773.117
773.12
773.123
773.126
773.129
773.132
773.136
773.139
773.142
773.146
773.149
773.153
773.157
773.161
773.165
773.169
773.174
773.178
773.182
773.187
773.191
773.196
773.201
773.206
773.211
773.216
773.222
773.227
773.232
773.238
773.244
773.25
773.256
773.262
773.268
773.274
773.281
773.287
773.294
773.3
773.307
773.314
773.321
773.328
773.335
773.343
773.351
773.359
773.367
773.375
773.383
773.392
773.401
773.409
773.418
773.427
773.436
773.446
773.456
773.467
773.477
773.486
773.495
773.507
773.521
773.536
773.551
773.565
773.577
773.583
773.584
773.579
773.558
773.545
773.543
773.544
773.549
773.564
773.598
773.635
773.67
773.701
773.727
773.75
773.77
773.787
773.803
773.819
773.833
773.847
773.86
773.873
773.887
773.9
773.913
773.926
773.94
773.954
773.968
773.982
773.996
774.01
774.024
774.039
774.054
774.069
774.084
774.099
774.114
774.13
774.145
774.161
774.177
774.193
774.209
774.225
774.242
774.258
774.275
774.292
774.309
774.326
774.343
774.361
774.378
774.396
774.413
774.431
774.449
774.468
774.486
774.504
774.523
774.541
774.56
774.579
774.598
774.617
774.637
774.656
774.676
774.696
774.715
774.735
774.756
774.776
774.796
774.817
774.837
774.858
774.879
774.9
774.921
774.942
774.964
774.985
775.007
775.029
775.051
775.073
775.095
775.117
775.139
775.162
775.184
775.207
775.23
775.253
775.276
775.299
775.323
775.346
775.37
775.393
775.418
775.44
775.467
775.487
775.516
775.535
775.565
775.584
775.615
775.633
775.668
775.688
775.744
773.226
773.248
773.255
773.259
773.262
773.264
773.267
773.269
773.271
773.274
773.276
773.279
773.281
773.284
773.287
773.291
773.294
773.297
773.3
773.303
773.306
773.31
773.313
773.317
773.32
773.324
773.328
773.333
773.337
773.341
773.345
773.35
773.354
773.359
773.363
773.368
773.373
773.378
773.383
773.388
773.393
773.397
773.403
773.408
773.414
773.419
773.425
773.432
773.438
773.445
773.452
773.458
773.465
773.472
773.479
773.485
773.492
773.499
773.506
773.513
773.52
773.525
773.531
773.536
773.542
773.549
773.556
773.564
773.573
773.584