/*--------------------------------*- C++ -*----------------------------------*\
| =========                 |                                                 |
| \\      /  F ield         | OpenFOAM: The Open Source CFD Toolbox           |
|  \\    /   O peration     | Version:  3.0.x                                 |
|   \\  /    A nd           | Web:      www.OpenFOAM.org                      |
|    \\/     M anipulation  |                                                 |
\*---------------------------------------------------------------------------*/
FoamFile
{
    version     2.0;
    format      ascii;
    class       volScalarField;
    location    "0.51";
    object      p;
}
// * * * * * * * * * * * * * * * * * * * * * * * * * * * * * * * * * * * * * //

dimensions      [1 -1 -2 0 0 0 0];

internalField   nonuniform List<scalar> 
13800
(
1.81026e+07
1.81028e+07
1.8103e+07
1.81034e+07
1.81037e+07
1.81041e+07
1.81046e+07
1.81051e+07
1.81056e+07
1.81062e+07
1.81069e+07
1.81076e+07
1.81083e+07
1.81091e+07
1.81099e+07
1.81108e+07
1.81118e+07
1.81128e+07
1.81138e+07
1.81149e+07
1.8116e+07
1.81172e+07
1.81184e+07
1.81197e+07
1.8121e+07
1.81224e+07
1.81238e+07
1.81253e+07
1.81268e+07
1.81284e+07
1.813e+07
1.81317e+07
1.81334e+07
1.81351e+07
1.8137e+07
1.81388e+07
1.81407e+07
1.81427e+07
1.81447e+07
1.81467e+07
1.81488e+07
1.81509e+07
1.81531e+07
1.81553e+07
1.81576e+07
1.81599e+07
1.81623e+07
1.81647e+07
1.81672e+07
1.81697e+07
1.81722e+07
1.81748e+07
1.81775e+07
1.81801e+07
1.81829e+07
1.81856e+07
1.81885e+07
1.81913e+07
1.81942e+07
1.81972e+07
1.82002e+07
1.82032e+07
1.82063e+07
1.82094e+07
1.82126e+07
1.82158e+07
1.8219e+07
1.82223e+07
1.82256e+07
1.8229e+07
1.82324e+07
1.82359e+07
1.82394e+07
1.82429e+07
1.82465e+07
1.82501e+07
1.82538e+07
1.82575e+07
1.82612e+07
1.8265e+07
1.82688e+07
1.82726e+07
1.82765e+07
1.82804e+07
1.82844e+07
1.82884e+07
1.82924e+07
1.82965e+07
1.83006e+07
1.83048e+07
1.8309e+07
1.83132e+07
1.83174e+07
1.83217e+07
1.83261e+07
1.83304e+07
1.83348e+07
1.83393e+07
1.83437e+07
1.83482e+07
1.83527e+07
1.83573e+07
1.83619e+07
1.83665e+07
1.83712e+07
1.83759e+07
1.83806e+07
1.83854e+07
1.83902e+07
1.8395e+07
1.83998e+07
1.84047e+07
1.84096e+07
1.84145e+07
1.84195e+07
1.84245e+07
1.84295e+07
1.84346e+07
1.84397e+07
1.84448e+07
1.84499e+07
1.84551e+07
1.84602e+07
1.84654e+07
1.84707e+07
1.84759e+07
1.84812e+07
1.84865e+07
1.84919e+07
1.84972e+07
1.85026e+07
1.8508e+07
1.85134e+07
1.85189e+07
1.85243e+07
1.85298e+07
1.85353e+07
1.85408e+07
1.85464e+07
1.85519e+07
1.85575e+07
1.85631e+07
1.85687e+07
1.85744e+07
1.858e+07
1.85857e+07
1.85914e+07
1.85971e+07
1.86028e+07
1.86085e+07
1.86142e+07
1.862e+07
1.86257e+07
1.86315e+07
1.86373e+07
1.86431e+07
1.86489e+07
1.86547e+07
1.86605e+07
1.86663e+07
1.86722e+07
1.8678e+07
1.86839e+07
1.86897e+07
1.86956e+07
1.87015e+07
1.87074e+07
1.87132e+07
1.87191e+07
1.8725e+07
1.87309e+07
1.87368e+07
1.87427e+07
1.87486e+07
1.87545e+07
1.87604e+07
1.87663e+07
1.87722e+07
1.87781e+07
1.87839e+07
1.87898e+07
1.87957e+07
1.88016e+07
1.88075e+07
1.88133e+07
1.88192e+07
1.8825e+07
1.88309e+07
1.88367e+07
1.88426e+07
1.88484e+07
1.88542e+07
1.886e+07
1.88658e+07
1.88716e+07
1.88774e+07
1.88832e+07
1.88889e+07
1.88948e+07
1.89005e+07
1.81026e+07
1.81028e+07
1.8103e+07
1.81034e+07
1.81037e+07
1.81041e+07
1.81046e+07
1.81051e+07
1.81056e+07
1.81062e+07
1.81069e+07
1.81076e+07
1.81083e+07
1.81091e+07
1.81099e+07
1.81108e+07
1.81118e+07
1.81128e+07
1.81138e+07
1.81149e+07
1.8116e+07
1.81172e+07
1.81184e+07
1.81197e+07
1.8121e+07
1.81224e+07
1.81238e+07
1.81253e+07
1.81268e+07
1.81284e+07
1.813e+07
1.81317e+07
1.81334e+07
1.81351e+07
1.8137e+07
1.81388e+07
1.81407e+07
1.81427e+07
1.81447e+07
1.81467e+07
1.81488e+07
1.81509e+07
1.81531e+07
1.81553e+07
1.81576e+07
1.81599e+07
1.81623e+07
1.81647e+07
1.81672e+07
1.81697e+07
1.81722e+07
1.81748e+07
1.81775e+07
1.81801e+07
1.81829e+07
1.81856e+07
1.81885e+07
1.81913e+07
1.81942e+07
1.81972e+07
1.82002e+07
1.82032e+07
1.82063e+07
1.82094e+07
1.82126e+07
1.82158e+07
1.8219e+07
1.82223e+07
1.82256e+07
1.8229e+07
1.82324e+07
1.82359e+07
1.82394e+07
1.82429e+07
1.82465e+07
1.82501e+07
1.82538e+07
1.82575e+07
1.82612e+07
1.8265e+07
1.82688e+07
1.82726e+07
1.82765e+07
1.82804e+07
1.82844e+07
1.82884e+07
1.82924e+07
1.82965e+07
1.83006e+07
1.83048e+07
1.8309e+07
1.83132e+07
1.83174e+07
1.83217e+07
1.83261e+07
1.83304e+07
1.83348e+07
1.83393e+07
1.83437e+07
1.83482e+07
1.83527e+07
1.83573e+07
1.83619e+07
1.83665e+07
1.83712e+07
1.83759e+07
1.83806e+07
1.83854e+07
1.83902e+07
1.8395e+07
1.83998e+07
1.84047e+07
1.84096e+07
1.84145e+07
1.84195e+07
1.84245e+07
1.84295e+07
1.84346e+07
1.84397e+07
1.84448e+07
1.84499e+07
1.84551e+07
1.84602e+07
1.84654e+07
1.84707e+07
1.84759e+07
1.84812e+07
1.84865e+07
1.84919e+07
1.84972e+07
1.85026e+07
1.8508e+07
1.85134e+07
1.85189e+07
1.85243e+07
1.85298e+07
1.85353e+07
1.85408e+07
1.85464e+07
1.85519e+07
1.85575e+07
1.85631e+07
1.85687e+07
1.85744e+07
1.858e+07
1.85857e+07
1.85914e+07
1.85971e+07
1.86028e+07
1.86085e+07
1.86142e+07
1.862e+07
1.86257e+07
1.86315e+07
1.86373e+07
1.86431e+07
1.86489e+07
1.86547e+07
1.86605e+07
1.86663e+07
1.86722e+07
1.8678e+07
1.86839e+07
1.86897e+07
1.86956e+07
1.87015e+07
1.87074e+07
1.87132e+07
1.87191e+07
1.8725e+07
1.87309e+07
1.87368e+07
1.87427e+07
1.87486e+07
1.87545e+07
1.87604e+07
1.87663e+07
1.87722e+07
1.87781e+07
1.87839e+07
1.87898e+07
1.87957e+07
1.88016e+07
1.88075e+07
1.88133e+07
1.88192e+07
1.8825e+07
1.88309e+07
1.88367e+07
1.88426e+07
1.88484e+07
1.88542e+07
1.886e+07
1.88658e+07
1.88716e+07
1.88774e+07
1.88832e+07
1.88889e+07
1.88948e+07
1.89005e+07
1.81026e+07
1.81028e+07
1.8103e+07
1.81034e+07
1.81037e+07
1.81041e+07
1.81046e+07
1.81051e+07
1.81056e+07
1.81062e+07
1.81069e+07
1.81076e+07
1.81083e+07
1.81091e+07
1.81099e+07
1.81108e+07
1.81118e+07
1.81128e+07
1.81138e+07
1.81149e+07
1.8116e+07
1.81172e+07
1.81184e+07
1.81197e+07
1.8121e+07
1.81224e+07
1.81238e+07
1.81253e+07
1.81268e+07
1.81284e+07
1.813e+07
1.81317e+07
1.81334e+07
1.81351e+07
1.8137e+07
1.81388e+07
1.81407e+07
1.81427e+07
1.81447e+07
1.81467e+07
1.81488e+07
1.81509e+07
1.81531e+07
1.81553e+07
1.81576e+07
1.81599e+07
1.81623e+07
1.81647e+07
1.81672e+07
1.81697e+07
1.81722e+07
1.81748e+07
1.81775e+07
1.81801e+07
1.81829e+07
1.81856e+07
1.81885e+07
1.81913e+07
1.81942e+07
1.81972e+07
1.82002e+07
1.82032e+07
1.82063e+07
1.82094e+07
1.82126e+07
1.82158e+07
1.8219e+07
1.82223e+07
1.82256e+07
1.8229e+07
1.82324e+07
1.82359e+07
1.82394e+07
1.82429e+07
1.82465e+07
1.82501e+07
1.82538e+07
1.82575e+07
1.82612e+07
1.8265e+07
1.82688e+07
1.82726e+07
1.82765e+07
1.82804e+07
1.82844e+07
1.82884e+07
1.82924e+07
1.82965e+07
1.83006e+07
1.83048e+07
1.8309e+07
1.83132e+07
1.83174e+07
1.83217e+07
1.83261e+07
1.83304e+07
1.83348e+07
1.83393e+07
1.83437e+07
1.83482e+07
1.83527e+07
1.83573e+07
1.83619e+07
1.83665e+07
1.83712e+07
1.83759e+07
1.83806e+07
1.83854e+07
1.83902e+07
1.8395e+07
1.83998e+07
1.84047e+07
1.84096e+07
1.84145e+07
1.84195e+07
1.84245e+07
1.84295e+07
1.84346e+07
1.84397e+07
1.84448e+07
1.84499e+07
1.84551e+07
1.84602e+07
1.84654e+07
1.84707e+07
1.84759e+07
1.84812e+07
1.84865e+07
1.84919e+07
1.84972e+07
1.85026e+07
1.8508e+07
1.85134e+07
1.85189e+07
1.85243e+07
1.85298e+07
1.85353e+07
1.85408e+07
1.85464e+07
1.85519e+07
1.85575e+07
1.85631e+07
1.85687e+07
1.85744e+07
1.858e+07
1.85857e+07
1.85914e+07
1.85971e+07
1.86028e+07
1.86085e+07
1.86142e+07
1.862e+07
1.86257e+07
1.86315e+07
1.86373e+07
1.86431e+07
1.86489e+07
1.86547e+07
1.86605e+07
1.86663e+07
1.86722e+07
1.8678e+07
1.86839e+07
1.86897e+07
1.86956e+07
1.87015e+07
1.87074e+07
1.87132e+07
1.87191e+07
1.8725e+07
1.87309e+07
1.87368e+07
1.87427e+07
1.87486e+07
1.87545e+07
1.87604e+07
1.87663e+07
1.87722e+07
1.87781e+07
1.87839e+07
1.87898e+07
1.87957e+07
1.88016e+07
1.88075e+07
1.88133e+07
1.88192e+07
1.8825e+07
1.88309e+07
1.88367e+07
1.88426e+07
1.88484e+07
1.88542e+07
1.886e+07
1.88658e+07
1.88716e+07
1.88774e+07
1.88832e+07
1.88889e+07
1.88948e+07
1.89005e+07
1.81026e+07
1.81028e+07
1.8103e+07
1.81034e+07
1.81037e+07
1.81041e+07
1.81046e+07
1.81051e+07
1.81056e+07
1.81062e+07
1.81069e+07
1.81076e+07
1.81083e+07
1.81091e+07
1.81099e+07
1.81108e+07
1.81118e+07
1.81128e+07
1.81138e+07
1.81149e+07
1.8116e+07
1.81172e+07
1.81184e+07
1.81197e+07
1.8121e+07
1.81224e+07
1.81238e+07
1.81253e+07
1.81268e+07
1.81284e+07
1.813e+07
1.81317e+07
1.81334e+07
1.81351e+07
1.8137e+07
1.81388e+07
1.81407e+07
1.81427e+07
1.81447e+07
1.81467e+07
1.81488e+07
1.81509e+07
1.81531e+07
1.81553e+07
1.81576e+07
1.81599e+07
1.81623e+07
1.81647e+07
1.81672e+07
1.81697e+07
1.81722e+07
1.81748e+07
1.81775e+07
1.81801e+07
1.81829e+07
1.81856e+07
1.81885e+07
1.81913e+07
1.81942e+07
1.81972e+07
1.82002e+07
1.82032e+07
1.82063e+07
1.82094e+07
1.82126e+07
1.82158e+07
1.8219e+07
1.82223e+07
1.82256e+07
1.8229e+07
1.82324e+07
1.82359e+07
1.82394e+07
1.82429e+07
1.82465e+07
1.82501e+07
1.82538e+07
1.82575e+07
1.82612e+07
1.8265e+07
1.82688e+07
1.82726e+07
1.82765e+07
1.82804e+07
1.82844e+07
1.82884e+07
1.82924e+07
1.82965e+07
1.83006e+07
1.83048e+07
1.8309e+07
1.83132e+07
1.83174e+07
1.83217e+07
1.83261e+07
1.83304e+07
1.83348e+07
1.83393e+07
1.83437e+07
1.83482e+07
1.83527e+07
1.83573e+07
1.83619e+07
1.83665e+07
1.83712e+07
1.83759e+07
1.83806e+07
1.83854e+07
1.83902e+07
1.8395e+07
1.83998e+07
1.84047e+07
1.84096e+07
1.84145e+07
1.84195e+07
1.84245e+07
1.84295e+07
1.84346e+07
1.84397e+07
1.84448e+07
1.84499e+07
1.84551e+07
1.84602e+07
1.84654e+07
1.84707e+07
1.84759e+07
1.84812e+07
1.84865e+07
1.84919e+07
1.84972e+07
1.85026e+07
1.8508e+07
1.85134e+07
1.85189e+07
1.85243e+07
1.85298e+07
1.85353e+07
1.85408e+07
1.85464e+07
1.85519e+07
1.85575e+07
1.85631e+07
1.85687e+07
1.85744e+07
1.858e+07
1.85857e+07
1.85914e+07
1.85971e+07
1.86028e+07
1.86085e+07
1.86142e+07
1.862e+07
1.86257e+07
1.86315e+07
1.86373e+07
1.86431e+07
1.86489e+07
1.86547e+07
1.86605e+07
1.86663e+07
1.86722e+07
1.8678e+07
1.86839e+07
1.86897e+07
1.86956e+07
1.87015e+07
1.87074e+07
1.87132e+07
1.87191e+07
1.8725e+07
1.87309e+07
1.87368e+07
1.87427e+07
1.87486e+07
1.87545e+07
1.87604e+07
1.87663e+07
1.87722e+07
1.87781e+07
1.87839e+07
1.87898e+07
1.87957e+07
1.88016e+07
1.88075e+07
1.88133e+07
1.88192e+07
1.8825e+07
1.88309e+07
1.88367e+07
1.88426e+07
1.88484e+07
1.88542e+07
1.886e+07
1.88658e+07
1.88716e+07
1.88774e+07
1.88832e+07
1.88889e+07
1.88947e+07
1.89005e+07
1.81026e+07
1.81028e+07
1.8103e+07
1.81034e+07
1.81037e+07
1.81041e+07
1.81046e+07
1.81051e+07
1.81056e+07
1.81062e+07
1.81069e+07
1.81076e+07
1.81083e+07
1.81091e+07
1.81099e+07
1.81108e+07
1.81118e+07
1.81128e+07
1.81138e+07
1.81149e+07
1.8116e+07
1.81172e+07
1.81184e+07
1.81197e+07
1.8121e+07
1.81224e+07
1.81238e+07
1.81253e+07
1.81268e+07
1.81284e+07
1.813e+07
1.81317e+07
1.81334e+07
1.81351e+07
1.8137e+07
1.81388e+07
1.81407e+07
1.81427e+07
1.81447e+07
1.81467e+07
1.81488e+07
1.81509e+07
1.81531e+07
1.81553e+07
1.81576e+07
1.81599e+07
1.81623e+07
1.81647e+07
1.81672e+07
1.81697e+07
1.81722e+07
1.81748e+07
1.81775e+07
1.81801e+07
1.81829e+07
1.81856e+07
1.81885e+07
1.81913e+07
1.81942e+07
1.81972e+07
1.82002e+07
1.82032e+07
1.82063e+07
1.82094e+07
1.82126e+07
1.82158e+07
1.8219e+07
1.82223e+07
1.82256e+07
1.8229e+07
1.82324e+07
1.82359e+07
1.82394e+07
1.82429e+07
1.82465e+07
1.82501e+07
1.82538e+07
1.82575e+07
1.82612e+07
1.8265e+07
1.82688e+07
1.82726e+07
1.82765e+07
1.82804e+07
1.82844e+07
1.82884e+07
1.82924e+07
1.82965e+07
1.83006e+07
1.83048e+07
1.8309e+07
1.83132e+07
1.83174e+07
1.83217e+07
1.83261e+07
1.83304e+07
1.83348e+07
1.83393e+07
1.83437e+07
1.83482e+07
1.83527e+07
1.83573e+07
1.83619e+07
1.83665e+07
1.83712e+07
1.83759e+07
1.83806e+07
1.83854e+07
1.83902e+07
1.8395e+07
1.83998e+07
1.84047e+07
1.84096e+07
1.84145e+07
1.84195e+07
1.84245e+07
1.84295e+07
1.84346e+07
1.84397e+07
1.84448e+07
1.84499e+07
1.84551e+07
1.84602e+07
1.84654e+07
1.84707e+07
1.84759e+07
1.84812e+07
1.84865e+07
1.84919e+07
1.84972e+07
1.85026e+07
1.8508e+07
1.85134e+07
1.85189e+07
1.85243e+07
1.85298e+07
1.85353e+07
1.85408e+07
1.85464e+07
1.85519e+07
1.85575e+07
1.85631e+07
1.85687e+07
1.85744e+07
1.858e+07
1.85857e+07
1.85914e+07
1.85971e+07
1.86028e+07
1.86085e+07
1.86142e+07
1.862e+07
1.86257e+07
1.86315e+07
1.86373e+07
1.86431e+07
1.86489e+07
1.86547e+07
1.86605e+07
1.86663e+07
1.86722e+07
1.8678e+07
1.86839e+07
1.86897e+07
1.86956e+07
1.87015e+07
1.87074e+07
1.87132e+07
1.87191e+07
1.8725e+07
1.87309e+07
1.87368e+07
1.87427e+07
1.87486e+07
1.87545e+07
1.87604e+07
1.87663e+07
1.87722e+07
1.87781e+07
1.87839e+07
1.87898e+07
1.87957e+07
1.88016e+07
1.88075e+07
1.88133e+07
1.88192e+07
1.8825e+07
1.88309e+07
1.88367e+07
1.88426e+07
1.88484e+07
1.88542e+07
1.886e+07
1.88658e+07
1.88716e+07
1.88774e+07
1.88832e+07
1.88889e+07
1.88947e+07
1.89004e+07
1.81026e+07
1.81028e+07
1.8103e+07
1.81034e+07
1.81037e+07
1.81041e+07
1.81046e+07
1.81051e+07
1.81056e+07
1.81062e+07
1.81069e+07
1.81076e+07
1.81083e+07
1.81091e+07
1.81099e+07
1.81108e+07
1.81118e+07
1.81128e+07
1.81138e+07
1.81149e+07
1.8116e+07
1.81172e+07
1.81184e+07
1.81197e+07
1.8121e+07
1.81224e+07
1.81238e+07
1.81253e+07
1.81268e+07
1.81284e+07
1.813e+07
1.81317e+07
1.81334e+07
1.81351e+07
1.8137e+07
1.81388e+07
1.81407e+07
1.81427e+07
1.81447e+07
1.81467e+07
1.81488e+07
1.81509e+07
1.81531e+07
1.81553e+07
1.81576e+07
1.81599e+07
1.81623e+07
1.81647e+07
1.81672e+07
1.81697e+07
1.81722e+07
1.81748e+07
1.81775e+07
1.81801e+07
1.81829e+07
1.81856e+07
1.81885e+07
1.81913e+07
1.81942e+07
1.81972e+07
1.82002e+07
1.82032e+07
1.82063e+07
1.82094e+07
1.82126e+07
1.82158e+07
1.8219e+07
1.82223e+07
1.82256e+07
1.8229e+07
1.82324e+07
1.82359e+07
1.82394e+07
1.82429e+07
1.82465e+07
1.82501e+07
1.82538e+07
1.82575e+07
1.82612e+07
1.8265e+07
1.82688e+07
1.82726e+07
1.82765e+07
1.82804e+07
1.82844e+07
1.82884e+07
1.82924e+07
1.82965e+07
1.83006e+07
1.83048e+07
1.8309e+07
1.83132e+07
1.83174e+07
1.83217e+07
1.83261e+07
1.83304e+07
1.83348e+07
1.83393e+07
1.83437e+07
1.83482e+07
1.83527e+07
1.83573e+07
1.83619e+07
1.83665e+07
1.83712e+07
1.83759e+07
1.83806e+07
1.83854e+07
1.83902e+07
1.8395e+07
1.83998e+07
1.84047e+07
1.84096e+07
1.84145e+07
1.84195e+07
1.84245e+07
1.84295e+07
1.84346e+07
1.84397e+07
1.84448e+07
1.84499e+07
1.84551e+07
1.84602e+07
1.84654e+07
1.84707e+07
1.84759e+07
1.84812e+07
1.84865e+07
1.84919e+07
1.84972e+07
1.85026e+07
1.8508e+07
1.85134e+07
1.85189e+07
1.85243e+07
1.85298e+07
1.85353e+07
1.85408e+07
1.85464e+07
1.85519e+07
1.85575e+07
1.85631e+07
1.85687e+07
1.85744e+07
1.858e+07
1.85857e+07
1.85914e+07
1.85971e+07
1.86028e+07
1.86085e+07
1.86142e+07
1.862e+07
1.86257e+07
1.86315e+07
1.86373e+07
1.86431e+07
1.86489e+07
1.86547e+07
1.86605e+07
1.86663e+07
1.86722e+07
1.8678e+07
1.86839e+07
1.86897e+07
1.86956e+07
1.87015e+07
1.87074e+07
1.87132e+07
1.87191e+07
1.8725e+07
1.87309e+07
1.87368e+07
1.87427e+07
1.87486e+07
1.87545e+07
1.87604e+07
1.87663e+07
1.87722e+07
1.87781e+07
1.87839e+07
1.87898e+07
1.87957e+07
1.88016e+07
1.88075e+07
1.88133e+07
1.88192e+07
1.8825e+07
1.88309e+07
1.88367e+07
1.88426e+07
1.88484e+07
1.88542e+07
1.886e+07
1.88658e+07
1.88716e+07
1.88774e+07
1.88832e+07
1.88889e+07
1.88946e+07
1.89003e+07
1.81026e+07
1.81028e+07
1.8103e+07
1.81034e+07
1.81037e+07
1.81041e+07
1.81046e+07
1.81051e+07
1.81056e+07
1.81062e+07
1.81069e+07
1.81076e+07
1.81083e+07
1.81091e+07
1.81099e+07
1.81108e+07
1.81118e+07
1.81128e+07
1.81138e+07
1.81149e+07
1.8116e+07
1.81172e+07
1.81184e+07
1.81197e+07
1.8121e+07
1.81224e+07
1.81238e+07
1.81253e+07
1.81268e+07
1.81284e+07
1.813e+07
1.81317e+07
1.81334e+07
1.81351e+07
1.8137e+07
1.81388e+07
1.81407e+07
1.81427e+07
1.81447e+07
1.81467e+07
1.81488e+07
1.81509e+07
1.81531e+07
1.81553e+07
1.81576e+07
1.81599e+07
1.81623e+07
1.81647e+07
1.81672e+07
1.81697e+07
1.81722e+07
1.81748e+07
1.81775e+07
1.81801e+07
1.81829e+07
1.81856e+07
1.81885e+07
1.81913e+07
1.81942e+07
1.81972e+07
1.82002e+07
1.82032e+07
1.82063e+07
1.82094e+07
1.82126e+07
1.82158e+07
1.8219e+07
1.82223e+07
1.82256e+07
1.8229e+07
1.82324e+07
1.82359e+07
1.82394e+07
1.82429e+07
1.82465e+07
1.82501e+07
1.82538e+07
1.82575e+07
1.82612e+07
1.8265e+07
1.82688e+07
1.82726e+07
1.82765e+07
1.82804e+07
1.82844e+07
1.82884e+07
1.82924e+07
1.82965e+07
1.83006e+07
1.83048e+07
1.8309e+07
1.83132e+07
1.83174e+07
1.83217e+07
1.83261e+07
1.83304e+07
1.83348e+07
1.83393e+07
1.83437e+07
1.83482e+07
1.83527e+07
1.83573e+07
1.83619e+07
1.83665e+07
1.83712e+07
1.83759e+07
1.83806e+07
1.83854e+07
1.83902e+07
1.8395e+07
1.83998e+07
1.84047e+07
1.84096e+07
1.84145e+07
1.84195e+07
1.84245e+07
1.84295e+07
1.84346e+07
1.84397e+07
1.84448e+07
1.84499e+07
1.84551e+07
1.84602e+07
1.84654e+07
1.84707e+07
1.84759e+07
1.84812e+07
1.84865e+07
1.84919e+07
1.84972e+07
1.85026e+07
1.8508e+07
1.85134e+07
1.85189e+07
1.85243e+07
1.85298e+07
1.85353e+07
1.85408e+07
1.85464e+07
1.85519e+07
1.85575e+07
1.85631e+07
1.85687e+07
1.85744e+07
1.858e+07
1.85857e+07
1.85914e+07
1.85971e+07
1.86028e+07
1.86085e+07
1.86142e+07
1.862e+07
1.86257e+07
1.86315e+07
1.86373e+07
1.86431e+07
1.86489e+07
1.86547e+07
1.86605e+07
1.86663e+07
1.86722e+07
1.8678e+07
1.86839e+07
1.86897e+07
1.86956e+07
1.87015e+07
1.87074e+07
1.87132e+07
1.87191e+07
1.8725e+07
1.87309e+07
1.87368e+07
1.87427e+07
1.87486e+07
1.87545e+07
1.87604e+07
1.87663e+07
1.87722e+07
1.87781e+07
1.87839e+07
1.87898e+07
1.87957e+07
1.88016e+07
1.88075e+07
1.88133e+07
1.88192e+07
1.8825e+07
1.88309e+07
1.88367e+07
1.88426e+07
1.88484e+07
1.88542e+07
1.886e+07
1.88658e+07
1.88716e+07
1.88774e+07
1.88832e+07
1.88889e+07
1.88946e+07
1.89003e+07
1.81026e+07
1.81028e+07
1.8103e+07
1.81034e+07
1.81037e+07
1.81041e+07
1.81046e+07
1.81051e+07
1.81056e+07
1.81062e+07
1.81069e+07
1.81076e+07
1.81083e+07
1.81091e+07
1.81099e+07
1.81108e+07
1.81118e+07
1.81128e+07
1.81138e+07
1.81149e+07
1.8116e+07
1.81172e+07
1.81184e+07
1.81197e+07
1.8121e+07
1.81224e+07
1.81238e+07
1.81253e+07
1.81268e+07
1.81284e+07
1.813e+07
1.81317e+07
1.81334e+07
1.81351e+07
1.8137e+07
1.81388e+07
1.81407e+07
1.81427e+07
1.81447e+07
1.81467e+07
1.81488e+07
1.81509e+07
1.81531e+07
1.81553e+07
1.81576e+07
1.81599e+07
1.81623e+07
1.81647e+07
1.81672e+07
1.81697e+07
1.81722e+07
1.81748e+07
1.81775e+07
1.81801e+07
1.81829e+07
1.81856e+07
1.81885e+07
1.81913e+07
1.81942e+07
1.81972e+07
1.82002e+07
1.82032e+07
1.82063e+07
1.82094e+07
1.82126e+07
1.82158e+07
1.8219e+07
1.82223e+07
1.82256e+07
1.8229e+07
1.82324e+07
1.82359e+07
1.82394e+07
1.82429e+07
1.82465e+07
1.82501e+07
1.82538e+07
1.82575e+07
1.82612e+07
1.8265e+07
1.82688e+07
1.82726e+07
1.82765e+07
1.82804e+07
1.82844e+07
1.82884e+07
1.82924e+07
1.82965e+07
1.83006e+07
1.83048e+07
1.8309e+07
1.83132e+07
1.83174e+07
1.83217e+07
1.83261e+07
1.83304e+07
1.83348e+07
1.83393e+07
1.83437e+07
1.83482e+07
1.83527e+07
1.83573e+07
1.83619e+07
1.83665e+07
1.83712e+07
1.83759e+07
1.83806e+07
1.83854e+07
1.83902e+07
1.8395e+07
1.83998e+07
1.84047e+07
1.84096e+07
1.84145e+07
1.84195e+07
1.84245e+07
1.84295e+07
1.84346e+07
1.84397e+07
1.84448e+07
1.84499e+07
1.84551e+07
1.84602e+07
1.84654e+07
1.84707e+07
1.84759e+07
1.84812e+07
1.84865e+07
1.84919e+07
1.84972e+07
1.85026e+07
1.8508e+07
1.85134e+07
1.85189e+07
1.85243e+07
1.85298e+07
1.85353e+07
1.85408e+07
1.85464e+07
1.85519e+07
1.85575e+07
1.85631e+07
1.85687e+07
1.85744e+07
1.858e+07
1.85857e+07
1.85914e+07
1.85971e+07
1.86028e+07
1.86085e+07
1.86142e+07
1.862e+07
1.86257e+07
1.86315e+07
1.86373e+07
1.86431e+07
1.86489e+07
1.86547e+07
1.86605e+07
1.86663e+07
1.86722e+07
1.8678e+07
1.86839e+07
1.86897e+07
1.86956e+07
1.87015e+07
1.87074e+07
1.87132e+07
1.87191e+07
1.8725e+07
1.87309e+07
1.87368e+07
1.87427e+07
1.87486e+07
1.87545e+07
1.87604e+07
1.87663e+07
1.87722e+07
1.87781e+07
1.87839e+07
1.87898e+07
1.87957e+07
1.88016e+07
1.88075e+07
1.88133e+07
1.88192e+07
1.8825e+07
1.88309e+07
1.88367e+07
1.88426e+07
1.88484e+07
1.88542e+07
1.886e+07
1.88658e+07
1.88716e+07
1.88774e+07
1.88832e+07
1.88889e+07
1.88946e+07
1.89002e+07
1.81026e+07
1.81028e+07
1.8103e+07
1.81034e+07
1.81037e+07
1.81041e+07
1.81046e+07
1.81051e+07
1.81056e+07
1.81062e+07
1.81069e+07
1.81076e+07
1.81083e+07
1.81091e+07
1.81099e+07
1.81108e+07
1.81118e+07
1.81128e+07
1.81138e+07
1.81149e+07
1.8116e+07
1.81172e+07
1.81184e+07
1.81197e+07
1.8121e+07
1.81224e+07
1.81238e+07
1.81253e+07
1.81268e+07
1.81284e+07
1.813e+07
1.81317e+07
1.81334e+07
1.81351e+07
1.8137e+07
1.81388e+07
1.81407e+07
1.81427e+07
1.81447e+07
1.81467e+07
1.81488e+07
1.81509e+07
1.81531e+07
1.81553e+07
1.81576e+07
1.81599e+07
1.81623e+07
1.81647e+07
1.81672e+07
1.81697e+07
1.81722e+07
1.81748e+07
1.81775e+07
1.81801e+07
1.81829e+07
1.81856e+07
1.81885e+07
1.81913e+07
1.81942e+07
1.81972e+07
1.82002e+07
1.82032e+07
1.82063e+07
1.82094e+07
1.82126e+07
1.82158e+07
1.8219e+07
1.82223e+07
1.82256e+07
1.8229e+07
1.82324e+07
1.82359e+07
1.82394e+07
1.82429e+07
1.82465e+07
1.82501e+07
1.82538e+07
1.82575e+07
1.82612e+07
1.8265e+07
1.82688e+07
1.82726e+07
1.82765e+07
1.82804e+07
1.82844e+07
1.82884e+07
1.82924e+07
1.82965e+07
1.83006e+07
1.83048e+07
1.8309e+07
1.83132e+07
1.83174e+07
1.83217e+07
1.83261e+07
1.83304e+07
1.83348e+07
1.83393e+07
1.83437e+07
1.83482e+07
1.83527e+07
1.83573e+07
1.83619e+07
1.83665e+07
1.83712e+07
1.83759e+07
1.83806e+07
1.83854e+07
1.83902e+07
1.8395e+07
1.83998e+07
1.84047e+07
1.84096e+07
1.84145e+07
1.84195e+07
1.84245e+07
1.84295e+07
1.84346e+07
1.84397e+07
1.84448e+07
1.84499e+07
1.84551e+07
1.84602e+07
1.84654e+07
1.84707e+07
1.84759e+07
1.84812e+07
1.84865e+07
1.84919e+07
1.84972e+07
1.85026e+07
1.8508e+07
1.85134e+07
1.85189e+07
1.85243e+07
1.85298e+07
1.85353e+07
1.85408e+07
1.85464e+07
1.85519e+07
1.85575e+07
1.85631e+07
1.85687e+07
1.85744e+07
1.858e+07
1.85857e+07
1.85914e+07
1.85971e+07
1.86028e+07
1.86085e+07
1.86142e+07
1.862e+07
1.86257e+07
1.86315e+07
1.86373e+07
1.86431e+07
1.86489e+07
1.86547e+07
1.86605e+07
1.86663e+07
1.86722e+07
1.8678e+07
1.86839e+07
1.86897e+07
1.86956e+07
1.87015e+07
1.87074e+07
1.87132e+07
1.87191e+07
1.8725e+07
1.87309e+07
1.87368e+07
1.87427e+07
1.87486e+07
1.87545e+07
1.87604e+07
1.87663e+07
1.87722e+07
1.87781e+07
1.87839e+07
1.87898e+07
1.87957e+07
1.88016e+07
1.88075e+07
1.88133e+07
1.88192e+07
1.8825e+07
1.88309e+07
1.88367e+07
1.88426e+07
1.88484e+07
1.88542e+07
1.886e+07
1.88658e+07
1.88716e+07
1.88774e+07
1.88832e+07
1.88889e+07
1.88946e+07
1.89002e+07
1.81026e+07
1.81028e+07
1.8103e+07
1.81034e+07
1.81037e+07
1.81041e+07
1.81046e+07
1.81051e+07
1.81056e+07
1.81062e+07
1.81069e+07
1.81076e+07
1.81083e+07
1.81091e+07
1.81099e+07
1.81108e+07
1.81118e+07
1.81128e+07
1.81138e+07
1.81149e+07
1.8116e+07
1.81172e+07
1.81184e+07
1.81197e+07
1.8121e+07
1.81224e+07
1.81238e+07
1.81253e+07
1.81268e+07
1.81284e+07
1.813e+07
1.81317e+07
1.81334e+07
1.81351e+07
1.8137e+07
1.81388e+07
1.81407e+07
1.81427e+07
1.81447e+07
1.81467e+07
1.81488e+07
1.81509e+07
1.81531e+07
1.81553e+07
1.81576e+07
1.81599e+07
1.81623e+07
1.81647e+07
1.81672e+07
1.81697e+07
1.81722e+07
1.81748e+07
1.81775e+07
1.81801e+07
1.81829e+07
1.81856e+07
1.81885e+07
1.81913e+07
1.81942e+07
1.81972e+07
1.82002e+07
1.82032e+07
1.82063e+07
1.82094e+07
1.82126e+07
1.82158e+07
1.8219e+07
1.82223e+07
1.82256e+07
1.8229e+07
1.82324e+07
1.82359e+07
1.82394e+07
1.82429e+07
1.82465e+07
1.82501e+07
1.82538e+07
1.82575e+07
1.82612e+07
1.8265e+07
1.82688e+07
1.82726e+07
1.82765e+07
1.82804e+07
1.82844e+07
1.82884e+07
1.82924e+07
1.82965e+07
1.83006e+07
1.83048e+07
1.8309e+07
1.83132e+07
1.83174e+07
1.83217e+07
1.83261e+07
1.83304e+07
1.83348e+07
1.83393e+07
1.83437e+07
1.83482e+07
1.83527e+07
1.83573e+07
1.83619e+07
1.83665e+07
1.83712e+07
1.83759e+07
1.83806e+07
1.83854e+07
1.83902e+07
1.8395e+07
1.83998e+07
1.84047e+07
1.84096e+07
1.84145e+07
1.84195e+07
1.84245e+07
1.84295e+07
1.84346e+07
1.84397e+07
1.84448e+07
1.84499e+07
1.84551e+07
1.84602e+07
1.84654e+07
1.84707e+07
1.84759e+07
1.84812e+07
1.84865e+07
1.84919e+07
1.84972e+07
1.85026e+07
1.8508e+07
1.85134e+07
1.85189e+07
1.85243e+07
1.85298e+07
1.85353e+07
1.85408e+07
1.85464e+07
1.85519e+07
1.85575e+07
1.85631e+07
1.85687e+07
1.85744e+07
1.858e+07
1.85857e+07
1.85914e+07
1.85971e+07
1.86028e+07
1.86085e+07
1.86142e+07
1.862e+07
1.86257e+07
1.86315e+07
1.86373e+07
1.86431e+07
1.86489e+07
1.86547e+07
1.86605e+07
1.86663e+07
1.86722e+07
1.8678e+07
1.86839e+07
1.86897e+07
1.86956e+07
1.87015e+07
1.87074e+07
1.87132e+07
1.87191e+07
1.8725e+07
1.87309e+07
1.87368e+07
1.87427e+07
1.87486e+07
1.87545e+07
1.87604e+07
1.87663e+07
1.87722e+07
1.87781e+07
1.87839e+07
1.87898e+07
1.87957e+07
1.88016e+07
1.88075e+07
1.88133e+07
1.88192e+07
1.8825e+07
1.88309e+07
1.88367e+07
1.88426e+07
1.88484e+07
1.88542e+07
1.886e+07
1.88658e+07
1.88716e+07
1.88774e+07
1.88832e+07
1.88889e+07
1.88946e+07
1.89002e+07
1.89053e+07
1.89072e+07
1.89086e+07
1.89097e+07
1.89108e+07
1.89119e+07
1.8913e+07
1.8914e+07
1.8915e+07
1.89161e+07
1.89172e+07
1.89182e+07
1.89192e+07
1.89202e+07
1.89212e+07
1.89222e+07
1.89232e+07
1.89241e+07
1.8925e+07
1.89258e+07
1.89052e+07
1.8907e+07
1.89084e+07
1.89095e+07
1.89106e+07
1.89117e+07
1.89127e+07
1.89138e+07
1.89148e+07
1.89159e+07
1.8917e+07
1.8918e+07
1.8919e+07
1.892e+07
1.8921e+07
1.8922e+07
1.89229e+07
1.89239e+07
1.89248e+07
1.89256e+07
1.89052e+07
1.8907e+07
1.89084e+07
1.89095e+07
1.89106e+07
1.89117e+07
1.89128e+07
1.89138e+07
1.89148e+07
1.89159e+07
1.89169e+07
1.8918e+07
1.8919e+07
1.892e+07
1.8921e+07
1.89219e+07
1.89229e+07
1.89238e+07
1.89247e+07
1.89255e+07
1.89047e+07
1.89061e+07
1.89073e+07
1.89084e+07
1.89095e+07
1.89106e+07
1.89116e+07
1.89127e+07
1.89137e+07
1.89148e+07
1.89159e+07
1.89169e+07
1.89179e+07
1.8919e+07
1.89199e+07
1.89209e+07
1.89219e+07
1.89228e+07
1.89236e+07
1.89245e+07
1.89046e+07
1.8906e+07
1.89073e+07
1.89086e+07
1.89097e+07
1.89108e+07
1.89118e+07
1.89128e+07
1.89138e+07
1.89149e+07
1.89159e+07
1.89168e+07
1.89179e+07
1.89188e+07
1.89198e+07
1.89207e+07
1.89217e+07
1.89226e+07
1.89235e+07
1.89244e+07
1.89031e+07
1.89039e+07
1.89046e+07
1.89054e+07
1.89062e+07
1.89072e+07
1.89082e+07
1.89093e+07
1.89103e+07
1.89114e+07
1.89124e+07
1.89135e+07
1.89146e+07
1.89157e+07
1.89167e+07
1.89177e+07
1.89188e+07
1.89199e+07
1.8921e+07
1.89221e+07
1.89027e+07
1.89035e+07
1.89045e+07
1.89056e+07
1.89067e+07
1.89077e+07
1.89087e+07
1.89096e+07
1.89106e+07
1.89116e+07
1.89125e+07
1.89135e+07
1.89145e+07
1.89154e+07
1.89164e+07
1.89174e+07
1.89184e+07
1.89195e+07
1.89207e+07
1.89219e+07
1.89008e+07
1.89006e+07
1.89006e+07
1.89009e+07
1.89016e+07
1.89024e+07
1.89033e+07
1.89042e+07
1.89053e+07
1.89063e+07
1.89075e+07
1.89086e+07
1.89098e+07
1.89111e+07
1.89124e+07
1.89137e+07
1.89151e+07
1.89165e+07
1.8918e+07
1.89196e+07
1.89004e+07
1.89002e+07
1.89004e+07
1.89009e+07
1.89016e+07
1.89024e+07
1.89033e+07
1.89043e+07
1.89053e+07
1.89063e+07
1.89074e+07
1.89086e+07
1.89098e+07
1.8911e+07
1.89122e+07
1.89135e+07
1.89149e+07
1.89163e+07
1.89178e+07
1.89194e+07
1.88998e+07
1.88991e+07
1.88991e+07
1.88994e+07
1.89001e+07
1.89008e+07
1.89017e+07
1.89027e+07
1.89037e+07
1.89048e+07
1.89059e+07
1.89071e+07
1.89083e+07
1.89096e+07
1.89109e+07
1.89123e+07
1.89137e+07
1.89152e+07
1.89168e+07
1.89185e+07
1.89269e+07
1.89305e+07
1.89347e+07
1.8939e+07
1.89433e+07
1.89476e+07
1.8952e+07
1.89563e+07
1.89606e+07
1.8965e+07
1.89693e+07
1.89736e+07
1.89779e+07
1.89822e+07
1.89865e+07
1.89907e+07
1.8995e+07
1.89992e+07
1.90035e+07
1.90077e+07
1.90119e+07
1.90161e+07
1.90203e+07
1.90244e+07
1.90286e+07
1.90327e+07
1.90369e+07
1.9041e+07
1.90451e+07
1.90491e+07
1.90532e+07
1.90573e+07
1.90613e+07
1.90653e+07
1.90693e+07
1.90733e+07
1.90773e+07
1.90812e+07
1.90851e+07
1.90891e+07
1.9093e+07
1.90968e+07
1.91007e+07
1.91046e+07
1.91084e+07
1.91122e+07
1.9116e+07
1.91198e+07
1.91236e+07
1.91273e+07
1.9131e+07
1.91347e+07
1.91384e+07
1.91421e+07
1.91458e+07
1.91494e+07
1.9153e+07
1.91566e+07
1.91602e+07
1.91637e+07
1.91673e+07
1.91708e+07
1.91743e+07
1.91778e+07
1.91812e+07
1.91847e+07
1.91881e+07
1.91915e+07
1.91949e+07
1.91982e+07
1.92016e+07
1.92049e+07
1.92082e+07
1.92115e+07
1.92148e+07
1.9218e+07
1.92212e+07
1.92244e+07
1.92276e+07
1.92308e+07
1.92339e+07
1.9237e+07
1.92401e+07
1.92432e+07
1.92463e+07
1.92493e+07
1.92523e+07
1.92553e+07
1.92583e+07
1.92613e+07
1.92642e+07
1.92671e+07
1.927e+07
1.92729e+07
1.92758e+07
1.92786e+07
1.92814e+07
1.92842e+07
1.92869e+07
1.92896e+07
1.92923e+07
1.9295e+07
1.92977e+07
1.93003e+07
1.93029e+07
1.93055e+07
1.93081e+07
1.93106e+07
1.93131e+07
1.93156e+07
1.93181e+07
1.93205e+07
1.9323e+07
1.93254e+07
1.93278e+07
1.93301e+07
1.93325e+07
1.93348e+07
1.93371e+07
1.93394e+07
1.93416e+07
1.93438e+07
1.93461e+07
1.93482e+07
1.93504e+07
1.93526e+07
1.93547e+07
1.93568e+07
1.93588e+07
1.93609e+07
1.93629e+07
1.93649e+07
1.93669e+07
1.93689e+07
1.93708e+07
1.93728e+07
1.93747e+07
1.93765e+07
1.93784e+07
1.93802e+07
1.93821e+07
1.93838e+07
1.93856e+07
1.93874e+07
1.93891e+07
1.93908e+07
1.93925e+07
1.93941e+07
1.93958e+07
1.93974e+07
1.9399e+07
1.94006e+07
1.94021e+07
1.94037e+07
1.94052e+07
1.94067e+07
1.94082e+07
1.94096e+07
1.9411e+07
1.94125e+07
1.94138e+07
1.94152e+07
1.94166e+07
1.94179e+07
1.94192e+07
1.94205e+07
1.94218e+07
1.9423e+07
1.94242e+07
1.94255e+07
1.94266e+07
1.94278e+07
1.9429e+07
1.94301e+07
1.94312e+07
1.94323e+07
1.94334e+07
1.94344e+07
1.94355e+07
1.94365e+07
1.94375e+07
1.94384e+07
1.94394e+07
1.94403e+07
1.94413e+07
1.94422e+07
1.9443e+07
1.94439e+07
1.94448e+07
1.94456e+07
1.94464e+07
1.94472e+07
1.9448e+07
1.94487e+07
1.94495e+07
1.94502e+07
1.94509e+07
1.94516e+07
1.94523e+07
1.9453e+07
1.89269e+07
1.89305e+07
1.89347e+07
1.8939e+07
1.89433e+07
1.89476e+07
1.8952e+07
1.89563e+07
1.89606e+07
1.8965e+07
1.89693e+07
1.89736e+07
1.89779e+07
1.89822e+07
1.89865e+07
1.89907e+07
1.8995e+07
1.89992e+07
1.90035e+07
1.90077e+07
1.90119e+07
1.90161e+07
1.90203e+07
1.90244e+07
1.90286e+07
1.90327e+07
1.90369e+07
1.9041e+07
1.90451e+07
1.90491e+07
1.90532e+07
1.90573e+07
1.90613e+07
1.90653e+07
1.90693e+07
1.90733e+07
1.90773e+07
1.90812e+07
1.90851e+07
1.90891e+07
1.9093e+07
1.90968e+07
1.91007e+07
1.91046e+07
1.91084e+07
1.91122e+07
1.9116e+07
1.91198e+07
1.91236e+07
1.91273e+07