/*--------------------------------*- C++ -*----------------------------------*\
| =========                 |                                                 |
| \\      /  F ield         | OpenFOAM: The Open Source CFD Toolbox           |
|  \\    /   O peration     | Version:  3.0.x                                 |
|   \\  /    A nd           | Web:      www.OpenFOAM.org                      |
|    \\/     M anipulation  |                                                 |
\*---------------------------------------------------------------------------*/
FoamFile
{
    version     2.0;
    format      ascii;
    class       volScalarField;
    location    "0.51";
    object      rho;
}
// * * * * * * * * * * * * * * * * * * * * * * * * * * * * * * * * * * * * * //

dimensions      [1 -3 0 0 0 0 0];

internalField   nonuniform List<scalar> 
13800
(
50.7041
50.7051
50.7064
50.7075
50.7085
50.7096
50.7108
50.712
50.7133
50.7147
50.7162
50.7178
50.7195
50.7215
50.7234
50.7255
50.7276
50.73
50.7324
50.7349
50.7376
50.7403
50.7432
50.7461
50.7492
50.7525
50.7558
50.7592
50.7628
50.7664
50.7702
50.7741
50.7781
50.7822
50.7864
50.7908
50.7952
50.7998
50.8044
50.8092
50.8141
50.819
50.8241
50.8292
50.8345
50.84
50.8455
50.8512
50.8569
50.8628
50.8687
50.8748
50.881
50.8872
50.8937
50.9001
50.9066
50.9133
50.9201
50.927
50.934
50.9411
50.9483
50.9556
50.9631
50.9705
50.9782
50.9858
50.9935
51.0014
51.0094
51.0174
51.0255
51.0338
51.0422
51.0506
51.0592
51.0678
51.0765
51.0853
51.0943
51.1032
51.1123
51.1214
51.1307
51.14
51.1494
51.1589
51.1685
51.1782
51.1879
51.1977
51.2077
51.2177
51.2277
51.2379
51.2481
51.2584
51.2688
51.2793
51.2899
51.3005
51.3111
51.3219
51.3327
51.3437
51.3547
51.3657
51.3769
51.3881
51.3994
51.4108
51.4222
51.4337
51.4452
51.4568
51.4685
51.4803
51.4921
51.5039
51.5159
51.5279
51.5399
51.552
51.5642
51.5764
51.5887
51.6011
51.6135
51.6259
51.6384
51.6509
51.6636
51.6763
51.6889
51.7017
51.7145
51.7273
51.7402
51.7531
51.7661
51.7791
51.7921
51.8052
51.8183
51.8315
51.8447
51.8579
51.8712
51.8845
51.8978
51.9111
51.9245
51.9379
51.9513
51.9648
51.9782
51.9917
52.0053
52.0188
52.0323
52.0459
52.0595
52.0731
52.0867
52.1004
52.114
52.1276
52.1413
52.155
52.1686
52.1822
52.196
52.2096
52.2232
52.2369
52.2506
52.2643
52.278
52.2916
52.3052
52.3189
52.3326
52.3461
52.3598
52.3732
52.387
52.4003
52.4142
52.4273
52.4413
52.4543
52.4683
52.4811
52.4953
52.5078
52.522
52.5346
52.5484
52.5621
50.7047
50.7056
50.7069
50.708
50.7091
50.7102
50.7113
50.7125
50.7138
50.7152
50.7167
50.7183
50.7201
50.7219
50.7239
50.726
50.7282
50.7304
50.7329
50.7354
50.738
50.7408
50.7437
50.7466
50.7497
50.7529
50.7563
50.7597
50.7632
50.7669
50.7707
50.7746
50.7786
50.7827
50.7869
50.7912
50.7956
50.8002
50.8049
50.8097
50.8145
50.8195
50.8245
50.8297
50.835
50.8404
50.8459
50.8516
50.8574
50.8632
50.8692
50.8752
50.8814
50.8877
50.894
50.9005
50.9071
50.9137
50.9205
50.9274
50.9344
50.9415
50.9487
50.956
50.9634
50.9709
50.9785
50.9862
50.9939
51.0018
51.0097
51.0178
51.0259
51.0342
51.0425
51.051
51.0596
51.0682
51.0769
51.0857
51.0946
51.1036
51.1126
51.1217
51.131
51.1404
51.1498
51.1593
51.1688
51.1785
51.1883
51.198
51.208
51.218
51.228
51.2382
51.2485
51.2588
51.2691
51.2796
51.2902
51.3008
51.3115
51.3223
51.3331
51.344
51.355
51.3661
51.3772
51.3885
51.3998
51.4111
51.4225
51.434
51.4456
51.4572
51.4688
51.4806
51.4924
51.5043
51.5162
51.5282
51.5403
51.5524
51.5646
51.5768
51.5891
51.6014
51.6139
51.6263
51.6388
51.6513
51.6639
51.6766
51.6892
51.702
51.7148
51.7277
51.7406
51.7534
51.7664
51.7794
51.7925
51.8055
51.8187
51.8318
51.845
51.8583
51.8715
51.8848
51.8981
51.9115
51.9248
51.9382
51.9517
51.9651
51.9786
51.9921
52.0056
52.0191
52.0327
52.0463
52.0598
52.0734
52.087
52.1007
52.1143
52.128
52.1416
52.1553
52.1689
52.1826
52.1963
52.21
52.2236
52.2373
52.251
52.2646
52.2783
52.292
52.3056
52.3192
52.3329
52.3465
52.3602
52.3736
52.3874
52.4007
52.4146
52.4277
52.4416
52.4546
52.4687
52.4814
52.4956
52.5081
52.5224
52.5349
52.5491
52.561
50.7047
50.7056
50.7069
50.708
50.7091
50.7102
50.7113
50.7125
50.7138
50.7152
50.7167
50.7183
50.7201
50.7219
50.7239
50.726
50.7282
50.7304
50.7329
50.7354
50.738
50.7408
50.7437
50.7466
50.7497
50.7529
50.7563
50.7597
50.7632
50.7669
50.7707
50.7746
50.7786
50.7827
50.7869
50.7913
50.7957
50.8002
50.8049
50.8097
50.8145
50.8195
50.8245
50.8297
50.835
50.8404
50.8459
50.8516
50.8574
50.8632
50.8692
50.8752
50.8814
50.8877
50.894
50.9005
50.9071
50.9137
50.9205
50.9274
50.9344
50.9415
50.9487
50.956
50.9634
50.9709
50.9785
50.9862
50.9939
51.0018
51.0097
51.0178
51.0259
51.0342
51.0425
51.051
51.0596
51.0682
51.0769
51.0857
51.0946
51.1036
51.1126
51.1217
51.131
51.1404
51.1498
51.1593
51.1688
51.1785
51.1883
51.198
51.208
51.218
51.228
51.2382
51.2485
51.2588
51.2691
51.2796
51.2902
51.3008
51.3115
51.3223
51.3331
51.344
51.355
51.3661
51.3772
51.3885
51.3998
51.4111
51.4225
51.434
51.4456
51.4572
51.4688
51.4806
51.4924
51.5043
51.5162
51.5282
51.5403
51.5524
51.5646
51.5768
51.5891
51.6014
51.6139
51.6263
51.6388
51.6513
51.6639
51.6766
51.6892
51.702
51.7148
51.7277
51.7406
51.7534
51.7664
51.7794
51.7925
51.8055
51.8187
51.8318
51.845
51.8583
51.8715
51.8848
51.8981
51.9115
51.9248
51.9382
51.9517
51.9651
51.9786
51.9921
52.0056
52.0191
52.0327
52.0463
52.0598
52.0734
52.087
52.1007
52.1143
52.128
52.1416
52.1553
52.1689
52.1826
52.1963
52.21
52.2236
52.2373
52.251
52.2646
52.2783
52.292
52.3056
52.3192
52.3329
52.3465
52.3602
52.3736
52.3874
52.4007
52.4146
52.4277
52.4416
52.4546
52.4687
52.4814
52.4956
52.5081
52.5224
52.5349
52.5492
52.561
50.7047
50.7056
50.7069
50.708
50.7091
50.7102
50.7113
50.7125
50.7138
50.7152
50.7167
50.7183
50.7201
50.7219
50.7239
50.726
50.7282
50.7304
50.7329
50.7354
50.738
50.7408
50.7437
50.7466
50.7497
50.7529
50.7563
50.7597
50.7632
50.7669
50.7707
50.7746
50.7786
50.7827
50.7869
50.7912
50.7956
50.8002
50.8049
50.8097
50.8145
50.8195
50.8245
50.8297
50.835
50.8404
50.8459
50.8516
50.8574
50.8632
50.8692
50.8752
50.8814
50.8877
50.894
50.9005
50.9071
50.9137
50.9205
50.9274
50.9344
50.9415
50.9487
50.956
50.9634
50.9709
50.9785
50.9862
50.9939
51.0018
51.0097
51.0178
51.0259
51.0342
51.0425
51.051
51.0596
51.0682
51.0769
51.0857
51.0946
51.1036
51.1126
51.1217
51.131
51.1404
51.1498
51.1593
51.1688
51.1785
51.1883
51.198
51.208
51.218
51.228
51.2382
51.2485
51.2588
51.2691
51.2796
51.2902
51.3008
51.3115
51.3223
51.3331
51.344
51.355
51.3661
51.3772
51.3885
51.3998
51.4111
51.4225
51.434
51.4456
51.4572
51.4688
51.4806
51.4924
51.5043
51.5162
51.5282
51.5403
51.5524
51.5646
51.5768
51.5891
51.6014
51.6139
51.6263
51.6388
51.6513
51.6639
51.6766
51.6892
51.702
51.7148
51.7277
51.7406
51.7534
51.7664
51.7794
51.7925
51.8055
51.8187
51.8318
51.845
51.8583
51.8715
51.8848
51.8981
51.9115
51.9248
51.9382
51.9517
51.9651
51.9786
51.9921
52.0056
52.0191
52.0327
52.0463
52.0598
52.0734
52.087
52.1007
52.1143
52.128
52.1416
52.1553
52.1689
52.1826
52.1963
52.21
52.2236
52.2373
52.251
52.2646
52.2783
52.292
52.3056
52.3192
52.3329
52.3465
52.3602
52.3736
52.3874
52.4007
52.4146
52.4277
52.4416
52.4546
52.4687
52.4814
52.4956
52.5081
52.5224
52.5348
52.5491
52.5614
50.7047
50.7056
50.7069
50.708
50.7091
50.7101
50.7113
50.7125
50.7138
50.7152
50.7167
50.7183
50.7201
50.7219
50.7239
50.726
50.7282
50.7304
50.7329
50.7354
50.738
50.7408
50.7437
50.7466
50.7497
50.7529
50.7563
50.7597
50.7632
50.7669
50.7707
50.7746
50.7786
50.7827
50.7869
50.7912
50.7956
50.8002
50.8049
50.8097
50.8145
50.8195
50.8245
50.8297
50.835
50.8404
50.8459
50.8516
50.8574
50.8632
50.8692
50.8752
50.8814
50.8877
50.894
50.9005
50.9071
50.9137
50.9205
50.9274
50.9344
50.9415
50.9487
50.956
50.9634
50.9709
50.9785
50.9862
50.9939
51.0018
51.0097
51.0178
51.0259
51.0342
51.0425
51.051
51.0596
51.0682
51.0769
51.0857
51.0946
51.1036
51.1126
51.1217
51.131
51.1404
51.1498
51.1593
51.1688
51.1785
51.1883
51.198
51.208
51.218
51.228
51.2382
51.2485
51.2588
51.2691
51.2796
51.2902
51.3008
51.3115
51.3223
51.3331
51.344
51.355
51.3661
51.3772
51.3885
51.3998
51.4111
51.4225
51.434
51.4456
51.4572
51.4688
51.4806
51.4924
51.5043
51.5162
51.5282
51.5403
51.5524
51.5646
51.5768
51.5891
51.6014
51.6139
51.6263
51.6388
51.6513
51.6639
51.6766
51.6892
51.702
51.7148
51.7277
51.7406
51.7534
51.7664
51.7794
51.7925
51.8055
51.8187
51.8318
51.845
51.8583
51.8715
51.8848
51.8981
51.9115
51.9248
51.9382
51.9517
51.9651
51.9786
51.9921
52.0056
52.0191
52.0327
52.0463
52.0598
52.0734
52.087
52.1007
52.1143
52.128
52.1416
52.1553
52.1689
52.1826
52.1963
52.21
52.2236
52.2373
52.251
52.2646
52.2783
52.292
52.3056
52.3192
52.3329
52.3465
52.3602
52.3736
52.3874
52.4007
52.4146
52.4277
52.4416
52.4546
52.4687
52.4814
52.4955
52.5082
52.5224
52.5348
52.5491
52.5612
50.7047
50.7056
50.7069
50.708
50.7091
50.7101
50.7113
50.7125
50.7138
50.7152
50.7167
50.7183
50.7201
50.7219
50.7239
50.726
50.7282
50.7304
50.7329
50.7354
50.738
50.7408
50.7437
50.7466
50.7497
50.7529
50.7563
50.7597
50.7632
50.7669
50.7707
50.7746
50.7786
50.7827
50.7869
50.7912
50.7956
50.8002
50.8049
50.8097
50.8145
50.8195
50.8245
50.8297
50.835
50.8404
50.8459
50.8516
50.8574
50.8632
50.8692
50.8752
50.8814
50.8877
50.894
50.9005
50.9071
50.9137
50.9205
50.9274
50.9344
50.9415
50.9487
50.956
50.9634
50.9709
50.9785
50.9862
50.9939
51.0018
51.0097
51.0178
51.0259
51.0342
51.0425
51.051
51.0596
51.0682
51.0769
51.0857
51.0946
51.1036
51.1126
51.1217
51.131
51.1404
51.1498
51.1593
51.1688
51.1785
51.1883
51.198
51.208
51.218
51.228
51.2382
51.2485
51.2588
51.2691
51.2796
51.2902
51.3008
51.3115
51.3223
51.3331
51.344
51.355
51.3661
51.3772
51.3885
51.3998
51.4111
51.4225
51.434
51.4456
51.4572
51.4688
51.4806
51.4924
51.5043
51.5162
51.5282
51.5403
51.5524
51.5646
51.5768
51.5891
51.6014
51.6139
51.6263
51.6388
51.6513
51.6639
51.6766
51.6892
51.702
51.7148
51.7277
51.7406
51.7534
51.7664
51.7794
51.7925
51.8055
51.8187
51.8318
51.845
51.8583
51.8715
51.8848
51.8981
51.9115
51.9248
51.9382
51.9517
51.9651
51.9786
51.9921
52.0056
52.0191
52.0327
52.0463
52.0598
52.0734
52.087
52.1007
52.1143
52.128
52.1416
52.1553
52.1689
52.1826
52.1963
52.21
52.2236
52.2373
52.251
52.2646
52.2783
52.292
52.3056
52.3192
52.3329
52.3465
52.3601
52.3737
52.3872
52.4008
52.4143
52.428
52.4412
52.4551
52.4682
52.4818
52.4953
52.5084
52.5221
52.5352
52.5484
52.5619
50.7047
50.7056
50.7069
50.708
50.7091
50.7102
50.7113
50.7125
50.7138
50.7152
50.7167
50.7183
50.7201
50.7219
50.7239
50.726
50.7282
50.7304
50.7329
50.7354
50.738
50.7408
50.7437
50.7466
50.7497
50.7529
50.7563
50.7597
50.7632
50.7669
50.7707
50.7746
50.7786
50.7827
50.7869
50.7912
50.7956
50.8002
50.8049
50.8097
50.8145
50.8195
50.8245
50.8297
50.835
50.8404
50.8459
50.8516
50.8574
50.8632
50.8692
50.8752
50.8814
50.8877
50.894
50.9005
50.9071
50.9137
50.9205
50.9274
50.9344
50.9415
50.9487
50.956
50.9634
50.9709
50.9785
50.9862
50.9939
51.0018
51.0097
51.0178
51.0259
51.0342
51.0425
51.051
51.0596
51.0682
51.0769
51.0857
51.0946
51.1036
51.1126
51.1217
51.131
51.1404
51.1498
51.1593
51.1688
51.1785
51.1883
51.198
51.208
51.218
51.228
51.2382
51.2485
51.2588
51.2691
51.2796
51.2902
51.3008
51.3115
51.3223
51.3331
51.344
51.355
51.3661
51.3772
51.3885
51.3998
51.4111
51.4225
51.434
51.4456
51.4572
51.4688
51.4806
51.4924
51.5043
51.5162
51.5282
51.5403
51.5524
51.5646
51.5768
51.5891
51.6014
51.6139
51.6263
51.6388
51.6513
51.6639
51.6766
51.6892
51.702
51.7148
51.7277
51.7406
51.7534
51.7664
51.7794
51.7925
51.8055
51.8187
51.8318
51.845
51.8583
51.8715
51.8848
51.8981
51.9115
51.9248
51.9382
51.9517
51.9651
51.9786
51.9921
52.0056
52.0191
52.0327
52.0463
52.0598
52.0734
52.087
52.1007
52.1143
52.128
52.1416
52.1553
52.1689
52.1826
52.1963
52.21
52.2236
52.2373
52.251
52.2646
52.2783
52.292
52.3056
52.3192
52.3328
52.3466
52.36
52.3738
52.3871
52.401
52.4142
52.4281
52.4411
52.4551
52.468
52.4821
52.4948
52.509
52.5215
52.5357
52.5477
52.5619
50.7047
50.7056
50.7069
50.708
50.7091
50.7102
50.7113
50.7125
50.7138
50.7152
50.7167
50.7183
50.7201
50.7219
50.7239
50.726
50.7282
50.7304
50.7329
50.7354
50.738
50.7408
50.7437
50.7466
50.7497
50.7529
50.7563
50.7597
50.7632
50.7669
50.7707
50.7746
50.7786
50.7827
50.7869
50.7913
50.7957
50.8002
50.8049
50.8097
50.8145
50.8195
50.8245
50.8297
50.835
50.8404
50.8459
50.8516
50.8574
50.8632
50.8692
50.8752
50.8814
50.8877
50.894
50.9005
50.9071
50.9137
50.9205
50.9274
50.9344
50.9415
50.9487
50.956
50.9634
50.9709
50.9785
50.9862
50.9939
51.0018
51.0097
51.0178
51.0259
51.0342
51.0425
51.051
51.0596
51.0682
51.0769
51.0857
51.0946
51.1036
51.1126
51.1217
51.131
51.1404
51.1498
51.1593
51.1688
51.1785
51.1883
51.198
51.208
51.218
51.228
51.2382
51.2485
51.2588
51.2691
51.2796
51.2902
51.3008
51.3115
51.3223
51.3331
51.344
51.355
51.3661
51.3772
51.3885
51.3998
51.4111
51.4225
51.434
51.4456
51.4572
51.4688
51.4806
51.4924
51.5043
51.5162
51.5282
51.5403
51.5524
51.5646
51.5768
51.5891
51.6014
51.6139
51.6263
51.6388
51.6513
51.6639
51.6766
51.6892
51.702
51.7148
51.7277
51.7406
51.7534
51.7664
51.7794
51.7925
51.8055
51.8187
51.8318
51.845
51.8583
51.8715
51.8848
51.8981
51.9115
51.9248
51.9382
51.9517
51.9651
51.9786
51.9921
52.0056
52.0191
52.0327
52.0463
52.0598
52.0734
52.087
52.1007
52.1143
52.128
52.1416
52.1553
52.1689
52.1826
52.1963
52.21
52.2236
52.2373
52.251
52.2646
52.2783
52.292
52.3056
52.3192
52.3328
52.3466
52.36
52.3738
52.3871
52.401
52.4142
52.4281
52.4411
52.4552
52.468
52.4821
52.4948
52.509
52.5214
52.5358
52.547
52.5626
50.7047
50.7056
50.7069
50.708
50.7091
50.7102
50.7113
50.7125
50.7138
50.7152
50.7167
50.7183
50.7201
50.7219
50.7239
50.726
50.7282
50.7304
50.7329
50.7354
50.738
50.7408
50.7437
50.7466
50.7497
50.7529
50.7563
50.7597
50.7632
50.7669
50.7707
50.7746
50.7786
50.7827
50.7869
50.7912
50.7956
50.8002
50.8049
50.8097
50.8145
50.8195
50.8245
50.8297
50.835
50.8404
50.8459
50.8516
50.8574
50.8632
50.8692
50.8752
50.8814
50.8877
50.894
50.9005
50.9071
50.9137
50.9205
50.9274
50.9344
50.9415
50.9487
50.956
50.9634
50.9709
50.9785
50.9862
50.9939
51.0018
51.0097
51.0178
51.0259
51.0342
51.0425
51.051
51.0596
51.0682
51.0769
51.0857
51.0946
51.1036
51.1126
51.1217
51.131
51.1404
51.1498
51.1593
51.1688
51.1785
51.1883
51.198
51.208
51.218
51.228
51.2382
51.2485
51.2588
51.2691
51.2796
51.2902
51.3008
51.3115
51.3223
51.3331
51.344
51.355
51.3661
51.3772
51.3885
51.3998
51.4111
51.4225
51.434
51.4456
51.4572
51.4688
51.4806
51.4924
51.5043
51.5162
51.5282
51.5403
51.5524
51.5646
51.5768
51.5891
51.6014
51.6139
51.6263
51.6388
51.6513
51.6639
51.6766
51.6892
51.702
51.7148
51.7277
51.7406
51.7534
51.7664
51.7794
51.7925
51.8055
51.8187
51.8318
51.845
51.8583
51.8715
51.8848
51.8981
51.9115
51.9248
51.9382
51.9517
51.9651
51.9786
51.9921
52.0056
52.0191
52.0327
52.0463
52.0598
52.0734
52.087
52.1007
52.1143
52.128
52.1416
52.1553
52.1689
52.1826
52.1963
52.21
52.2236
52.2373
52.251
52.2646
52.2783
52.292
52.3056
52.3192
52.3328
52.3466
52.36
52.3738
52.3871
52.401
52.4141
52.4281
52.441
52.4552
52.468
52.4821
52.4948
52.509
52.5214
52.5358
52.5468
52.5636
50.7041
50.7051
50.7064
50.7075
50.7085
50.7096
50.7108
50.712
50.7133
50.7147
50.7162
50.7178
50.7195
50.7215
50.7234
50.7255
50.7276
50.73
50.7324
50.7349
50.7376
50.7403
50.7432
50.7461
50.7492
50.7525
50.7558
50.7592
50.7628
50.7664
50.7702
50.7741
50.7781
50.7822
50.7864
50.7908
50.7952
50.7998
50.8044
50.8092
50.8141
50.819
50.8241
50.8292
50.8345
50.84
50.8455
50.8512
50.8569
50.8628
50.8687
50.8748
50.881
50.8872
50.8937
50.9001
50.9066
50.9133
50.9201
50.927
50.934
50.9411
50.9483
50.9556
50.9631
50.9705
50.9782
50.9858
50.9935
51.0014
51.0094
51.0174
51.0255
51.0338
51.0422
51.0506
51.0592
51.0678
51.0765
51.0853
51.0943
51.1032
51.1123
51.1214
51.1307
51.14
51.1494
51.1589
51.1685
51.1782
51.1879
51.1977
51.2077
51.2177
51.2277
51.2379
51.2481
51.2584
51.2688
51.2793
51.2899
51.3005
51.3111
51.3219
51.3327
51.3437
51.3547
51.3657
51.3769
51.3881
51.3994
51.4108
51.4222
51.4337
51.4452
51.4568
51.4685
51.4803
51.4921
51.5039
51.5159
51.5279
51.5399
51.552
51.5642
51.5764
51.5887
51.6011
51.6135
51.6259
51.6384
51.6509
51.6636
51.6763
51.6889
51.7017
51.7145
51.7273
51.7402
51.7531
51.7661
51.7791
51.7921
51.8052
51.8183
51.8315
51.8447
51.8579
51.8712
51.8845
51.8978
51.9111
51.9245
51.9379
51.9513
51.9648
51.9782
51.9917
52.0053
52.0188
52.0323
52.0459
52.0595
52.0731
52.0867
52.1004
52.114
52.1276
52.1413
52.155
52.1686
52.1822
52.196
52.2096
52.2232
52.2369
52.2506
52.2643
52.278
52.2916
52.3052
52.3189
52.3325
52.3462
52.3596
52.3734
52.3868
52.4006
52.4138
52.4278
52.4407
52.4549
52.4677
52.4818
52.4944
52.5087
52.5211
52.5354
52.5463
52.5647
52.5724
52.5763
52.579
52.5812
52.5834
52.5858
52.5883
52.5907
52.593
52.5954
52.5977
52.6
52.6022
52.6046
52.6068
52.609
52.6112
52.6134
52.6155
52.6178
52.5723
52.5762
52.5791
52.5814
52.5837
52.586
52.5883
52.5907
52.593
52.5955
52.5979
52.6003
52.6026
52.605
52.6073
52.6096
52.6118
52.6139
52.6161
52.6181
52.572
52.5761
52.5793
52.5817
52.5839
52.5862
52.5884
52.5907
52.593
52.5953
52.5979
52.6004
52.6026
52.6051
52.6074
52.6098
52.6119
52.6141
52.6161
52.6181
52.5713
52.5746
52.5772
52.5796
52.582
52.5843
52.5866
52.5889
52.591
52.5934
52.5955
52.5977
52.5998
52.6021
52.6042
52.6064
52.6085
52.6107
52.6126
52.6147
52.5713
52.5746
52.5776
52.5804
52.583
52.5855
52.5879
52.5903
52.5926
52.595
52.5973
52.5997
52.602
52.6043
52.6065
52.6087
52.611
52.6131
52.6151
52.617
52.5681
52.5699
52.5715
52.5733
52.5751
52.5773
52.5795
52.582
52.5842
52.5865
52.5887
52.5911
52.5933
52.5955
52.5976
52.5998
52.6019
52.6042
52.6065
52.609
52.5673
52.5691
52.5716
52.5742
52.5767
52.5791
52.5815
52.5837
52.5863
52.5887
52.5911
52.5936
52.5962
52.5987
52.6013
52.6039
52.6065
52.6093
52.612
52.6148
52.5639
52.5633
52.563
52.5636
52.5651
52.5669
52.569
52.5712
52.5735
52.576
52.5785
52.5811
52.5838
52.5866
52.5895
52.5926
52.5957
52.5991
52.6026
52.6064
52.5638
52.5636
52.5639
52.5652
52.5668
52.5688
52.571
52.5733
52.5758
52.5784
52.5811
52.5839
52.5868
52.5897
52.5927
52.5958
52.5991
52.6024
52.6059
52.6095
52.5632
52.5615
52.5612
52.5621
52.5636
52.5655
52.5676
52.5698
52.5721
52.5746
52.5773
52.5799
52.5827
52.5855
52.5885
52.5915
52.5947
52.5981
52.6017
52.6055
52.6199
52.6285
52.6386
52.6486
52.6587
52.6689
52.6792
52.6895
52.6995
52.7096
52.7196
52.7296
52.7396
52.7496
52.7595
52.7695
52.7793
52.7892
52.799
52.8088
52.8185
52.8281
52.8378
52.8474
52.857
52.8666
52.8761
52.8857
52.8952
52.9046
52.914
52.9234
52.9327
52.942
52.9512
52.9604
52.9696
52.9787
52.9878
52.9969
53.0059
53.0149
53.0239
53.0328
53.0417
53.0504
53.0592
53.068
53.0767
53.0853
53.094
53.1026
53.1111
53.1196
53.128
53.1364
53.1447
53.1531
53.1613
53.1695
53.1777
53.1858
53.1938
53.202
53.2099
53.2178
53.2257
53.2336
53.2415
53.2492
53.2569
53.2646
53.2722
53.2798
53.2874
53.2949
53.3023
53.3097
53.3171
53.3245
53.3318
53.3393
53.3467
53.3538
53.3609
53.3678
53.3749
53.3823
53.3903
53.398
53.4049
53.4091
53.4041
53.3719
53.3236
53.2785
53.2409
53.2139
53.1992
53.1961
53.2013
53.2107
53.2337
53.2955
53.3683
53.4272
53.4713
53.5018
53.5217
53.5346
53.5436
53.5503
53.5537
53.5543
53.5563
53.5594
53.5632
53.5676
53.5723
53.5771
53.5821
53.587
53.592
53.597
53.6019
53.6068
53.6118
53.6166
53.6213
53.6261
53.6307
53.6354
53.64
53.6445
53.649
53.6534
53.6578
53.6621
53.6663
53.6706
53.6748
53.679
53.683
53.6871
53.691
53.695
53.6989
53.7028
53.7064
53.7103
53.7139
53.7175
53.7212
53.7247
53.7282
53.7316
53.735
53.7384
53.7416
53.745
53.7482
53.7514
53.7544
53.7575
53.7605
53.7635
53.7664
53.7693
53.7721
53.7749
53.7776
53.7804
53.783
53.7856
53.7882
53.7907
53.7932
53.7956
53.7979
53.8003
53.8025
53.805
53.8069
53.8094
53.8111
53.8136
53.8152
53.8177
53.8192
53.8216
53.823
53.8252
53.8266
53.8288
53.8301
53.8322
53.8334
53.8355
53.8364
53.8383
52.6206
52.6292
52.6392
52.6495
52.6595
52.6698
52.68
52.6903
52.7005
52.7106
52.7205
52.7306
52.7406
52.7506
52.7605
52.7705
52.7804
52.7902
52.8
52.8098
52.8195
52.8292
52.8389
52.8485
52.8581
52.8677
52.8772
52.8867
52.8963
52.9056
52.9151
52.9244
52.9338
52.943
52.9523
52.9615
52.9707
52.9798
52.9889
52.998
53.007
53.016
53.0249
53.0338
53.0428
53.0515
53.0603
53.0691
53.0777
53.0864
53.095
53.1036
53.1122
53.1206
53.1291
53.1375
53.1459
53.1542
53.1624
53.1706
53.1788
53.1869
53.1949
53.203
53.211
53.219
53.2268
53.2347
53.2425
53.2503
53.2581
53.2657
53.2733
53.2809
53.2884
53.296
53.3034
53.3108
53.3182
53.3255
53.3328
53.3401
53.3474
53.3545
53.3615
53.3684
53.3754
53.3827
53.3901
53.3978
53.4054
53.4131
53.4213
53.4295
53.4377
53.4455
53.452
53.4544
53.4524
53.4497
53.4477
53.4473
53.4496
53.4551
53.4623
53.4709
53.4838
53.4982
53.5101
53.5199
53.5285
53.5361
53.5427
53.5479
53.5524
53.5571
53.562
53.567
53.5721
53.5772
53.5822
53.5873
53.5923
53.5973
53.6023
53.6072
53.6121
53.6169
53.6216
53.6264
53.6311
53.6357
53.6403
53.6448
53.6493
53.6537
53.6581
53.6625
53.6667
53.671
53.6751
53.6792
53.6833
53.6874
53.6914
53.6953
53.6992
53.703
53.7068
53.7105
53.7142
53.7179
53.7214
53.725
53.7285
53.7319
53.7353
53.7387
53.742
53.7452
53.7485
53.7516
53.7547
53.7578
53.7608
53.7638
53.7667
53.7696
53.7725
53.7753
53.778
53.7807
53.7833
53.7859
53.7884
53.791
53.7935
53.7959
53.7982
53.8006
53.8028
53.8053
53.8072
53.8097
53.8115
53.8139
53.8155
53.8179
53.8195
53.8218
53.8233
53.8255
53.8269
53.8291
53.8304
53.8324
53.8337
53.8358
53.8368
53.8385
52.6209
52.6293
52.6393
52.6494
52.6594
52.6696
52.6798
52.6901
52.7003
52.7103
52.7204
52.7304
52.7404
52.7504
52.7603
52.7703
52.7802
52.79
52.7998
52.8096
52.8194
52.829
52.8387
52.8483
52.8579
52.8675
52.877
52.8865
52.8961
52.9054
52.9149
52.9242
52.9336
52.9429
52.9521
52.9613
52.9705
52.9796
52.9887
52.9977
53.0068
53.0158
53.0247
53.0336
53.0426
53.0513
53.0601
53.0689
53.0776
53.0862
53.0949
53.1035
53.112
53.1205
53.1289
53.1373
53.1457
53.154
53.1622
53.1705
53.1786
53.1868
53.1948
53.2029
53.2108
53.2188
53.2267
53.2345
53.2423
53.2501
53.2579
53.2655
53.2731
53.2807
53.2883
53.2958
53.3032
53.3106
53.318
53.3253
53.3326
53.3398
53.3471
53.3543
53.3615
53.3684
53.3751
53.3818
53.3887
53.3966
53.405
53.4139
53.4241
53.4352
53.4453
53.4546
53.4633
53.4717
53.4795
53.4861
53.4888
53.4883
53.4882
53.4889
53.4907
53.494
53.4987
53.5044
53.511
53.518
53.525
53.5317
53.5382
53.5443
53.5501
53.5557
53.5612
53.5665
53.5718
53.577
53.5822
53.5872
53.5923
53.5974
53.6022
53.6072
53.6121
53.6169
53.6216
53.6264
53.6311
53.6357
53.6403
53.6448
53.6493
53.6537
53.6581
53.6625
53.6667
53.671
53.6751
53.6792
53.6833
53.6874
53.6913
53.6953
53.6992
53.703
53.7068
53.7105
53.7142
53.7179
53.7214
53.725
53.7285
53.7319
53.7353
53.7387
53.742
53.7452
53.7485
53.7516
53.7547
53.7578
53.7608
53.7638
53.7667
53.7696
53.7725
53.7753
53.778
53.7807
53.7833
53.7859
53.7884
53.791
53.7935
53.7959
53.7982
53.8006
53.8028
53.8053
53.8072
53.8097
53.8115
53.8139
53.8155
53.8179
53.8195
53.8218
53.8233
53.8255
53.827
53.8291
53.8304
53.8324
53.8337
53.8358
53.8369
53.8387
52.619
52.6278
52.6377
52.6479
52.658
52.6681
52.678
52.6881
52.6982
52.7082
52.7182
52.7282
52.7381
52.7481
52.758
52.7679
52.7777
52.7875
52.7974
52.8071
52.8168
52.8265
52.8362
52.8458
52.8554
52.865
52.8746
52.8841
52.8935
52.903
52.9124
52.9218
52.9311
52.9404
52.9496
52.9588
52.968
52.9771
52.9863
52.9953
53.0044
53.0133
53.0222
53.0312
53.04
53.0489
53.0576
53.0664
53.0751
53.0838
53.0924
53.1009
53.1095
53.118
53.1264
53.1349
53.1431
53.1515
53.1597
53.1679
53.1761
53.1843
53.1923
53.2004
53.2083
53.2163
53.2242
53.2321
53.2399
53.2477
53.2554
53.263
53.2707
53.2783
53.2859
53.2933
53.3008
53.3083
53.3157
53.3231
53.3304
53.3378
53.3452
53.3523
53.3594
53.3663
53.3731
53.38
53.3876
53.3959
53.4046
53.4142
53.4247
53.4345
53.4437
53.4524
53.4609
53.4689
53.476
53.4807
53.4832
53.4856
53.4883
53.4914
53.4952
53.4995
53.5044
53.5097
53.5154
53.5213
53.5271
53.533
53.5388
53.5445
53.5501
53.5555
53.561
53.5663
53.5716
53.5768
53.582
53.5871
53.5921
53.5972
53.6021
53.6071
53.612
53.6168
53.6216
53.6264
53.631
53.6357
53.6402
53.6448
53.6493
53.6537
53.6581
53.6624
53.6667
53.671
53.6751
53.6792
53.6833
53.6874
53.6913
53.6953
53.6992
53.703
53.7068
53.7105
53.7142
53.7179
53.7214
53.725
53.7285
53.7319
53.7353
53.7387
53.742
53.7452
53.7485
53.7516
53.7547
53.7578
53.7608
53.7638
53.7667
53.7696
53.7725
53.7753
53.778
53.7807
53.7833
53.7859
53.7884
53.791
53.7935
53.7959
53.7983
53.8006
53.8028
53.8052
53.8073
53.8096
53.8115
53.8138
53.8156
53.818
53.8195
53.8218
53.8233
53.8255
53.827
53.8291
53.8304
53.8324
53.8338
53.8358
53.8371
53.8387
52.622
52.6313
52.6409
52.6507
52.6607
52.6709
52.6811
52.6912
52.7013
52.7112
52.7212
52.7312
52.7412
52.7511
52.761
52.7709
52.7808
52.7906
52.8004
52.8102
52.8199
52.8296
52.8393
52.8489
52.8585
52.8681
52.8777
52.8872
52.8967
52.9061
52.9155
52.9249
52.9342
52.9435
52.9527
52.9619
52.9711
52.9803
52.9894
52.9984
53.0075
53.0165
53.0254
53.0343
53.0432
53.052
53.0607
53.0695
53.0782
53.0869
53.0955
53.1041
53.1126
53.121
53.1295
53.1379
53.1463
53.1546
53.1628
53.1711
53.1792
53.1874
53.1954
53.2035
53.2114
53.2194
53.2272
53.2351
53.243
53.2507
53.2584
53.266
53.2736
53.2813
53.2888
53.2963
53.3037
53.3111
53.3184
53.3257
53.333
53.3401
53.3473
53.3544
53.3615
53.3685
53.3755
53.3822
53.3888
53.3955
53.4028
53.4107
53.4189
53.4274
53.4359
53.4443
53.4524
53.46
53.467
53.473
53.4783
53.4831
53.4877
53.4922
53.4968
53.5016
53.5067
53.5119
53.5172
53.5226
53.5282
53.5336
53.5392
53.5447
53.5501
53.5556
53.5609
53.5662
53.5715
53.5767
53.5819
53.5871
53.5921
53.5972
53.6021
53.6071
53.612
53.6168
53.6216
53.6264
53.631
53.6357
53.6402
53.6448
53.6493
53.6537
53.6581
53.6624
53.6667
53.671
53.6751
53.6792
53.6833
53.6874
53.6913
53.6953
53.6992
53.703
53.7068
53.7105
53.7142
53.7179
53.7214
53.725
53.7285
53.7319
53.7353
53.7387
53.742
53.7452
53.7485
53.7516
53.7547
53.7578
53.7608
53.7638
53.7667
53.7696
53.7725
53.7753
53.778
53.7807
53.7833
53.7859
53.7884
53.791
53.7935
53.7959
53.7983
53.8006
53.8029
53.8052
53.8074
53.8095
53.8117
53.8137
53.8157
53.8178
53.8197
53.8216
53.8236
53.8252
53.8272
53.8289
53.8305
53.8324
53.8338
53.8356
53.837
53.8387
52.6158
52.6262
52.6361
52.6457
52.6554
52.665
52.6747
52.6844
52.694
52.7038
52.7136
52.7235
52.7333
52.7432
52.753
52.7629
52.7727
52.7825
52.7923
52.8021
52.8118
52.8215
52.8312
52.8408
52.8505
52.86
52.8696
52.879
52.8886
52.898
52.9074
52.9167
52.9261
52.9353
52.9446
52.9538
52.963
52.9721
52.9812
52.9903
52.9993
53.0083
53.0173
53.0262
53.0351
53.0438
53.0526
53.0614
53.0701
53.0788
53.0874
53.096
53.1045
53.113
53.1214
53.1299
53.1382
53.1466
53.1549
53.1631
53.1713
53.1794
53.1875
53.1956
53.2037
53.2117
53.2197
53.2276
53.2355
53.2434
53.2512
53.2589
53.2667
53.2744
53.2822
53.2898
53.2974
53.3051
53.3126
53.3201
53.3275
53.3346
53.3418
53.3489
53.356
53.3634
53.3713
53.3797
53.3882
53.3969
53.4055
53.414
53.422
53.4297
53.4373
53.4446
53.4516
53.458
53.464
53.4695
53.4747
53.4797
53.4846
53.4896
53.4947
53.5
53.5054
53.5108
53.5164
53.522
53.5276
53.5331
53.5387
53.5442
53.5497
53.5552
53.5606
53.566
53.5713
53.5766
53.5818
53.5869
53.592
53.5971
53.6021
53.607
53.612
53.6168
53.6216
53.6264
53.631
53.6357
53.6402
53.6448
53.6493
53.6537
53.6581
53.6624
53.6667
53.671
53.6751
53.6792
53.6833
53.6874
53.6913
53.6953
53.6992
53.703
53.7068
53.7105
53.7142
53.7179
53.7214
53.725
53.7285
53.7319
53.7353
53.7387
53.742
53.7452
53.7485
53.7516
53.7547
53.7578
53.7608
53.7638
53.7667
53.7696
53.7725
53.7753
53.778
53.7807
53.7833
53.7859
53.7884
53.791
53.7935
53.7958
53.7983
53.8006
53.8029
53.8051
53.8075
53.8094
53.8118
53.8135
53.8159
53.8176
53.8199
53.8215
53.8237
53.8251
53.8273
53.8287
53.8308
53.8321
53.8341
53.8354
53.8373
53.8385
52.6234
52.6343
52.6445
52.6546
52.6647
52.6748
52.6849
52.695
52.705
52.7151
52.725
52.7349
52.7448
52.7547
52.7646
52.7744
52.7843
52.7942
52.8039
52.8137
52.8235
52.8332
52.8429
52.8526
52.8622
52.8718
52.8813
52.8908
52.9004
52.9097
52.9192
52.9285
52.9379
52.9471
52.9564
52.9656
52.9748
52.9839
52.993
53.002
53.0111
53.0201
53.0291
53.0379
53.0468
53.0556
53.0644
53.0731
53.0818
53.0905
53.0991
53.1077
53.1162
53.1246
53.1331
53.1415
53.1499
53.1582
53.1665
53.1747
53.1829
53.191
53.1991
53.2071
53.2151
53.223
53.231
53.2388
53.2466
53.2544
53.2622
53.2698
53.2774
53.285
53.2925
53.3
53.3075
53.3149
53.3222
53.3295
53.3368
53.344
53.3512
53.3582
53.3652
53.3721
53.3791
53.386
53.3929
53.3997
53.4064
53.4128
53.4188
53.4247
53.4311
53.4381
53.4455
53.4532
53.4612
53.4693
53.4771
53.4841
53.4896
53.4941
53.4986
53.503
53.5076
53.5124
53.5175
53.5227
53.5281
53.5335
53.5389
53.5443
53.5498
53.5552
53.5606
53.566
53.5713
53.5765
53.5818
53.5869
53.592
53.5971
53.6021
53.607
53.612
53.6168
53.6216
53.6264
53.631
53.6357
53.6402
53.6448
53.6493
53.6537
53.6581
53.6624
53.6667
53.671
53.6751
53.6792
53.6833
53.6874
53.6913
53.6953
53.6992
53.703
53.7068
53.7105
53.7142
53.7179
53.7214
53.725
53.7285
53.7319
53.7353
53.7387
53.742
53.7452
53.7485
53.7516
53.7547
53.7578
53.7608
53.7638
53.7667
53.7696
53.7725
53.7753
53.778
53.7807
53.7833
53.7859
53.7884
53.791
53.7935
53.7958
53.7983
53.8006
53.8029
53.8051
53.8075
53.8094
53.8118
53.8135
53.8159
53.8176
53.8199
53.8215
53.8237
53.8251
53.8273
53.8287
53.8308
53.8321
53.8341
53.8355
53.837
53.8385
52.6185
52.6297
52.6395
52.649
52.6582
52.6675
52.6768
52.6861
52.6954
52.7049
52.7144
52.724
52.7337
52.7436
52.7534
52.7632
52.773
52.7828
52.7926
52.8024
52.8121
52.8219
52.8315
52.8412
52.8508
52.8604
52.8699
52.8794
52.8889
52.8983
52.9076
52.917
52.9264
52.9357
52.9449
52.9541
52.9633
52.9725
52.9816
52.9906
52.9996
53.0087
53.0176
53.0266
53.0355
53.0443
53.0531
53.0618
53.0706
53.0793
53.0879
53.0965
53.105
53.1136
53.1221
53.1304
53.1388
53.1471
53.1554
53.1635
53.1717
53.1798
53.1879
53.1959
53.2039
53.2119
53.2198
53.2277
53.2356
53.2435
53.2513
53.2591
53.2669
53.2747
53.2824
53.2901
53.2977
53.3052
53.3126
53.3199
53.3271
53.3343
53.3414
53.3483
53.3553
53.3623
53.3693
53.3766
53.3843
53.3924
53.4008
53.4091
53.4176
53.4258
53.4338
53.4416
53.4492