/*--------------------------------*- C++ -*----------------------------------*\
| =========                 |                                                 |
| \\      /  F ield         | OpenFOAM: The Open Source CFD Toolbox           |
|  \\    /   O peration     | Version:  3.0.x                                 |
|   \\  /    A nd           | Web:      www.OpenFOAM.org                      |
|    \\/     M anipulation  |                                                 |
\*---------------------------------------------------------------------------*/
FoamFile
{
    version     2.0;
    format      ascii;
    class       volScalarField;
    location    "0.51";
    object      T;
}
// * * * * * * * * * * * * * * * * * * * * * * * * * * * * * * * * * * * * * //

dimensions      [0 0 0 1 0 0 0];

internalField   nonuniform List<scalar> 
13800
(
773.781
773.773
773.765
773.761
773.761
773.762
773.763
773.766
773.77
773.775
773.779
773.784
773.789
773.794
773.8
773.807
773.814
773.82
773.828
773.836
773.843
773.852
773.861
773.87
773.879
773.889
773.899
773.909
773.921
773.932
773.943
773.955
773.967
773.98
773.993
774.005
774.019
774.033
774.048
774.061
774.077
774.092
774.108
774.125
774.141
774.156
774.174
774.189
774.207
774.225
774.243
774.26
774.28
774.299
774.317
774.338
774.358
774.378
774.399
774.42
774.44
774.462
774.483
774.505
774.526
774.549
774.571
774.594
774.619
774.642
774.666
774.691
774.716
774.74
774.766
774.79
774.816
774.842
774.868
774.895
774.921
774.948
774.976
775.004
775.032
775.06
775.089
775.117
775.146
775.175
775.205
775.236
775.265
775.295
775.326
775.357
775.388
775.419
775.451
775.483
775.514
775.547
775.579
775.612
775.646
775.678
775.711
775.745
775.778
775.812
775.847
775.881
775.915
775.95
775.985
776.021
776.056
776.091
776.127
776.163
776.199
776.234
776.272
776.308
776.345
776.382
776.419
776.456
776.493
776.531
776.569
776.607
776.644
776.682
776.721
776.759
776.798
776.837
776.875
776.915
776.954
776.993
777.032
777.071
777.111
777.15
777.19
777.229
777.27
777.309
777.349
777.389
777.43
777.47
777.51
777.551
777.591
777.632
777.672
777.713
777.754
777.794
777.835
777.876
777.917
777.957
777.998
778.039
778.08
778.12
778.161
778.203
778.243
778.284
778.326
778.366
778.407
778.448
778.488
778.529
778.57
778.611
778.651
778.692
778.732
778.774
778.812
778.856
778.891
778.938
778.971
779.019
779.05
779.101
779.129
779.182
779.209
779.26
779.296
779.331
773.772
773.765
773.757
773.753
773.753
773.753
773.755
773.759
773.762
773.767
773.771
773.776
773.782
773.788
773.793
773.799
773.806
773.814
773.821
773.828
773.836
773.844
773.853
773.863
773.872
773.882
773.892
773.902
773.914
773.925
773.936
773.948
773.96
773.972
773.986
773.999
774.013
774.026
774.04
774.055
774.07
774.085
774.101
774.118
774.133
774.15
774.167
774.183
774.201
774.218
774.236
774.255
774.273
774.292
774.312
774.331
774.351
774.372
774.393
774.414
774.434
774.456
774.477
774.499
774.52
774.542
774.565
774.588
774.613
774.636
774.661
774.685
774.71
774.735
774.76
774.785
774.81
774.836
774.863
774.89
774.916
774.943
774.971
774.999
775.027
775.055
775.084
775.112
775.141
775.17
775.2
775.231
775.26
775.29
775.321
775.352
775.383
775.414
775.446
775.478
775.509
775.542
775.574
775.606
775.64
775.673
775.706
775.74
775.774
775.807
775.841
775.876
775.911
775.945
775.98
776.015
776.051
776.086
776.121
776.157
776.193
776.23
776.266
776.303
776.339
776.377
776.414
776.451
776.488
776.526
776.564
776.602
776.639
776.677
776.716
776.754
776.793
776.831
776.87
776.909
776.949
776.988
777.027
777.066
777.105
777.145
777.185
777.224
777.264
777.304
777.344
777.384
777.425
777.465
777.505
777.546
777.586
777.627
777.667
777.708
777.748
777.789
777.83
777.87
777.912
777.952
777.993
778.034
778.074
778.115
778.156
778.198
778.238
778.279
778.321
778.361
778.402
778.443
778.483
778.524
778.565
778.606
778.646
778.687
778.727
778.769
778.807
778.851
778.886
778.933
778.966
779.014
779.045
779.096
779.124
779.177
779.203
779.256
779.284
779.346
773.772
773.765
773.757
773.753
773.753
773.753
773.755
773.759
773.762
773.767
773.771
773.776
773.782
773.788
773.793
773.799
773.806
773.814
773.821
773.828
773.836
773.844
773.853
773.863
773.872
773.882
773.892
773.902
773.914
773.925
773.936
773.948
773.96
773.972
773.986
773.998
774.012
774.026
774.04
774.055
774.07
774.085
774.101
774.118
774.133
774.15
774.167
774.183
774.201
774.218
774.236
774.255
774.273
774.292
774.312
774.331
774.351
774.372
774.393
774.414
774.434
774.456
774.477
774.499
774.52
774.542
774.565
774.589
774.613
774.636
774.66
774.684
774.71
774.735
774.76
774.785
774.81
774.836
774.863
774.89
774.916
774.943
774.971
774.999
775.027
775.055
775.084
775.112
775.141
775.17
775.2
775.231
775.26
775.29
775.321
775.352
775.383
775.414
775.446
775.478
775.509
775.542
775.574
775.606
775.64
775.673
775.706
775.74
775.774
775.807
775.841
775.876
775.911
775.945
775.98
776.015
776.051
776.086
776.121
776.157
776.193
776.23
776.266
776.303
776.339
776.377
776.414
776.451
776.488
776.526
776.564
776.602
776.639
776.677
776.716
776.754
776.793
776.831
776.87
776.909
776.949
776.988
777.027
777.066
777.105
777.145
777.185
777.224
777.264
777.304
777.344
777.384
777.425
777.465
777.505
777.546
777.586
777.627
777.667
777.708
777.748
777.789
777.83
777.87
777.912
777.952
777.993
778.034
778.074
778.115
778.156
778.198
778.238
778.279
778.321
778.361
778.402
778.443
778.483
778.524
778.565
778.606
778.646
778.687
778.727
778.769
778.807
778.851
778.886
778.933
778.966
779.014
779.045
779.096
779.124
779.177
779.203
779.256
779.284
779.347
773.772
773.765
773.757
773.753
773.753
773.753
773.755
773.759
773.762
773.767
773.771
773.776
773.782
773.788
773.793
773.799
773.806
773.814
773.821
773.828
773.836
773.844
773.853
773.863
773.872
773.882
773.892
773.902
773.914
773.925
773.936
773.948
773.96
773.972
773.986
773.999
774.013
774.026
774.04
774.055
774.07
774.085
774.101
774.118
774.133
774.15
774.167
774.183
774.201
774.218
774.236
774.255
774.273
774.292
774.312
774.331
774.351
774.372
774.393
774.414
774.434
774.456
774.477
774.499
774.52
774.542
774.565
774.588
774.613
774.636
774.661
774.684
774.71
774.735
774.76
774.785
774.81
774.836
774.863
774.89
774.916
774.943
774.971
774.999
775.027
775.055
775.084
775.112
775.141
775.17
775.2
775.231
775.26
775.29
775.321
775.352
775.383
775.414
775.446
775.478
775.509
775.542
775.574
775.606
775.64
775.673
775.706
775.74
775.774
775.807
775.841
775.876
775.911
775.945
775.98
776.015
776.051
776.086
776.121
776.157
776.193
776.23
776.266
776.303
776.339
776.377
776.414
776.451
776.488
776.526
776.564
776.602
776.639
776.677
776.716
776.754
776.793
776.831
776.87
776.909
776.949
776.988
777.027
777.066
777.105
777.145
777.185
777.224
777.264
777.304
777.344
777.384
777.425
777.465
777.505
777.546
777.586
777.627
777.667
777.708
777.748
777.789
777.83
777.87
777.912
777.952
777.993
778.034
778.074
778.115
778.156
778.198
778.238
778.279
778.321
778.361
778.402
778.443
778.483
778.524
778.565
778.606
778.646
778.687
778.727
778.769
778.807
778.851
778.886
778.933
778.966
779.014
779.045
779.096
779.124
779.177
779.204
779.256
779.284
779.339
773.772
773.765
773.757
773.753
773.753
773.754
773.756
773.759
773.762
773.767
773.771
773.776
773.782
773.788
773.793
773.799
773.806
773.814
773.821
773.828
773.836
773.844
773.853
773.863
773.872
773.882
773.892
773.902
773.914
773.925
773.936
773.948
773.96
773.972
773.986
773.999
774.013
774.026
774.04
774.055
774.07
774.085
774.101
774.118
774.133
774.15
774.167
774.183
774.201
774.218
774.236
774.255
774.273
774.292
774.312
774.331
774.351
774.372
774.393
774.414
774.434
774.456
774.477
774.499
774.52
774.542
774.565
774.588
774.613
774.636
774.661
774.684
774.71
774.735
774.76
774.785
774.81
774.836
774.863
774.89
774.916
774.943
774.971
774.999
775.027
775.055
775.084
775.112
775.141
775.17
775.2
775.231
775.26
775.29
775.321
775.352
775.383
775.414
775.446
775.478
775.509
775.542
775.574
775.606
775.64
775.673
775.706
775.74
775.774
775.807
775.841
775.876
775.911
775.945
775.98
776.015
776.051
776.086
776.121
776.157
776.193
776.23
776.266
776.303
776.339
776.377
776.414
776.451
776.488
776.526
776.564
776.602
776.639
776.677
776.716
776.754
776.793
776.831
776.87
776.909
776.949
776.988
777.027
777.066
777.105
777.145
777.185
777.224
777.264
777.304
777.344
777.384
777.425
777.465
777.505
777.546
777.586
777.627
777.667
777.708
777.748
777.789
777.83
777.87
777.912
777.952
777.993
778.034
778.074
778.115
778.156
778.198
778.238
778.279
778.321
778.361
778.402
778.443
778.483
778.524
778.565
778.606
778.646
778.687
778.727
778.769
778.807
778.851
778.886
778.933
778.966
779.014
779.045
779.095
779.125
779.176
779.204
779.256
779.283
779.341
773.772
773.765
773.757
773.753
773.753
773.754
773.756
773.759
773.762
773.767
773.771
773.776
773.782
773.788
773.793
773.799
773.806
773.814
773.821
773.828
773.836
773.844
773.853
773.863
773.872
773.882
773.892
773.902
773.914
773.925
773.936
773.948
773.96
773.972
773.986
773.999
774.013
774.026
774.04
774.055
774.07
774.085
774.101
774.118
774.133
774.15
774.167
774.183
774.201
774.218
774.236
774.255
774.273
774.292
774.312
774.331
774.351
774.372
774.393
774.414
774.434
774.456
774.477
774.499
774.52
774.542
774.565
774.588
774.613
774.636
774.661
774.684
774.71
774.735
774.76
774.785
774.81
774.836
774.863
774.89
774.916
774.943
774.971
774.999
775.027
775.055
775.084
775.112
775.141
775.17
775.2
775.231
775.26
775.29
775.321
775.352
775.383
775.414
775.446
775.478
775.509
775.542
775.574
775.606
775.64
775.673
775.706
775.74
775.774
775.807
775.841
775.876
775.911
775.945
775.98
776.015
776.051
776.086
776.121
776.157
776.193
776.23
776.266
776.303
776.339
776.377
776.414
776.451
776.488
776.526
776.564
776.602
776.639
776.677
776.716
776.754
776.793
776.831
776.87
776.909
776.949
776.988
777.027
777.066
777.105
777.145
777.185
777.224
777.264
777.304
777.344
777.384
777.425
777.465
777.505
777.546
777.586
777.627
777.667
777.708
777.748
777.789
777.83
777.87
777.912
777.952
777.993
778.034
778.074
778.115
778.156
778.198
778.238
778.279
778.321
778.361
778.402
778.443
778.483
778.524
778.565
778.606
778.646
778.687
778.728
778.768
778.809
778.849
778.89
778.928
778.973
779.006
779.053
779.09
779.129
779.172
779.208
779.25
779.29
779.325
773.772
773.765
773.757
773.753
773.753
773.753
773.755
773.759
773.762
773.767
773.771
773.776
773.782
773.788
773.793
773.799
773.806
773.814
773.821
773.828
773.836
773.844
773.853
773.863
773.872
773.882
773.892
773.902
773.914
773.925
773.936
773.948
773.96
773.972
773.986
773.999
774.013
774.026
774.04
774.055
774.07
774.085
774.101
774.118
774.133
774.15
774.167
774.183
774.201
774.218
774.236
774.255
774.273
774.292
774.312
774.331
774.351
774.372
774.393
774.414
774.434
774.456
774.477
774.499
774.52
774.542
774.565
774.588
774.613
774.636
774.661
774.684
774.71
774.735
774.76
774.785
774.81
774.836
774.863
774.89
774.916
774.943
774.971
774.999
775.027
775.055
775.084
775.112
775.141
775.17
775.2
775.231
775.26
775.29
775.321
775.352
775.383
775.414
775.446
775.478
775.509
775.542
775.574
775.606
775.64
775.673
775.706
775.74
775.774
775.807
775.841
775.876
775.911
775.945
775.98
776.015
776.051
776.086
776.121
776.157
776.193
776.23
776.266
776.303
776.339
776.377
776.414
776.451
776.488
776.526
776.564
776.602
776.639
776.677
776.716
776.754
776.793
776.831
776.87
776.909
776.949
776.988
777.027
777.066
777.105
777.145
777.185
777.224
777.264
777.304
777.344
777.384
777.425
777.465
777.505
777.546
777.586
777.627
777.667
777.708
777.748
777.789
777.83
777.87
777.912
777.952
777.993
778.034
778.074
778.115
778.156
778.198
778.238
778.279
778.321
778.361
778.402
778.443
778.483
778.524
778.565
778.605
778.647
778.686
778.729
778.767
778.811
778.846
778.892
778.926
778.974
779.006
779.055
779.086
779.136
779.163
779.217
779.242
779.298
779.321
773.772
773.765
773.757
773.753
773.753
773.753
773.755
773.759
773.762
773.767
773.771
773.776
773.782
773.788
773.793
773.799
773.806
773.814
773.821
773.828
773.836
773.844
773.853
773.863
773.872
773.882
773.892
773.902
773.914
773.925
773.936
773.948
773.96
773.972
773.986
773.998
774.012
774.026
774.04
774.055
774.07
774.085
774.101
774.118
774.133
774.15
774.167
774.183
774.201
774.218
774.236
774.255
774.273
774.292
774.312
774.331
774.351
774.372
774.393
774.414
774.434
774.456
774.477
774.499
774.52
774.542
774.565
774.589
774.613
774.636
774.66
774.684
774.71
774.735
774.76
774.785
774.81
774.836
774.863
774.89
774.916
774.943
774.971
774.999
775.027
775.055
775.084
775.112
775.141
775.17
775.2
775.231
775.26
775.29
775.321
775.352
775.383
775.414
775.446
775.478
775.509
775.542
775.574
775.606
775.64
775.673
775.706
775.74
775.774
775.807
775.841
775.876
775.911
775.945
775.98
776.015
776.051
776.086
776.121
776.157
776.193
776.23
776.266
776.303
776.339
776.377
776.414
776.451
776.488
776.526
776.564
776.602
776.639
776.677
776.716
776.754
776.793
776.831
776.87
776.909
776.949
776.988
777.027
777.066
777.105
777.145
777.185
777.224
777.264
777.304
777.344
777.384
777.425
777.465
777.505
777.546
777.586
777.627
777.667
777.708
777.748
777.789
777.83
777.87
777.912
777.952
777.993
778.034
778.074
778.115
778.156
778.198
778.238
778.279
778.321
778.361
778.402
778.443
778.483
778.524
778.565
778.605
778.647
778.686
778.729
778.767
778.811
778.846
778.892
778.926
778.974
779.006
779.055
779.085
779.136
779.163
779.217
779.241
779.308
779.311
773.772
773.765
773.757
773.753
773.753
773.753
773.755
773.759
773.762
773.767
773.771
773.776
773.782
773.788
773.793
773.799
773.806
773.814
773.821
773.828
773.836
773.844
773.853
773.863
773.872
773.882
773.892
773.902
773.914
773.925
773.936
773.948
773.96
773.972
773.986
773.999
774.013
774.026
774.04
774.055
774.07
774.085
774.101
774.118
774.133
774.15
774.167
774.183
774.201
774.218
774.236
774.255
774.273
774.292
774.312
774.331
774.351
774.372
774.393
774.414
774.434
774.456
774.477
774.499
774.52
774.542
774.565
774.588
774.613
774.636
774.661
774.685
774.71
774.735
774.76
774.785
774.81
774.836
774.863
774.89
774.916
774.943
774.971
774.999
775.027
775.055
775.084
775.112
775.141
775.17
775.2
775.231
775.26
775.29
775.321
775.352
775.383
775.414
775.446
775.478
775.509
775.542
775.574
775.606
775.64
775.673
775.706
775.74
775.774
775.807
775.841
775.876
775.911
775.945
775.98
776.015
776.051
776.086
776.121
776.157
776.193
776.23
776.266
776.303
776.339
776.377
776.414
776.451
776.488
776.526
776.564
776.602
776.639
776.677
776.716
776.754
776.793
776.831
776.87
776.909
776.949
776.988
777.027
777.066
777.105
777.145
777.185
777.224
777.264
777.304
777.344
777.384
777.425
777.465
777.505
777.546
777.586
777.627
777.667
777.708
777.748
777.789
777.83
777.87
777.912
777.952
777.993
778.034
778.074
778.115
778.156
778.198
778.238
778.279
778.321
778.361
778.402
778.443
778.483
778.524
778.565
778.605
778.647
778.686
778.729
778.767
778.811
778.846
778.893
778.926
778.975
779.006
779.056
779.085
779.137
779.164
779.217
779.241
779.31
779.296
773.781
773.773
773.765
773.761
773.761
773.762
773.763
773.766
773.77
773.775
773.779
773.784
773.789
773.794
773.8
773.807
773.814
773.82
773.828
773.836
773.843
773.852
773.861
773.87
773.879
773.889
773.899
773.909
773.921
773.932
773.943
773.955
773.967
773.98
773.993
774.005
774.019
774.033
774.048
774.061
774.077
774.092
774.108
774.125
774.141
774.156
774.174
774.189
774.207
774.225
774.243
774.26
774.28
774.299
774.317
774.338
774.358
774.378
774.399
774.42
774.44
774.462
774.483
774.505
774.526
774.549
774.571
774.594
774.619
774.642
774.666
774.691
774.716
774.74
774.766
774.79
774.816
774.842
774.868
774.895
774.921
774.948
774.976
775.004
775.032
775.06
775.089
775.117
775.146
775.175
775.205
775.236
775.265
775.295
775.326
775.357
775.388
775.419
775.451
775.483
775.514
775.547
775.579
775.612
775.646
775.678
775.711
775.745
775.778
775.812
775.847
775.881
775.915
775.95
775.985
776.021
776.056
776.091
776.127
776.163
776.199
776.234
776.272
776.308
776.345
776.382
776.419
776.456
776.493
776.531
776.569
776.607
776.644
776.682
776.721
776.759
776.798
776.837
776.875
776.915
776.954
776.993
777.032
777.071
777.111
777.15
777.19
777.229
777.27
777.309
777.349
777.389
777.43
777.47
777.51
777.551
777.591
777.632
777.672
777.713
777.754
777.794
777.835
777.876
777.917
777.957
777.998
778.039
778.08
778.12
778.161
778.203
778.243
778.284
778.326
778.366
778.407
778.448
778.488
778.529
778.57
778.61
778.652
778.691
778.734
778.772
778.816
778.852
778.897
778.931
778.98
779.009
779.06
779.09
779.142
779.169
779.222
779.246
779.318
779.279
779.376
779.396
779.413
779.427
779.438
779.446
779.454
779.463
779.471
779.479
779.488
779.496
779.504
779.512
779.52
779.528
779.535
779.541
779.546
779.546
779.372
779.389
779.402
779.414
779.425
779.436
779.445
779.454
779.462
779.469
779.476
779.483
779.49
779.497
779.504
779.511
779.518
779.524
779.529
779.532
779.374
779.389
779.4
779.411
779.423
779.433
779.444
779.454
779.462
779.471
779.476
779.482
779.489
779.494
779.501
779.506
779.514
779.519
779.527
779.53
779.366
779.376
779.386
779.396
779.404
779.415
779.425
779.436
779.446
779.456
779.468
779.478
779.488
779.496
779.506
779.514
779.522
779.526
779.533
779.537
779.359
779.37
779.38
779.389
779.398
779.405
779.412
779.419
779.427
779.433
779.44
779.445
779.452
779.458
779.464
779.471
779.477
779.483
779.49
779.499
779.349
779.353
779.359
779.365
779.372
779.379
779.388
779.397
779.407
779.415
779.427
779.436
779.448
779.459
779.47
779.481
779.494
779.503
779.514
779.522
779.343
779.348
779.354
779.36
779.367
779.372
779.378
779.382
779.388
779.391
779.394
779.397
779.399
779.401
779.404
779.407
779.41
779.414
779.42
779.428
779.314
779.315
779.319
779.323
779.328
779.334
779.341
779.347
779.356
779.364
779.373
779.382
779.392
779.401
779.412
779.422
779.432
779.441
779.452
779.46
779.297
779.297
779.299
779.3
779.304
779.308
779.313
779.317
779.322
779.328
779.333
779.339
779.345
779.351
779.358
779.366
779.374
779.383
779.393
779.405
779.285
779.282
779.284
779.286
779.288
779.293
779.298
779.305
779.312
779.32
779.328
779.337
779.346
779.357
779.366
779.378
779.389
779.402
779.415
779.43
779.562
779.582
779.605
779.632
779.661
779.688
779.714
779.74
779.77
779.799
779.828
779.857
779.886
779.914
779.943
779.972
780.001
780.03
780.058
780.088
780.117
780.146
780.175
780.204
780.232
780.26
780.289
780.317
780.345
780.372
780.4
780.427
780.455
780.484
780.511
780.538
780.566
780.593
780.619
780.646
780.673
780.699
780.726
780.752
780.777
780.805
780.831
780.855
780.882
780.908
780.932
780.957
780.983
781.008
781.033
781.057
781.083
781.106
781.132
781.156
781.18
781.204
781.228
781.251
781.275
781.299
781.322
781.345
781.367
781.391
781.414
781.436
781.459
781.481
781.502
781.524
781.547
781.569
781.591
781.611
781.63
781.649
781.666
781.686
781.707
781.729
781.748
781.761
781.766
781.773
781.792
781.847
782.039
782.627
783.451
784.23
784.898
785.409
785.737
785.895
785.928
785.898
785.666
784.863
783.898
783.138
782.596
782.254
782.064
781.977
781.947
781.948
781.997
782.085
782.153
782.203
782.243
782.272
782.297
782.318
782.337
782.354
782.371
782.386
782.402
782.417
782.431
782.446
782.46
782.474
782.488
782.502
782.515
782.528
782.541
782.554
782.567
782.58
782.593
782.605
782.617
782.629
782.641
782.653
782.665
782.676
782.687
782.698
782.711
782.72
782.731
782.743
782.753
782.762
782.774
782.784
782.793
782.803
782.813
782.822
782.831
782.84
782.85
782.859
782.868
782.876
782.885
782.894
782.902
782.91
782.918
782.925
782.934
782.941
782.949
782.956
782.963
782.969
782.978
782.983
782.992
782.996
783.006
783.008
783.019
783.02
783.031
783.031
783.043
783.042
783.054
783.053
783.064
783.063
783.075
783.073
783.084
783.082
783.097
783.096
779.549
779.572
779.594
779.619
779.648
779.675
779.702
779.728
779.755
779.784
779.814
779.843
779.871
779.899
779.928
779.957
779.986
780.015
780.044
780.072
780.101
780.13
780.159
780.188
780.216
780.244
780.273
780.302
780.329
780.357
780.384
780.412
780.44
780.468
780.495
780.522
780.55
780.577
780.603
780.63
780.657
780.683
780.71
780.736
780.761
780.788
780.815
780.839
780.866
780.891
780.917
780.942
780.967
780.992
781.016
781.041
781.066
781.09
781.114
781.14
781.164
781.188
781.212
781.235
781.259
781.282
781.306
781.329
781.352
781.374
781.397
781.42
781.443
781.465
781.487
781.508
781.531
781.553
781.573
781.595
781.616
781.636
781.655
781.676
781.699
781.721
781.741
781.756
781.768
781.776
781.783
781.789
781.787
781.783
781.778
781.779
781.798
781.875
782.016
782.166
782.305
782.419
782.493
782.52
782.519
782.498
782.413
782.306
782.235
782.192
782.167
782.155
782.157
782.179
782.21
782.236
782.26
782.28
782.299
782.317
782.334
782.35
782.367
782.381
782.397
782.412
782.427
782.441
782.456
782.47
782.483
782.497
782.51
782.524
782.537
782.55
782.563
782.575
782.588
782.6
782.613
782.625
782.637
782.648
782.66
782.672
782.683
782.694
782.706
782.716
782.727
782.738
782.749
782.758
782.769
782.779
782.789
782.799
782.808
782.818
782.827
782.836
782.846
782.855
782.863
782.872
782.88
782.889
782.897
782.905
782.913
782.921
782.929
782.937
782.945
782.952
782.959
782.965
782.974
782.979
782.988
782.991
783.001
783.003
783.014
783.015
783.027
783.027
783.038
783.038
783.049
783.049
783.06
783.059
783.069
783.069
783.08
783.078
783.09
783.093
779.545
779.57
779.594
779.62
779.65
779.678
779.705
779.731
779.758
779.788
779.817
779.846
779.874
779.902
779.931
779.96
779.989
780.018
780.046
780.075
780.104
780.133
780.162
780.191
780.219
780.247
780.276
780.305
780.332
780.36
780.387
780.415
780.443
780.47
780.498
780.525
780.553
780.58
780.606
780.634
780.659
780.686
780.713
780.739
780.764
780.791
780.817
780.843
780.868
780.894
780.919
780.944
780.97
780.994
781.019
781.044
781.069
781.093
781.118
781.142
781.166
781.19
781.214
781.238
781.262
781.285
781.308
781.332
781.355
781.377
781.4
781.423
781.446
781.468
781.49
781.511
781.534
781.556
781.577
781.599
781.619
781.641
781.66
781.679
781.698
781.721
781.746
781.769
781.789
781.793
781.789
781.778
781.745
781.699
781.667
781.646
781.632
781.622
781.619
781.633
781.703
781.819
781.928
782.025
782.104
782.16
782.196
782.215
782.221
782.22
782.219
782.22
782.223
782.232
782.243
782.257
782.272
782.287
782.303
782.319
782.335
782.352
782.367
782.381
782.398
782.412
782.427
782.441
782.456
782.47
782.483
782.497
782.51
782.524
782.537
782.55
782.563
782.575
782.588
782.6
782.613
782.625
782.637
782.648
782.66
782.671
782.683
782.694
782.706
782.716
782.727
782.738
782.749
782.758
782.769
782.779
782.789
782.799
782.808
782.818
782.827
782.836
782.846
782.855
782.863
782.872
782.88
782.889
782.897
782.905
782.913
782.921
782.929
782.937
782.945
782.952
782.959
782.965
782.974
782.979
782.988
782.991
783.001
783.003
783.014
783.015
783.027
783.027
783.038
783.038
783.049
783.049
783.059
783.059
783.07
783.069
783.08
783.078
783.089
783.09
779.549
779.583
779.612
779.64
779.67
779.7
779.732
779.761
779.79
779.819
779.849
779.879
779.908
779.937
779.966
779.996
780.025
780.054
780.082
780.112
780.141
780.17
780.198
780.227
780.256
780.285
780.313
780.341
780.369
780.396
780.424
780.451
780.48
780.507
780.534
780.562
780.589
780.616
780.642
780.67
780.696
780.723
780.75
780.775
780.802
780.828
780.854
780.88
780.906
780.931
780.956
780.982
781.006
781.031
781.056
781.08
781.106
781.13
781.155
781.179
781.203
781.227
781.251
781.274
781.298
781.321
781.345
781.368
781.391
781.413
781.436
781.459
781.481
781.504
781.525
781.548
781.569
781.59
781.611
781.631
781.651
781.67
781.688
781.708
781.729
781.752
781.775
781.796
781.805
781.803
781.795
781.774
781.737
781.709
781.691
781.678
781.667
781.663
781.671
781.713
781.785
781.858
781.926
781.988
782.039
782.08
782.112
782.138
782.157
782.172
782.187
782.2
782.214
782.229
782.243
782.259
782.275
782.29
782.306
782.322
782.337
782.354
782.369
782.383
782.399
782.413
782.428
782.442
782.456
782.47
782.484
782.497
782.511
782.524
782.537
782.55
782.563
782.576
782.588
782.6
782.613
782.625
782.637
782.648
782.66
782.671
782.683
782.694
782.706
782.716
782.727
782.738
782.749
782.758
782.769
782.779
782.789
782.799
782.808
782.818
782.827
782.836
782.846
782.855
782.863
782.872
782.88
782.889
782.897
782.905
782.913
782.921
782.929
782.937
782.945
782.952
782.959
782.965
782.973
782.979
782.988
782.992
783
783.004
783.013
783.016
783.026
783.027
783.039
783.038
783.049
783.049
783.059
783.059
783.071
783.07
783.079
783.078
783.086
783.09
779.515
779.544
779.573
779.604
779.632
779.659
779.686
779.714
779.744
779.774
779.804
779.833
779.862
779.892
779.921
779.95
779.98
780.009
780.038
780.066
780.095
780.124
780.153
780.182
780.21
780.239
780.267
780.295
780.322
780.351
780.378
780.406
780.434
780.461
780.489
780.516
780.543
780.57
780.596
780.623
780.65
780.677
780.704
780.73
780.756
780.781
780.808
780.834
780.859
780.884
780.91
780.935
780.961
780.986
781.01
781.035
781.06
781.084
781.109
781.133
781.157
781.181
781.205
781.229
781.253
781.276
781.3
781.323
781.345
781.369
781.392
781.415
781.438
781.46
781.482
781.503
781.526
781.548
781.57
781.592
781.613
781.636
781.657
781.678
781.699
781.719
781.739
781.763
781.788
781.809
781.822
781.825
781.821
781.814
781.806
781.797
781.792
781.793
781.802
781.825
781.857
781.895
781.935
781.976
782.014
782.049
782.079
782.106
782.131
782.153
782.172
782.192
782.209
782.226
782.243
782.259
782.276
782.292
782.307
782.323
782.338
782.354
782.369
782.383
782.399
782.413
782.428
782.442
782.456
782.47
782.484
782.497
782.511
782.524
782.537
782.55
782.563
782.576
782.588
782.6
782.613
782.625
782.637
782.648
782.66
782.671
782.683
782.694
782.706
782.716
782.727
782.738
782.749
782.758
782.769
782.779
782.789
782.799
782.808
782.818
782.827
782.836
782.846
782.855
782.863
782.872
782.88
782.889
782.897
782.905
782.913
782.921
782.929
782.937
782.945
782.952
782.959
782.965
782.973
782.98
782.987
782.993
782.998
783.006
783.011
783.017
783.024
783.029
783.035
783.041
783.044
783.054
783.056
783.062
783.068
783.07
783.078
783.081
783.086
783.089
779.546
779.587
779.628
779.669
779.707
779.744
779.78
779.815
779.851
779.884
779.917
779.948
779.98
780.01
780.04
780.069
780.099
780.128
780.157
780.185
780.215
780.244
780.272
780.301
780.329
780.358
780.387
780.415
780.442
780.47
780.498
780.526
780.553
780.581
780.608
780.635
780.662
780.69
780.717
780.744
780.77
780.796
780.823
780.849
780.875
780.902
780.928
780.953
780.978
781.004
781.029
781.055
781.08
781.104
781.13
781.154
781.178
781.202
781.226
781.25
781.274
781.298
781.322
781.344
781.366
781.389
781.411
781.433
781.455
781.476
781.498
781.519
781.54
781.56
781.58
781.599
781.619
781.637
781.656
781.675
781.694
781.717
781.738
781.759
781.779
781.795
781.801
781.801
781.797
781.789
781.782
781.776
781.776
781.781
781.785
781.792
781.803
781.823
781.847
781.876
781.91
781.946
781.981
782.015
782.045
782.073
782.098
782.122
782.142
782.162
782.18
782.199
782.216
782.232
782.248
782.264
782.281
782.296
782.311
782.326
782.34
782.356
782.371
782.385
782.4
782.414
782.428
782.442
782.456
782.47
782.484
782.497
782.511
782.524
782.537
782.55
782.563
782.576
782.588
782.6
782.613
782.625
782.637
782.648
782.66
782.671
782.683
782.694
782.706
782.716
782.727
782.738
782.749
782.758
782.769
782.779
782.789
782.799
782.808
782.818
782.827
782.836
782.846
782.855
782.863
782.872
782.88
782.889
782.897
782.905
782.913
782.921
782.929
782.937
782.945
782.952
782.958
782.966
782.972
782.98
782.985
782.994
782.997
783.008
783.009
783.02
783.022
783.032
783.032
783.043
783.044
783.054
783.055
783.065
783.064
783.075
783.075
783.083
783.084
783.092
779.451
779.481
779.511
779.541
779.57
779.599
779.629
779.658
779.688
779.717
779.748
779.778
779.809
779.839
779.868
779.898
779.927
779.956
779.985
780.015
780.042
780.071
780.099
780.128
780.156
780.184
780.213
780.241
780.268
780.297
780.324
780.352
780.379
780.407
780.435
780.462
780.489
780.517
780.543
780.571
780.596
780.623
780.649
780.677
780.702
780.728
780.754
780.78
780.806
780.831
780.857
780.882
780.907
780.933
780.957
780.982
781.006
781.031
781.056
781.08
781.104
781.127
781.152
781.176
781.199
781.223
781.246
781.27
781.292
781.314
781.337
781.36
781.382
781.405
781.428
781.449
781.471
781.493
781.516
781.538
781.559
781.579
781.6
781.623
781.645
781.668
781.688
781.707
781.728
781.749
781.77
781.795
781.823
781.854
781.875
781.888
781.893
781.892
781.887
781.879
781.875
781.881
781.908
781.948
781.989
782.029
782.065
782.098
782.126
782.151
782.172
782.193
782.212
782.231
782.247
782.264
782.281
782.296
782.31
782.327
782.341
782.356
782.371
782.386
782.4
782.414
782.428
782.443
782.456
782.47
782.484
782.497
782.511
782.524
782.537
782.55
782.563
782.576
782.588
782.6
782.613
782.625
782.637
782.648
782.66
782.671
782.683
782.694
782.706
782.716
782.727
782.738
782.749
782.758
782.769
782.779
782.789
782.799
782.808
782.818
782.827
782.836
782.846
782.855
782.863
782.872
782.88
782.889
782.897
782.905
782.913
782.921
782.929
782.937
782.945
782.952
782.958
782.966
782.972
782.98
782.985
782.994
782.997
783.008
783.009
783.02
783.022
783.032
783.032
783.043
783.044
783.054
783.055
783.065
783.064
783.074
783.074
783.082
783.087
783.09
779.493
779.536
779.581
779.623
779.666
779.707
779.748
779.789
779.829
779.867
779.904
779.939
779.972
780.003
780.034
780.064
780.094
780.124
780.153
780.182
780.21
780.239
780.268
780.296
780.325
780.353
780.382
780.41
780.438
780.466
780.494
780.522
780.549
780.576
780.603
780.631
780.658
780.685
780.712
780.739
780.765
780.791
780.818
780.843
780.869
780.895
780.921
780.947
780.972
780.996
781.022
781.047
781.072
781.096
781.12
781.145
781.17
781.195
781.219
781.244
781.268
781.292
781.316
781.34
781.363
781.386
781.409
781.432
781.455
781.475
781.496
781.517
781.537
781.557
781.576
781.596
781.615
781.635
781.657
781.679
781.701
781.722
781.744
781.768
781.79
781.812
781.831
781.846
781.854
781.856
781.852
781.848
781.842
781.838