/*--------------------------------*- C++ -*----------------------------------*\
| =========                 |                                                 |
| \\      /  F ield         | OpenFOAM: The Open Source CFD Toolbox           |
|  \\    /   O peration     | Version:  3.0.x                                 |
|   \\  /    A nd           | Web:      www.OpenFOAM.org                      |
|    \\/     M anipulation  |                                                 |
\*---------------------------------------------------------------------------*/
FoamFile
{
    version     2.0;
    format      ascii;
    class       surfaceScalarField;
    location    "0.57";
    object      phi;
}
// * * * * * * * * * * * * * * * * * * * * * * * * * * * * * * * * * * * * * //

dimensions      [1 0 -1 0 0 0 0];

internalField   nonuniform List<scalar> 
52430
(
4.1093
0.000244979
4.09319
0.000178959
4.07707
0.000173156
4.06095
0.000175534
4.04481
0.000177133
4.02865
0.00017827
4.01249
0.000179388
3.9963
0.000180489
3.98011
0.000181537
3.9639
0.000182527
3.94768
0.000183462
3.93144
0.000184341
3.91519
0.000185163
3.89893
0.000185926
3.88265
0.00018663
3.86637
0.000187276
3.85008
0.000187866
3.83377
0.0001884
3.81746
0.000188879
3.80114
0.000189307
3.78481
0.000189686
3.76848
0.000190019
3.75214
0.000190308
3.7358
0.000190557
3.71946
0.00019077
3.70312
0.00019095
3.68678
0.000191101
3.67045
0.000191227
3.65412
0.000191321
3.6378
0.000191423
3.62148
0.000191489
3.60517
0.000191539
3.58887
0.000191583
3.57258
0.00019162
3.5563
0.000191649
3.54004
0.000191673
3.52378
0.000191693
3.50754
0.000191711
3.49131
0.000191725
3.47509
0.000191739
3.45888
0.000191751
3.44269
0.000191762
3.42651
0.000191773
3.41035
0.000191783
3.3942
0.000191793
3.37807
0.000191804
3.36195
0.000191814
3.34585
0.000191824
3.32977
0.000191835
3.3137
0.000191845
3.29765
0.000191856
3.28162
0.000191867
3.2656
0.000191878
3.2496
0.000191889
3.23362
0.000191901
3.21766
0.000191912
3.20172
0.000191924
3.18579
0.000191935
3.16989
0.000191948
3.15401
0.00019196
3.13814
0.000191972
3.1223
0.000191984
3.10648
0.000191996
3.09068
0.000192009
3.0749
0.000192021
3.05915
0.000192034
3.04341
0.000192047
3.0277
0.00019206
3.01201
0.000192074
2.99635
0.000192087
2.9807
0.0001921
2.96509
0.000192114
2.94949
0.000192127
2.93392
0.000192141
2.91838
0.000192155
2.90286
0.000192169
2.88737
0.000192183
2.8719
0.000192196
2.85646
0.000192209
2.84104
0.000192223
2.82565
0.000192238
2.81029
0.000192252
2.79496
0.000192267
2.77965
0.000192281
2.76437
0.000192296
2.74912
0.00019231
2.7339
0.000192323
2.7187
0.000192337
2.70354
0.000192349
2.6884
0.000192361
2.67329
0.000192374
2.65822
0.000192391
2.64317
0.000192409
2.62816
0.000192428
2.61317
0.000192448
2.59822
0.000192464
2.58329
0.000192477
2.5684
0.000192487
2.55354
0.000192494
2.53871
0.0001925
2.52391
0.000192506
2.50915
0.00019251
2.49442
0.000192514
2.47972
0.000192516
2.46505
0.000192518
2.45042
0.000192525
2.43582
0.000192537
2.42126
0.000192555
2.40674
0.000192579
2.39224
0.000192605
2.37778
0.000192632
2.36336
0.000192659
2.34897
0.000192689
2.33462
0.000192721
2.3203
0.000192754
2.30602
0.000192786
2.29177
0.000192811
2.27756
0.000192828
2.26339
0.000192837
2.24925
0.000192839
2.23515
0.000192835
2.22109
0.00019283
2.20706
0.000192828
2.19307
0.000192829
2.17912
0.000192833
2.16521
0.00019284
2.15133
0.000192851
2.1375
0.00019287
2.1237
0.000192894
2.10994
0.000192921
2.09622
0.000192946
2.08254
0.000192966
2.0689
0.000192977
2.0553
0.00019298
2.04174
0.000192973
2.02822
0.000192964
2.01474
0.000192959
2.0013
0.000192964
1.9879
0.000192981
1.97454
0.000193006
1.96122
0.000193033
1.94794
0.000193055
1.93471
0.00019307
1.92151
0.000193082
1.90836
0.000193091
1.89525
0.000193093
1.88218
0.000193079
1.86915
0.000193037
1.85616
0.000192957
1.84321
0.000192836
1.83031
0.000192672
1.81745
0.000192463
1.80463
0.000192205
1.79186
0.000191888
1.77913
0.000191505
1.76644
0.000191048
1.7538
0.000190511
1.7412
0.000189887
1.72864
0.000189168
1.71613
0.000188342
1.70366
0.000187391
1.69124
0.000186297
1.67887
0.000185036
1.66654
0.000183588
1.65425
0.000181932
1.64202
0.00018005
1.62982
0.000177925
1.61768
0.000175545
1.60558
0.000172897
1.59353
0.000169974
1.58153
0.000166771
1.56958
0.000163282
1.55767
0.00015951
1.54581
0.000155455
1.53401
0.000151125
1.52225
0.000146528
1.51054
0.000141678
1.49889
0.00013659
1.48728
0.000131283
1.47573
0.00012578
1.46422
0.000120106
1.45277
0.000114288
1.44137
0.000108356
1.43003
0.000102343
1.41873
9.62806e-05
1.40749
9.02031e-05
1.39629
8.41441e-05
1.38516
7.8137e-05
1.37407
7.22139e-05
1.36303
6.64058e-05
1.35205
6.07413e-05
1.34112
5.52469e-05
1.33024
4.99463e-05
1.31942
4.486e-05
1.30864
4.00056e-05
1.29792
3.53972e-05
1.28724
3.10454e-05
1.27662
2.69576e-05
1.26605
2.31378e-05
1.25553
1.95871e-05
1.24506
1.63035e-05
1.23463
1.32824e-05
1.22426
1.0517e-05
1.21394
7.99835e-06
1.20367
5.7153e-06
1.19345
3.65393e-06
1.18327
1.80711e-06
1.17315
1.69784e-07
1.16307
-1.31543e-06
1.15304
-2.62143e-06
1.14306
-3.76667e-06
1.13313
-4.76823e-06
1.12325
-5.63986e-06
1.11341
-6.39505e-06
1.10362
-7.04658e-06
1.09389
-7.60632e-06
1.08419
-8.08527e-06
1.07455
-8.49353e-06
1.06495
-8.84027e-06
1.05541
-9.13378e-06
1.04591
-9.38146e-06
1.03645
-9.58993e-06
1.02705
-9.765e-06
1.01769
-9.9118e-06
1.00838
-1.00348e-05
0.999119
-1.01378e-05
0.989905
-1.02241e-05
0.980738
-1.02966e-05
0.971618
-1.03578e-05
0.962546
-1.04096e-05
0.953522
-1.04537e-05
0.944545
-1.04916e-05
0.935615
-1.05245e-05
0.926733
-1.05533e-05
0.917899
-1.05789e-05
0.909111
-1.06019e-05
0.900372
-1.06229e-05
0.89168
-1.06423e-05
0.883035
-1.06603e-05
0.874437
-1.06774e-05
0.865887
-1.06937e-05
0.857384
-1.07093e-05
0.848929
-1.07245e-05
0.840521
-1.07394e-05
0.83216
-1.0754e-05
0.823847
-1.07684e-05
0.81558
-1.07826e-05
0.807361
-1.07967e-05
0.799189
-1.08107e-05
0.791065
-1.08246e-05
0.782987
-1.08384e-05
0.774957
-1.08522e-05
0.766973
-1.0866e-05
0.759037
-1.08797e-05
0.751147
-1.08935e-05
0.743305
-1.09073e-05
0.735509
-1.0921e-05
0.727761
-1.09347e-05
0.720059
-1.09484e-05
0.712404
-1.0962e-05
0.704796
-1.09755e-05
0.697234
-1.09891e-05
0.689719
-1.10026e-05
0.682251
-1.10162e-05
0.67483
-1.10298e-05
0.667455
-1.10434e-05
0.660126
-1.10571e-05
0.652844
-1.10708e-05
0.645608
-1.10844e-05
0.638419
-1.10979e-05
0.631276
-1.11113e-05
0.624179
-1.11246e-05
0.617129
-1.11379e-05
0.610124
-1.11513e-05
0.603166
-1.11646e-05
0.596254
-1.1178e-05
0.589388
-1.11915e-05
0.582567
-1.12049e-05
0.575793
-1.12182e-05
0.569064
-1.12316e-05
0.562381
-1.12449e-05
0.555743
-1.12582e-05
0.549152
-1.12715e-05
0.542606
-1.12849e-05
0.536105
-1.12982e-05
0.52965
-1.13114e-05
0.52324
-1.13246e-05
0.516875
-1.13376e-05
0.510556
-1.13506e-05
0.504281
-1.13636e-05
0.498052
-1.13766e-05
0.491868
-1.13898e-05
0.485729
-1.14029e-05
0.479634
-1.14161e-05
0.473585
-1.14293e-05
0.46758
-1.14423e-05
0.461619
-1.14553e-05
0.455704
-1.14682e-05
0.449833
-1.1481e-05
0.444006
-1.14938e-05
0.438223
-1.15066e-05
0.432485
-1.15193e-05
0.426791
-1.15321e-05
0.421141
-1.15449e-05
0.415535
-1.15578e-05
0.409973
-1.15706e-05
0.404455
-1.15834e-05
0.398981
-1.15962e-05
0.39355
-1.16089e-05
0.388163
-1.16215e-05
0.382819
-1.16341e-05
0.377518
-1.16466e-05
0.372261
-1.16591e-05
0.367047
-1.16716e-05
0.361876
-1.1684e-05
0.356748
-1.16964e-05
0.351663
-1.17088e-05
0.346621
-1.17211e-05
0.341621
-1.17335e-05
0.336664
-1.17458e-05
0.331749
-1.1758e-05
0.326877
-1.17702e-05
0.322047
-1.17824e-05
0.317259
-1.17946e-05
0.312513
-1.18067e-05
0.307809
-1.18188e-05
0.303146
-1.18308e-05
0.298526
-1.18428e-05
0.293947
-1.18547e-05
0.289409
-1.18667e-05
0.284913
-1.18786e-05
0.280458
-1.18906e-05
0.276044
-1.19025e-05
0.271671
-1.19143e-05
0.26734
-1.19261e-05
0.263049
-1.19378e-05
0.258799
-1.19496e-05
0.254589
-1.19615e-05
0.25042
-1.19734e-05
0.246291
-1.19852e-05
0.242203
-1.19969e-05
0.238155
-1.20084e-05
0.234146
-1.20198e-05
0.230178
-1.20313e-05
0.226249
-1.20428e-05
0.22236
-1.20545e-05
0.21851
-1.20661e-05
0.2147
-1.20777e-05
0.210929
-1.20891e-05
0.207197
-1.21004e-05
0.203503
-1.21116e-05
0.199849
-1.21228e-05
0.196233
-1.21339e-05
0.192656
-1.21449e-05
0.189117
-1.21559e-05
0.185616
-1.21668e-05
0.182153
-1.21781e-05
0.178728
-1.21889e-05
0.175341
-1.22006e-05
0.171992
-1.22109e-05
0.16868
-1.22233e-05
0.165405
-1.22323e-05
0.162167
-1.22459e-05
0.158966
-1.22525e-05
0.155802
-1.22685e-05
0.152675
-1.22707e-05
0.149584
-1.22909e-05
0.146529
-1.2287e-05
0.143511
-1.23333e-05
0.140528
-1.22785e-05
0.137581
-1.23673e-05
0.13467
-1.22834e-05
0.131794
-1.24015e-05
0.128953
-1.23059e-05
0.126148
-1.24312e-05
0.123377
-1.23425e-05
0.120641
-1.24373e-05
0.117939
-1.23537e-05
0.115272
-1.24374e-05
0.112638
-1.23796e-05
0.110039
-1.24619e-05
0.107473
-1.2409e-05
0.104941
-1.24565e-05
0.102441
-1.23649e-05
0.0999758
-1.23785e-05
0.0975422
-1.21563e-05
0.0951417
-1.19138e-05
0.0927722
-1.10697e-05
0.0904341
-9.53469e-06
0.088124
-6.11344e-06
0.0858392
9.78693e-07
0.0835695
1.69341e-05
0.0812974
5.13066e-05
0.0789831
0.000124044
0.0765475
0.000276921
0.0738111
0.000607848
0.0703374
0.00137608
0.0651963
0.00307293
0.0489818
0.0141763
0.0227927
0.0241788
5.81187
0.000214145
5.78935
0.000172921
5.76681
0.000159977
5.74427
0.000163232
5.7217
0.000165304
5.69912
0.000166314
5.67652
0.000167332
5.65391
0.000168386
5.63127
0.000169387
5.60862
0.000170328
5.58595
0.000171218
5.56326
0.000172055
5.54055
0.000172839
5.51783
0.000173568
5.49509
0.000174243
5.47233
0.000174863
5.44957
0.00017543
5.42679
0.000175945
5.404
0.00017641
5.38119
0.000176825
5.35839
0.000177195
5.33557
0.000177522
5.31275
0.000177808
5.28992
0.000178056
5.26709
0.00017827
5.24427
0.000178453
5.22144
0.000178609
5.19863
0.000178741
5.17582
0.000178849
5.15302
0.000178945
5.13023
0.000179031
5.10744
0.00017909
5.08468
0.000179144
5.06192
0.000179192
5.03918
0.000179233
5.01646
0.000179269
4.99375
0.000179302
4.97106
0.000179331
4.94839
0.000179358
4.92574
0.000179384
4.90311
0.000179408
4.88049
0.000179432
4.8579
0.000179456
4.83532
0.000179479
4.81277
0.000179501
4.79024
0.000179524
4.76773
0.000179547
4.74524
0.00017957
4.72278
0.000179593
4.70034
0.000179616
4.67792
0.00017964
4.65553
0.000179663
4.63316
0.000179687
4.61082
0.00017971
4.5885
0.000179734
4.56621
0.000179758
4.54395
0.000179783
4.52171
0.000179807
4.4995
0.000179831
4.47733
0.000179856
4.45517
0.00017988
4.43305
0.000179905
4.41096
0.00017993
4.3889
0.000179955
4.36687
0.00017998
4.34487
0.000180005
4.3229
0.000180031
4.30096
0.000180056
4.27906
0.000180082
4.25719
0.000180108
4.23535
0.000180134
4.21355
0.00018016
4.19178
0.000180186
4.17004
0.000180212
4.14834
0.000180238
4.12668
0.000180265
4.10505
0.000180291
4.08346
0.000180317
4.06191
0.000180342
4.04039
0.000180368
4.01891
0.000180395
3.99747
0.000180422
3.97606
0.000180449
3.9547
0.000180476
3.93337
0.000180503
3.91209
0.00018053
3.89084
0.000180556
3.86964
0.000180582
3.84848
0.000180607
3.82736
0.000180632
3.80627
0.000180657
3.78524
0.000180685
3.76424
0.000180716
3.74329
0.000180747
3.72238
0.000180779
3.70152
0.000180807
3.6807
0.000180833
3.65992
0.000180856
3.63918
0.000180876
3.6185
0.000180895
3.59785
0.000180914
3.57726
0.000180931
3.5567
0.000180947
3.5362
0.000180962
3.51574
0.000180978
3.49534
0.000180998
3.47498
0.000181023
3.45467
0.000181054
3.43441
0.000181091
3.41419
0.000181128
3.39403
0.000181167
3.37392
0.000181206
3.35385
0.000181247
3.33384
0.00018129
3.31387
0.000181334
3.29396
0.000181377
3.2741
0.000181414
3.25428
0.000181443
3.23452
0.000181465
3.21481
0.00018148
3.19515
0.000181491
3.17555
0.0001815
3.15599
0.000181511
3.13649
0.000181526
3.11705
0.000181543
3.09766
0.000181562
3.07832
0.000181587
3.05904
0.000181618
3.03981
0.000181654
3.02064
0.000181692
3.00152
0.000181728
2.98245
0.000181759
2.96345
0.000181783
2.9445
0.000181798
2.9256
0.000181806
2.90676
0.000181811
2.88798
0.000181821
2.86926
0.000181839
2.85059
0.000181868
2.83198
0.000181905
2.81343
0.000181941
2.79494
0.000181973
2.7765
0.000181998
2.75813
0.000182018
2.73981
0.000182033
2.72155
0.00018204
2.70335
0.000182031
2.68521
0.000181992
2.66712
0.000181917
2.6491
0.000181799
2.63114
0.000181638
2.61323
0.000181429
2.59539
0.000181169
2.5776
0.000180848
2.55988
0.000180459
2.54222
0.000179993
2.52462
0.000179443
2.50708
0.000178804
2.4896
0.000178065
2.47218
0.000177215
2.45483
0.000176236
2.43754
0.000175109
2.42031
0.000173813
2.40314
0.000172328
2.38604
0.000170634
2.369
0.000168714
2.35202
0.000166553
2.3351
0.00016414
2.31825
0.000161466
2.30146
0.000158523
2.28473
0.000155308
2.26807
0.000151819
2.25147
0.000148059
2.23493
0.000144031
2.21846
0.000139745
2.20205
0.000135212
2.18571
0.000130447
2.16943
0.000125466
2.15321
0.000120291
2.13706
0.000114946
2.12097
0.000109456
2.10495
0.00010385
2.08899
9.81584e-05
2.0731
9.24119e-05
2.05727
8.66433e-05
2.04151
8.08849e-05
2.02581
7.5169e-05
2.01017
6.95269e-05
1.9946
6.39884e-05
1.9791
5.85816e-05
1.96366
5.33323e-05
1.94829
4.82636e-05
1.93298
4.33961e-05
1.91774
3.87469e-05
1.90256
3.43301e-05
1.88745
3.01566e-05
1.8724
2.62339e-05
1.85742
2.25665e-05
1.84251
1.91556e-05
1.82766
1.59999e-05
1.81288
1.30956e-05
1.79816
1.04361e-05
1.78351
8.01328e-06
1.76893
5.81722e-06
1.75441
3.83512e-06
1.73996
2.05025e-06
1.72558
4.64743e-07
1.71126
-9.21583e-07
1.69701
-2.18499e-06
1.68282
-3.28397e-06
1.6687
-4.2453e-06
1.65465
-5.08345e-06
1.64067
-5.81079e-06
1.62675
-6.43911e-06
1.6129
-6.97959e-06
1.59911
-7.44259e-06
1.5854
-7.83761e-06
1.57175
-8.17338e-06
1.55816
-8.45777e-06
1.54465
-8.69789e-06
1.5312
-8.90004e-06
1.51781
-9.06982e-06
1.5045
-9.21217e-06
1.49125
-9.33136e-06
1.47807
-9.43115e-06
1.46496
-9.51475e-06
1.45191
-9.58488e-06
1.43893
-9.6439e-06
1.42602
-9.69382e-06
1.41317
-9.73628e-06
1.40039
-9.77269e-06
1.38768
-9.80419e-06
1.37504
-9.83175e-06
1.36246
-9.85615e-06
1.34995
-9.87804e-06
1.33751
-9.89794e-06
1.32513
-9.91627e-06
1.31283
-9.93336e-06
1.30058
-9.94946e-06
1.28841
-9.96479e-06
1.2763
-9.97952e-06
1.26426
-9.99382e-06
1.25229
-1.00078e-05
1.24038
-1.00215e-05
1.22854
-1.0035e-05
1.21677
-1.00483e-05
1.20506
-1.00615e-05
1.19342
-1.00746e-05
1.18185
-1.00877e-05
1.17034
-1.01007e-05
1.1589
-1.01136e-05
1.14753
-1.01266e-05
1.13622
-1.01394e-05
1.12498
-1.01523e-05
1.11381
-1.01652e-05
1.1027
-1.01781e-05
1.09166
-1.01909e-05
1.08069
-1.02038e-05
1.06978
-1.02165e-05
1.05894
-1.02293e-05
1.04816
-1.0242e-05
1.03745
-1.02547e-05
1.02681
-1.02674e-05
1.01623
-1.02801e-05
1.00572
-1.02929e-05
0.995272
-1.03056e-05
0.984891
-1.03184e-05
0.974576
-1.03312e-05
0.964327
-1.03439e-05
0.954143
-1.03566e-05
0.944025
-1.03692e-05
0.933972
-1.03817e-05
0.923984
-1.03941e-05
0.914062
-1.04066e-05
0.904205
-1.04191e-05
0.894413
-1.04316e-05
0.884686
-1.04442e-05
0.875024
-1.04568e-05
0.865426
-1.04693e-05
0.855894
-1.04818e-05
0.846426
-1.04942e-05
0.837022
-1.05067e-05
0.827683
-1.05192e-05
0.818409
-1.05317e-05
0.809199
-1.05441e-05
0.800053
-1.05565e-05
0.790971
-1.05688e-05
0.781953
-1.0581e-05
0.772999
-1.05932e-05
0.764109
-1.06054e-05
0.755283
-1.06176e-05
0.74652
-1.06299e-05
0.737821
-1.06422e-05
0.729185
-1.06545e-05
0.720613
-1.06668e-05
0.712104
-1.06791e-05
0.703657
-1.06912e-05
0.695274
-1.07033e-05
0.686954
-1.07153e-05
0.678697
-1.07272e-05
0.670502
-1.07392e-05
0.66237
-1.07512e-05
0.6543
-1.07631e-05
0.646293
-1.07751e-05
0.638348
-1.07871e-05
0.630465
-1.07991e-05
0.622644
-1.08111e-05
0.614884
-1.08231e-05
0.607187
-1.0835e-05
0.599551
-1.08468e-05
0.591976
-1.08585e-05
0.584463
-1.08703e-05
0.577011
-1.0882e-05
0.56962
-1.08936e-05
0.56229
-1.09053e-05
0.55502
-1.09168e-05
0.547812
-1.09284e-05
0.540663
-1.094e-05
0.533575
-1.09516e-05
0.526547
-1.09631e-05
0.519579
-1.09745e-05
0.512671
-1.09859e-05
0.505823
-1.09973e-05
0.499034
-1.10087e-05
0.492305
-1.10201e-05
0.485634
-1.10314e-05
0.479023
-1.10427e-05
0.472471
-1.10539e-05
0.465978
-1.1065e-05
0.459543
-1.10762e-05
0.453167
-1.10874e-05
0.446849
-1.10987e-05
0.440589
-1.11098e-05
0.434388
-1.11208e-05
0.428244
-1.11318e-05
0.422158
-1.11428e-05
0.41613
-1.11539e-05
0.410159
-1.1165e-05
0.404245
-1.11761e-05
0.398388
-1.11872e-05
0.392589
-1.11981e-05
0.386846
-1.12089e-05
0.381159
-1.12196e-05
0.375529
-1.12303e-05
0.369955
-1.12411e-05
0.364437
-1.1252e-05
0.358975
-1.12629e-05
0.353569
-1.12737e-05
0.348217
-1.12844e-05
0.342921
-1.1295e-05
0.337681
-1.13055e-05
0.332494
-1.13159e-05
0.327363
-1.13263e-05
0.322286
-1.13366e-05
0.317263
-1.13469e-05
0.312294
-1.13571e-05
0.307379
-1.13677e-05
0.302517
-1.13778e-05
0.297709
-1.13887e-05
0.292954
-1.13984e-05
0.288252
-1.14098e-05
0.283602
-1.14185e-05
0.279005
-1.14307e-05
0.274461
-1.14375e-05
0.269968
-1.14509e-05
0.265527
-1.14544e-05
0.261137
-1.14693e-05
0.256799
-1.14684e-05
0.252512
-1.15086e-05
0.248276
-1.14485e-05
0.24409
-1.15191e-05
0.239954
-1.14689e-05
0.235869
-1.15373e-05
0.231833
-1.15342e-05
0.227847
-1.15716e-05
0.22391
-1.15943e-05
0.220022
-1.15524e-05
0.216183
-1.15967e-05
0.212392
-1.15163e-05
0.208649
-1.16379e-05
0.204955
-1.15398e-05
0.201308
-1.1686e-05
0.197709
-1.15039e-05
0.194155
-1.15624e-05
0.19065
-1.13208e-05
0.18719
-1.1098e-05
0.183777
-1.03252e-05
0.180408
-8.73968e-06
0.177083
-4.97146e-06
0.173798
3.08217e-06
0.170549
2.10324e-05
0.16732
5.99691e-05
0.164086
0.000144188
0.160791
0.000321502
0.15732
0.000695451
0.15341
0.00150678
0.148428
0.00339176
0.140436
0.00814077
0.120973
0.0307568
0.0482855
0.0926368
8.21922
0.000176998
8.18737
0.000160837
8.1555
0.000142294
8.12361
0.000145763
8.0917
0.000148407
8.05977
0.000149289
8.02781
0.000150161
7.99583
0.000151127
7.96382
0.000152045
7.93178
0.000152899
7.89972
0.000153705
7.86763
0.000154464
7.83552
0.000155174
7.80338
0.000155835
7.77122
0.000156446
7.73905
0.000157009
7.70685
0.000157523
7.67464
0.000157991
7.6424
0.000158412
7.61016
0.00015879
7.5779
0.000159127
7.54564
0.000159424
7.51337
0.000159684
7.48108
0.00015991
7.4488
0.000160105
7.41651
0.000160272
7.38424
0.000160415
7.35197
0.000160536
7.31972
0.000160641
7.28748
0.000160714
7.25524
0.000160803
7.22302
0.000160856
7.19082
0.000160906
7.15864
0.000160949
7.12649
0.000160987
7.09435
0.00016102
7.06224
0.00016105
7.03016
0.000161077
6.99809
0.000161102
6.96606
0.000161125
6.93405
0.000161147
6.90207
0.000161169
6.87012
0.00016119
6.83819
0.000161211
6.8063
0.000161231
6.77443
0.000161252
6.7426
0.000161273
6.7108
0.000161294
6.67903
0.000161315
6.6473
0.000161335
6.6156
0.000161357
6.58393
0.000161378
6.5523
0.000161399
6.5207
0.00016142
6.48914
0.000161442
6.45762
0.000161464
6.42614
0.000161486
6.3947
0.000161508
6.36329
0.00016153
6.33193
0.000161552
6.3006
0.000161575
6.26932
0.000161597
6.23808
0.000161619
6.20688
0.000161642
6.17572
0.000161665
6.14461
0.000161687
6.11354
0.000161711
6.08252
0.000161734
6.05155
0.000161757
6.02062
0.00016178
5.98974
0.000161804
5.9589
0.000161827
5.92812
0.000161851
5.89738
0.000161875
5.8667
0.000161898
5.83606
0.000161922
5.80547
0.000161946
5.77494
0.000161969
5.74446
0.000161993
5.71403
0.000162016
5.68366
0.00016204
5.65333
0.000162064
5.62307
0.000162089
5.59286
0.000162113
5.5627
0.000162138
5.5326
0.000162162
5.50256
0.000162186
5.47257
0.00016221
5.44264
0.000162232
5.41277
0.000162255
5.38296
0.000162277
5.35321
0.000162302
5.32352
0.00016233
5.2939
0.000162358
5.26433
0.000162387
5.23482
0.000162413
5.20538
0.000162437
5.176
0.000162458
5.14668
0.000162476
5.11742
0.000162494
5.08823
0.00016251
5.0591
0.000162525
5.03004
0.00016254
5.00105
0.000162553
4.97212
0.000162567
4.94326
0.000162586
4.91447
0.000162609
4.88575
0.000162637
4.8571
0.00016267
4.82851
0.000162705
4.8
0.000162739
4.77156
0.000162775
4.74318
0.000162811
4.71488
0.00016285
4.68665
0.000162889
4.65849
0.000162927
4.6304
0.00016296
4.60239
0.000162987
4.57444
0.000163008
4.54657
0.000163023
4.51877
0.000163032
4.49105
0.000163041
4.4634
0.000163051
4.43582
0.000163064
4.40832
0.000163079
4.3809
0.000163097
4.35356
0.00016312
4.32629
0.000163148
4.2991
0.00016318
4.27199
0.000163214
4.24495
0.000163245
4.218
0.000163273
4.19112
0.000163294
4.16432
0.000163308
4.1376
0.000163316
4.11096
0.000163322
4.08441
0.000163332
4.05793
0.000163349
4.03153
0.000163376
4.00522
0.000163409
3.97899
0.000163442
3.95284
0.000163471
3.92677
0.000163493
3.90078
0.000163511
3.87488
0.000163524
3.84906
0.000163531
3.82333
0.000163522
3.79767
0.000163489
3.7721
0.000163422
3.74661
0.000163319
3.72121
0.000163177
3.69589
0.000162993
3.67066
0.000162761
3.64551
0.000162476
3.62045
0.000162129
3.59548
0.000161715
3.57059
0.000161226
3.54578
0.000160657
3.52107
0.00016
3.49644
0.000159243
3.4719
0.000158371
3.44745
0.000157367
3.42309
0.000156212
3.39881
0.000154889
3.37463
0.000153379
3.35053
0.000151667
3.32652
0.00014974
3.30259
0.000147587
3.27876
0.0001452
3.25501
0.000142573
3.23136
0.000139702
3.20779
0.000136587
3.18432
0.000133227
3.16093
0.000129628
3.13763
0.000125796
3.11442
0.000121742
3.0913
0.000117478
3.06828
0.000113021
3.04534
0.000108388
3.02249
0.0001036
2.99974
9.86817e-05
2.97707
9.3657e-05
2.9545
8.85532e-05
2.93202
8.33986e-05
2.90963
7.8222e-05
2.88733
7.30525e-05
2.86512
6.79191e-05
2.84301
6.28498e-05
2.82098
5.78716e-05
2.79905
5.30096e-05
2.77721
4.82871e-05
2.75547
4.37251e-05
2.73381
3.9342e-05
2.71225
3.51535e-05
2.69079
3.11724e-05
2.66941
2.74087e-05
2.64813
2.38693e-05
2.62694
2.05584e-05
2.60584
1.74775e-05
2.58484
1.46255e-05
2.56393
1.19991e-05
2.54312
9.59269e-06
2.5224
7.39907e-06
2.50177
5.40944e-06
2.48124
3.61086e-06
2.4608
1.98122e-06
2.44045
5.46071e-07
2.4202
-6.76158e-07
2.40004
-1.85092e-06
2.37998
-2.85135e-06
2.36001
-3.72671e-06
2.34014
-4.49018e-06
2.32036
-5.15313e-06
2.30068
-5.72612e-06
2.28109
-6.21931e-06
2.26159
-6.64208e-06
2.24219
-7.00301e-06
2.22289
-7.31002e-06
2.20368
-7.57022e-06
2.18456
-7.79007e-06
2.16554
-7.97524e-06
2.14662
-8.13085e-06
2.12779
-8.2614e-06
2.10905
-8.37075e-06
2.09041
-8.46232e-06
2.07187
-8.53906e-06
2.05341
-8.60343e-06
2.03506
-8.6576e-06
2.0168
-8.7034e-06
1.99863
-8.74232e-06
1.98056
-8.77568e-06
1.96258
-8.80451e-06
1.9447
-8.82971e-06
1.92692
-8.85197e-06
1.90923
-8.87193e-06
1.89163
-8.89002e-06
1.87413
-8.90668e-06
1.85672
-8.92217e-06
1.83941
-8.93674e-06
1.82219
-8.95061e-06
1.80507
-8.9639e-06
1.78804
-8.97681e-06
1.77111
-8.98937e-06
1.75427
-9.00173e-06
1.73752
-9.01387e-06
1.72087
-9.02587e-06
1.70432
-9.03776e-06
1.68786
-9.04954e-06
1.67149
-9.0613e-06
1.65522
-9.07297e-06
1.63904
-9.08461e-06
1.62296
-9.0962e-06
1.60697
-9.10778e-06
1.59107
-9.11933e-06
1.57527
-9.13091e-06
1.55956
-9.14248e-06
1.54395
-9.15404e-06
1.52843
-9.16557e-06
1.513
-9.17705e-06
1.49767
-9.18849e-06
1.48243
-9.1999e-06
1.46728
-9.2113e-06
1.45223
-9.22272e-06
1.43727
-9.23414e-06
1.4224
-9.2456e-06
1.40763
-9.25706e-06
1.39295
-9.26856e-06
1.37836
-9.28003e-06
1.36387
-9.29148e-06
1.34947
-9.30284e-06
1.33516
-9.31414e-06
1.32094
-9.32536e-06
1.30682
-9.33654e-06
1.29278
-9.34776e-06
1.27884
-9.35899e-06
1.26499
-9.37027e-06
1.25124
-9.38156e-06
1.23757
-9.39283e-06
1.224
-9.40407e-06
1.21052
-9.41528e-06
1.19713
-9.42648e-06
1.18383
-9.43769e-06
1.17062
-9.44892e-06
1.15751
-9.46014e-06
1.14448
-9.47132e-06
1.13155
-9.48243e-06
1.11871
-9.49347e-06
1.10595
-9.50446e-06
1.09329
-9.51539e-06
1.08072
-9.52633e-06
1.06823
-9.5373e-06
1.05584
-9.54832e-06
1.04354
-9.55938e-06
1.03133
-9.57047e-06
1.0192
-9.58152e-06
1.00717
-9.59251e-06
0.995226
-9.60344e-06
0.98337
-9.61428e-06
0.971604
-9.62505e-06
0.959926
-9.63579e-06
0.948337
-9.64652e-06
0.936836
-9.65727e-06
0.925424
-9.66803e-06
0.9141
-9.6788e-06
0.902864
-9.68958e-06
0.891715
-9.70036e-06
0.880655
-9.71115e-06
0.869681
-9.72188e-06
0.858795
-9.73254e-06
0.847996
-9.74313e-06
0.837284
-9.75371e-06
0.826659
-9.76425e-06
0.81612
-9.77476e-06
0.805668
-9.78523e-06
0.795301
-9.79568e-06
0.785021
-9.8061e-06
0.774826
-9.81651e-06
0.764717
-9.82692e-06
0.754693
-9.8373e-06
0.744754
-9.84764e-06
0.734899
-9.85792e-06
0.72513
-9.86816e-06
0.715445
-9.87841e-06
0.705844
-9.88865e-06
0.696327
-9.89886e-06
0.686894
-9.90902e-06
0.677545
-9.91911e-06
0.668278
-9.92919e-06
0.659095
-9.93921e-06
0.649995
-9.94927e-06
0.640978
-9.95934e-06
0.632043
-9.96941e-06
0.623191
-9.97941e-06
0.61442
-9.98933e-06
0.605732
-9.9992e-06
0.597125
-1.00091e-05
0.5886
-1.0019e-05
0.580155
-1.0029e-05
0.571792
-1.0039e-05
0.56351
-1.00489e-05
0.555307
-1.00587e-05
0.547186
-1.00684e-05
0.539144
-1.0078e-05
0.531182
-1.00877e-05
0.523299
-1.00974e-05
0.515495
-1.01071e-05
0.507771
-1.01169e-05
0.500124
-1.01266e-05
0.492557
-1.01362e-05
0.485067
-1.01457e-05
0.477655
-1.01551e-05
0.470321
-1.01645e-05
0.463064
-1.01739e-05
0.455884
-1.01831e-05
0.44878
-1.01925e-05
0.441753
-1.02015e-05
0.434802
-1.02112e-05
0.427927
-1.022e-05
0.421127
-1.02302e-05
0.414402
-1.02384e-05
0.407752
-1.02491e-05
0.401177
-1.02564e-05
0.394676
-1.02677e-05
0.388249
-1.02734e-05
0.381895
-1.02849e-05
0.375615
-1.02881e-05
0.369407
-1.02972e-05
0.363272
-1.02987e-05
0.357209
-1.0332e-05
0.351218
-1.0263e-05
0.345298
-1.03074e-05
0.339449
-1.0307e-05
0.333672
-1.03023e-05
0.327964
-1.04327e-05
0.322327
-1.03458e-05
0.316759
-1.05232e-05
0.311261
-1.02916e-05
0.305831
-1.05133e-05
0.300471
-1.02008e-05
0.295177
-1.05808e-05
0.289953
-1.02186e-05
0.284795
-1.06604e-05
0.279705
-1.0139e-05
0.27468
-1.04258e-05
0.269723
-9.81459e-06
0.26483
-9.61455e-06
0.260003
-8.10883e-06
0.255238
-5.58169e-06
0.250537
1.06351e-06
0.245893
1.45747e-05
0.241301
4.51686e-05
0.236745
0.000110636
0.232195
0.000252273
0.227588
0.000547818
0.222799
0.00116704
0.217546
0.00250269
0.211135
0.00560757
0.201588
0.0135512
0.178971
0.0492984
0.0803126
0.142923
36.2813
7.19379e-05
36.1407
8.25079e-05
36.0001
7.10424e-05
35.8593
7.1815e-05
35.7185
7.40664e-05
35.5775
7.4777e-05
35.4364
7.5124e-05
35.2952
7.55753e-05
35.1539
7.6035e-05
35.0125
7.6455e-05
34.871
7.68477e-05
34.7293
7.72202e-05
34.5876
7.75709e-05
34.4457
7.78984e-05
34.3038
7.82023e-05
34.1617
7.84829e-05
34.0196
7.87402e-05
33.8774
7.89743e-05
33.7351
7.9186e-05
33.5928
7.93761e-05
33.4504
7.95455e-05
33.308
7.96954e-05
33.1655
7.98269e-05
33.023
7.99412e-05
32.8805
8.00398e-05
32.738
8.01243e-05
32.5955
8.01964e-05
32.4531
8.02583e-05
32.3108
8.03152e-05
32.1684
8.03421e-05
32.0261
8.03932e-05
31.8839
8.0421e-05
31.7418
8.04452e-05
31.5997
8.04675e-05
31.4578
8.04867e-05
31.3159
8.05035e-05
31.1742
8.05185e-05
31.0325
8.0532e-05
30.891
8.05445e-05
30.7496
8.05563e-05
30.6083
8.05674e-05
30.4671
8.05782e-05
30.3261
8.05888e-05
30.1852
8.05991e-05
30.0444
8.06094e-05
29.9037
8.06196e-05
29.7632
8.063e-05
29.6229
8.06404e-05
29.4826
8.0651e-05
29.3425
8.06615e-05
29.2026
8.06723e-05
29.0628
8.06828e-05
28.9232
8.06937e-05
28.7837
8.07044e-05
28.6444
8.07153e-05
28.5053
8.07262e-05
28.3663
8.07373e-05
28.2275
8.07484e-05
28.0889
8.07595e-05
27.9504
8.07708e-05
27.8121
8.07819e-05
27.674
8.07932e-05
27.5361
8.08046e-05
27.3984
8.0816e-05
27.2609
8.08275e-05
27.1236
8.08392e-05
26.9864
8.08509e-05
26.8495
8.08626e-05
26.7128
8.08744e-05
26.5762
8.08862e-05
26.4399
8.08981e-05
26.3038
8.09101e-05
26.1679
8.0922e-05
26.0322
8.09338e-05
25.8968
8.09459e-05
25.7616
8.09579e-05
25.6265
8.09698e-05
25.4918
8.09818e-05
25.3572
8.09937e-05
25.2229
8.10055e-05
25.0888
8.10176e-05
24.955
8.10296e-05
24.8214
8.10417e-05
24.688
8.10539e-05
24.5549
8.10666e-05
24.422
8.10792e-05
24.2894
8.10917e-05
24.157
8.1104e-05
24.0249
8.11155e-05
23.8931
8.11267e-05
23.7615
8.1138e-05
23.6302
8.11501e-05
23.4991
8.11637e-05
23.3683
8.11777e-05
23.2378
8.11921e-05
23.1076
8.12058e-05
22.9776
8.12182e-05
22.8479
8.12295e-05
22.7185
8.12391e-05
22.5893
8.12479e-05
22.4605
8.1256e-05
22.3319
8.12634e-05
22.2036
8.12703e-05
22.0756
8.1277e-05
21.9479
8.12841e-05
21.8206
8.12932e-05
21.6935
8.13051e-05
21.5667
8.13198e-05
21.4402
8.13365e-05
21.314
8.13541e-05
21.1882
8.13717e-05
21.0626
8.13893e-05
20.9374
8.14074e-05
20.8124
8.14262e-05
20.6878
8.14455e-05
20.5635
8.14644e-05
20.4395
8.14814e-05
20.3159
8.14955e-05
20.1925
8.15066e-05
20.0695
8.15147e-05
19.9468
8.15204e-05
19.8244
8.15251e-05
19.7023
8.15302e-05
19.5806
8.15365e-05
19.4592
8.15439e-05
19.3382
8.1553e-05
19.2175
8.15643e-05
19.0971
8.15782e-05
18.9771
8.1594e-05
18.8574
8.16102e-05
18.7381
8.16254e-05
18.6191
8.16387e-05
18.5004
8.16493e-05
18.3822
8.1657e-05
18.2642
8.1662e-05
18.1466
8.16662e-05
18.0294
8.16719e-05
17.9125
8.16813e-05
17.796
8.16951e-05
17.6798
8.17118e-05
17.5641
8.17287e-05
17.4486
8.17432e-05
17.3335
8.17547e-05
17.2188
8.17637e-05
17.1045
8.17704e-05
16.9905
8.17735e-05
16.8769
8.17695e-05
16.7637
8.17541e-05
16.6508
8.17233e-05
16.5383
8.16748e-05
16.4262
8.1607e-05
16.3144
8.15183e-05
16.203
8.14061e-05
16.092
8.12673e-05
15.9814
8.10983e-05
15.8711
8.08962e-05
15.7613
8.06581e-05
15.6518
8.0381e-05
15.5427
8.00606e-05
15.434
7.96914e-05
15.3257
7.92658e-05
15.2177
7.87754e-05
15.1102
7.82109e-05
15.003
7.75631e-05
14.8963
7.68234e-05
14.7899
7.59842e-05
14.6839
7.50388e-05
14.5783
7.39818e-05
14.4731
7.28089e-05
14.3683
7.15168e-05
14.2639
7.01034e-05
14.1598
6.8568e-05
14.0562
6.69109e-05
13.953
6.51338e-05
13.8501
6.32402e-05
13.7477
6.12346e-05
13.6456
5.91233e-05
13.544
5.69137e-05
13.4427
5.46147e-05
13.3419
5.22367e-05
13.2415
4.97909e-05
13.1414
4.72898e-05
13.0418
4.47467e-05
12.9425
4.21757e-05
12.8437
3.9591e-05
12.7453
3.70071e-05
12.6472
3.44386e-05
12.5496
3.18996e-05
12.4524
2.94035e-05
12.3556
2.69631e-05
12.2592
2.45902e-05
12.1632
2.22954e-05
12.0676
2.00882e-05
11.9725
1.79767e-05
11.8777
1.59676e-05
11.7833
1.4066e-05
11.6894
1.22757e-05
11.5959
1.05992e-05
11.5027
9.0373e-06
11.41
7.58982e-06
11.3177
6.25529e-06
11.2259
5.03117e-06
11.1344
3.91405e-06
11.0433
2.89973e-06
10.9527
1.98334e-06
10.8625
1.16385e-06
10.7727
4.57759e-07
10.6833
-2.68108e-07
10.5943
-8.22766e-07
10.5057
-1.32993e-06
10.4176
-1.77781e-06
10.3299
-2.1697e-06
10.2426
-2.51062e-06
10.1557
-2.80583e-06
10.0692
-3.0604e-06
9.98316
-3.27891e-06
9.89753
-3.4657e-06
9.81231
-3.62473e-06
9.72751
-3.75966e-06
9.64313
-3.87373e-06
9.55917
-3.96988e-06
9.47563
-4.05073e-06
9.39251
-4.11859e-06
9.30981
-4.17544e-06
9.22752
-4.22305e-06