/*--------------------------------*- C++ -*----------------------------------*\
| =========                 |                                                 |
| \\      /  F ield         | OpenFOAM: The Open Source CFD Toolbox           |
|  \\    /   O peration     | Version:  3.0.x                                 |
|   \\  /    A nd           | Web:      www.OpenFOAM.org                      |
|    \\/     M anipulation  |                                                 |
\*---------------------------------------------------------------------------*/
FoamFile
{
    version     2.0;
    format      ascii;
    class       volScalarField;
    location    "0.57";
    object      rho;
}
// * * * * * * * * * * * * * * * * * * * * * * * * * * * * * * * * * * * * * //

dimensions      [1 -3 0 0 0 0 0];

internalField   nonuniform List<scalar> 
27600
(
53.3101
53.3132
53.3183
53.3232
53.3281
53.3327
53.3373
53.3417
53.346
53.35
53.354
53.3577
53.3613
53.3647
53.3679
53.3709
53.3738
53.3765
53.379
53.3814
53.3836
53.3857
53.3877
53.3895
53.3911
53.3927
53.3942
53.3956
53.397
53.3984
53.3997
53.401
53.4022
53.4034
53.4047
53.4059
53.4072
53.4085
53.4097
53.411
53.4123
53.4136
53.4149
53.4162
53.4175
53.4188
53.4202
53.4215
53.4229
53.4242
53.4256
53.4269
53.4283
53.4297
53.4311
53.4325
53.4339
53.4353
53.4367
53.4381
53.4396
53.441
53.4425
53.4439
53.4454
53.4468
53.4483
53.4498
53.4512
53.4527
53.4542
53.4557
53.4572
53.4587
53.4602
53.4618
53.4633
53.4648
53.4663
53.4679
53.4694
53.471
53.4725
53.4741
53.4756
53.4772
53.4787
53.4803
53.4819
53.4835
53.485
53.4866
53.4882
53.4898
53.4914
53.493
53.4946
53.4962
53.4978
53.4994
53.501
53.5025
53.5041
53.5057
53.5073
53.5089
53.5106
53.5122
53.5139
53.5155
53.5172
53.5189
53.5205
53.5222
53.5239
53.5256
53.5272
53.5289
53.5305
53.5321
53.5338
53.5354
53.537
53.5386
53.5403
53.5419
53.5436
53.5452
53.5469
53.5485
53.5502
53.5519
53.5535
53.5552
53.5568
53.5585
53.5602
53.5618
53.5635
53.5652
53.5669
53.5686
53.5703
53.572
53.5737
53.5753
53.577
53.5787
53.5804
53.582
53.5836
53.5853
53.5869
53.5885
53.5901
53.5917
53.5934
53.595
53.5966
53.5983
53.5999
53.6016
53.6032
53.6049
53.6066
53.6082
53.6099
53.6115
53.6131
53.6148
53.6164
53.618
53.6196
53.6212
53.6229
53.6245
53.6261
53.6277
53.6293
53.6308
53.6324
53.634
53.6356
53.6372
53.6387
53.6403
53.6419
53.6435
53.645
53.6466
53.6481
53.6497
53.6512
53.6528
53.6543
53.6558
53.6574
53.6589
53.6604
53.6619
53.6635
53.665
53.6665
53.668
53.6695
53.671
53.6725
53.674
53.6754
53.6769
53.6784
53.6799
53.6813
53.6828
53.6842
53.6857
53.6871
53.6886
53.69
53.6915
53.6929
53.6943
53.6957
53.6971
53.6986
53.7
53.7014
53.7028
53.7042
53.7055
53.7069
53.7083
53.7097
53.711
53.7124
53.7137
53.7151
53.7164
53.7178
53.7191
53.7204
53.7218
53.7231
53.7244
53.7257
53.727
53.7283
53.7296
53.7309
53.7322
53.7334
53.7347
53.736
53.7372
53.7385
53.7397
53.741
53.7422
53.7434
53.7447
53.7459
53.7471
53.7483
53.7495
53.7507
53.7519
53.7531
53.7542
53.7554
53.7566
53.7577
53.7589
53.76
53.7612
53.7623
53.7634
53.7646
53.7657
53.7668
53.7679
53.769
53.7701
53.7712
53.7723
53.7733
53.7744
53.7755
53.7765
53.7776
53.7786
53.7797
53.7807
53.7817
53.7827
53.7838
53.7848
53.7858
53.7868
53.7877
53.7887
53.7897
53.7907
53.7916
53.7926
53.7935
53.7945
53.7954
53.7964
53.7973
53.7982
53.7991
53.8
53.8009
53.8018
53.8027
53.8036
53.8044
53.8053
53.8062
53.807
53.8079
53.8087
53.8096
53.8104
53.8112
53.812
53.8128
53.8136
53.8144
53.8152
53.816
53.8168
53.8176
53.8183
53.8191
53.8198
53.8206
53.8213
53.8221
53.8228
53.8235
53.8242
53.8249
53.8256
53.8263
53.827
53.8277
53.8284
53.829
53.8297
53.8304
53.831
53.8316
53.8323
53.8329
53.8335
53.8341
53.8348
53.8354
53.836
53.8366
53.8371
53.8377
53.8383
53.8389
53.8394
53.84
53.8405
53.8411
53.8416
53.8422
53.8426
53.8432
53.8436
53.8442
53.8446
53.8452
53.8456
53.8462
53.8465
53.8471
53.8474
53.8481
53.8483
53.849
53.8492
53.8498
53.85
53.8507
53.8509
53.8515
53.8517
53.8523
53.8525
53.8531
53.8532
53.8538
53.8539
53.8545
53.8545
53.3107
53.3138
53.3189
53.3239
53.3287
53.3334
53.3379
53.3423
53.3466
53.3507
53.3546
53.3583
53.3619
53.3653
53.3685
53.3715
53.3744
53.3771
53.3796
53.382
53.3842
53.3863
53.3883
53.3901
53.3917
53.3933
53.3948
53.3962
53.3976
53.399
53.4003
53.4015
53.4028
53.404
53.4053
53.4065
53.4078
53.409
53.4103
53.4116
53.4129
53.4142
53.4155
53.4168
53.4181
53.4194
53.4207
53.4221
53.4234
53.4248
53.4261
53.4275
53.4289
53.4303
53.4317
53.433
53.4345
53.4359
53.4373
53.4387
53.4401
53.4416
53.443
53.4445
53.4459
53.4474
53.4488
53.4503
53.4518
53.4533
53.4548
53.4563
53.4578
53.4593
53.4608
53.4623
53.4638
53.4653
53.4669
53.4684
53.4699
53.4715
53.473
53.4746
53.4761
53.4777
53.4793
53.4808
53.4824
53.484
53.4856
53.4871
53.4887
53.4903
53.4919
53.4935
53.4951
53.4967
53.4983
53.4999
53.5015
53.503
53.5046
53.5062
53.5078
53.5094
53.511
53.5127
53.5143
53.516
53.5177
53.5193
53.521
53.5227
53.5244
53.526
53.5277
53.5293
53.531
53.5326
53.5343
53.5359
53.5375
53.5391
53.5407
53.5424
53.544
53.5457
53.5473
53.549
53.5506
53.5523
53.554
53.5556
53.5573
53.5589
53.5606
53.5623
53.5639
53.5656
53.5673
53.569
53.5707
53.5724
53.5741
53.5758
53.5774
53.5791
53.5808
53.5824
53.5841
53.5857
53.5873
53.5889
53.5905
53.5922
53.5938
53.5954
53.597
53.5987
53.6003
53.602
53.6036
53.6053
53.6069
53.6086
53.6102
53.6119
53.6135
53.6152
53.6168
53.6184
53.62
53.6216
53.6232
53.6248
53.6264
53.628
53.6296
53.6312
53.6328
53.6344
53.636
53.6375
53.6391
53.6407
53.6423
53.6438
53.6454
53.6469
53.6485
53.65
53.6516
53.6531
53.6547
53.6562
53.6577
53.6593
53.6608
53.6623
53.6638
53.6653
53.6668
53.6683
53.6698
53.6713
53.6728
53.6743
53.6758
53.6773
53.6788
53.6802
53.6817
53.6832
53.6846
53.6861
53.6875
53.689
53.6904
53.6918
53.6933
53.6947
53.6961
53.6975
53.6989
53.7003
53.7017
53.7031
53.7045
53.7059
53.7073
53.7087
53.71
53.7114
53.7128
53.7141
53.7155
53.7168
53.7181
53.7195
53.7208
53.7221
53.7235
53.7248
53.7261
53.7274
53.7287
53.73
53.7312
53.7325
53.7338
53.7351
53.7363
53.7376
53.7388
53.7401
53.7413
53.7426
53.7438
53.745
53.7462
53.7474
53.7487
53.7499
53.7511
53.7522
53.7534
53.7546
53.7558
53.7569
53.7581
53.7593
53.7604
53.7615
53.7627
53.7638
53.7649
53.766
53.7672
53.7683
53.7694
53.7705
53.7715
53.7726
53.7737
53.7748
53.7758
53.7769
53.7779
53.779
53.78
53.7811
53.7821
53.7831
53.7841
53.7851
53.7861
53.7871
53.7881
53.7891
53.7901
53.791
53.792
53.7929
53.7939
53.7948
53.7958
53.7967
53.7976
53.7986
53.7995
53.8004
53.8013
53.8022
53.803
53.8039
53.8048
53.8057
53.8065
53.8074
53.8082
53.8091
53.8099
53.8107
53.8116
53.8124
53.8132
53.814
53.8148
53.8156
53.8164
53.8171
53.8179
53.8187
53.8194
53.8202
53.8209
53.8217
53.8224
53.8231
53.8239
53.8246
53.8253
53.826
53.8267
53.8274
53.828
53.8287
53.8294
53.83
53.8307
53.8314
53.832
53.8326
53.8333
53.8339
53.8345
53.8351
53.8357
53.8363
53.8369
53.8375
53.8381
53.8386
53.8392
53.8398
53.8403
53.8408
53.8414
53.8419
53.8425
53.8429
53.8436
53.844
53.8446
53.8449
53.8456
53.8459
53.8465
53.8468
53.8475
53.8478
53.8484
53.8487
53.8493
53.8495
53.8502
53.8504
53.851
53.8512
53.8518
53.852
53.8526
53.8528
53.8534
53.8536
53.8541
53.8543
53.8548
53.8549
53.3107
53.3138
53.3189
53.3239
53.3287
53.3333
53.3379
53.3423
53.3466
53.3507
53.3546
53.3583
53.3619
53.3653
53.3685
53.3715
53.3744
53.3771
53.3796
53.382
53.3842
53.3863
53.3883
53.3901
53.3917
53.3933
53.3948
53.3962
53.3976
53.399
53.4003
53.4015
53.4028
53.404
53.4053
53.4065
53.4078
53.409
53.4103
53.4116
53.4129
53.4142
53.4155
53.4168
53.4181
53.4194
53.4207
53.4221
53.4234
53.4248
53.4261
53.4275
53.4289
53.4303
53.4316
53.433
53.4344
53.4359
53.4373
53.4387
53.4401
53.4416
53.443
53.4445
53.4459
53.4474
53.4488
53.4503
53.4518
53.4533
53.4548
53.4562
53.4577
53.4593
53.4608
53.4623
53.4638
53.4653
53.4669
53.4684
53.4699
53.4715
53.473
53.4746
53.4761
53.4777
53.4793
53.4808
53.4824
53.484
53.4856
53.4871
53.4887
53.4903
53.4919
53.4935
53.4951
53.4967
53.4983
53.4999
53.5015
53.503
53.5046
53.5062
53.5078
53.5094
53.511
53.5127
53.5143
53.516
53.5177
53.5193
53.521
53.5227
53.5243
53.526
53.5277
53.5293
53.531
53.5326
53.5342
53.5359
53.5375
53.5391
53.5407
53.5424
53.544
53.5457
53.5473
53.549
53.5506
53.5523
53.554
53.5556
53.5573
53.5589
53.5606
53.5623
53.5639
53.5656
53.5673
53.569
53.5707
53.5724
53.5741
53.5758
53.5774
53.5791
53.5808
53.5824
53.5841
53.5857
53.5873
53.5889
53.5905
53.5922
53.5938
53.5954
53.597
53.5987
53.6003
53.602
53.6036
53.6053
53.6069
53.6086
53.6102
53.6119
53.6135
53.6152
53.6168
53.6184
53.62
53.6216
53.6232
53.6248
53.6264
53.628
53.6296
53.6312
53.6328
53.6344
53.636
53.6375
53.6391
53.6407
53.6423
53.6438
53.6454
53.6469
53.6485
53.65
53.6516
53.6531
53.6547
53.6562
53.6577
53.6593
53.6608
53.6623
53.6638
53.6653
53.6668
53.6683
53.6698
53.6713
53.6728
53.6743
53.6758
53.6773
53.6788
53.6802
53.6817
53.6832
53.6846
53.6861
53.6875
53.689
53.6904
53.6918
53.6933
53.6947
53.6961
53.6975
53.6989
53.7003
53.7017
53.7031
53.7045
53.7059
53.7073
53.7087
53.71
53.7114
53.7128
53.7141
53.7155
53.7168
53.7181
53.7195
53.7208
53.7221
53.7235
53.7248
53.7261
53.7274
53.7287
53.73
53.7312
53.7325
53.7338
53.7351
53.7363
53.7376
53.7388
53.7401
53.7413
53.7426
53.7438
53.745
53.7462
53.7474
53.7487
53.7499
53.7511
53.7522
53.7534
53.7546
53.7558
53.7569
53.7581
53.7593
53.7604
53.7615
53.7627
53.7638
53.7649
53.766
53.7672
53.7683
53.7694
53.7705
53.7715
53.7726
53.7737
53.7748
53.7758
53.7769
53.7779
53.779
53.78
53.7811
53.7821
53.7831
53.7841
53.7851
53.7861
53.7871
53.7881
53.7891
53.7901
53.791
53.792
53.7929
53.7939
53.7948
53.7958
53.7967
53.7976
53.7986
53.7995
53.8004
53.8013
53.8022
53.803
53.8039
53.8048
53.8057
53.8065
53.8074
53.8082
53.8091
53.8099
53.8107
53.8116
53.8124
53.8132
53.814
53.8148
53.8156
53.8164
53.8171
53.8179
53.8187
53.8194
53.8202
53.8209
53.8217
53.8224
53.8231
53.8239
53.8246
53.8253
53.826
53.8267
53.8274
53.828
53.8287
53.8294
53.83
53.8307
53.8314
53.832
53.8326
53.8333
53.8339
53.8345
53.8351
53.8357
53.8363
53.8369
53.8375
53.8381
53.8386
53.8392
53.8398
53.8403
53.8408
53.8414
53.8419
53.8425
53.8429
53.8436
53.844
53.8446
53.8449
53.8456
53.8459
53.8465
53.8468
53.8475
53.8478
53.8484
53.8487
53.8493
53.8495
53.8502
53.8504
53.851
53.8512
53.8518
53.852
53.8526
53.8528
53.8534
53.8536
53.8541
53.8543
53.8548
53.855
53.3107
53.3138
53.3189
53.3238
53.3287
53.3333
53.3379
53.3423
53.3465
53.3506
53.3545
53.3583
53.3619
53.3653
53.3685
53.3715
53.3744
53.3771
53.3796
53.382
53.3842
53.3863
53.3883
53.39
53.3917
53.3932
53.3947
53.3962
53.3976
53.399
53.4003
53.4015
53.4028
53.404
53.4053
53.4065
53.4078
53.409
53.4103
53.4116
53.4129
53.4142
53.4155
53.4168
53.4181
53.4194
53.4207
53.4221
53.4234
53.4248
53.4261
53.4275
53.4289
53.4302
53.4316
53.433
53.4344
53.4358
53.4373
53.4387
53.4401
53.4415
53.443
53.4444
53.4459
53.4474
53.4488
53.4503
53.4518
53.4533
53.4547
53.4562
53.4577
53.4592
53.4608
53.4623
53.4638
53.4653
53.4668
53.4684
53.4699
53.4715
53.473
53.4746
53.4761
53.4777
53.4793
53.4808
53.4824
53.484
53.4855
53.4871
53.4887
53.4903
53.4919
53.4935
53.4951
53.4967
53.4983
53.4999
53.5014
53.503
53.5046
53.5062
53.5078
53.5094
53.511
53.5127
53.5143
53.516
53.5177
53.5193
53.521
53.5227
53.5243
53.526
53.5277
53.5293
53.531
53.5326
53.5342
53.5359
53.5375
53.5391
53.5407
53.5424
53.544
53.5457
53.5473
53.549
53.5506
53.5523
53.554
53.5556
53.5573
53.5589
53.5606
53.5623
53.5639
53.5656
53.5673
53.569
53.5707
53.5724
53.5741
53.5758
53.5774
53.5791
53.5808
53.5824
53.5841
53.5857
53.5873
53.5889
53.5905
53.5922
53.5938
53.5954
53.597
53.5987
53.6003
53.602
53.6036
53.6053
53.6069
53.6086
53.6102
53.6119
53.6135
53.6152
53.6168
53.6184
53.62
53.6216
53.6232
53.6248
53.6264
53.628
53.6296
53.6312
53.6328
53.6344
53.636
53.6375
53.6391
53.6407
53.6423
53.6438
53.6454
53.6469
53.6485
53.65
53.6516
53.6531
53.6547
53.6562
53.6577
53.6593
53.6608
53.6623
53.6638
53.6653
53.6668
53.6683
53.6698
53.6713
53.6728
53.6743
53.6758
53.6773
53.6788
53.6802
53.6817
53.6832
53.6846
53.6861
53.6875
53.689
53.6904
53.6918
53.6933
53.6947
53.6961
53.6975
53.6989
53.7003
53.7017
53.7031
53.7045
53.7059
53.7073
53.7087
53.71
53.7114
53.7128
53.7141
53.7155
53.7168
53.7181
53.7195
53.7208
53.7221
53.7235
53.7248
53.7261
53.7274
53.7287
53.73
53.7312
53.7325
53.7338
53.7351
53.7363
53.7376
53.7388
53.7401
53.7413
53.7426
53.7438
53.745
53.7462
53.7474
53.7487
53.7499
53.7511
53.7522
53.7534
53.7546
53.7558
53.7569
53.7581
53.7593
53.7604
53.7615
53.7627
53.7638
53.7649
53.766
53.7672
53.7683
53.7694
53.7705
53.7715
53.7726
53.7737
53.7748
53.7758
53.7769
53.7779
53.779
53.78
53.7811
53.7821
53.7831
53.7841
53.7851
53.7861
53.7871
53.7881
53.7891
53.7901
53.791
53.792
53.7929
53.7939
53.7948
53.7958
53.7967
53.7976
53.7986
53.7995
53.8004
53.8013
53.8022
53.803
53.8039
53.8048
53.8057
53.8065
53.8074
53.8082
53.8091
53.8099
53.8107
53.8116
53.8124
53.8132
53.814
53.8148
53.8156
53.8164
53.8171
53.8179
53.8187
53.8194
53.8202
53.8209
53.8217
53.8224
53.8231
53.8239
53.8246
53.8253
53.826
53.8267
53.8274
53.828
53.8287
53.8294
53.83
53.8307
53.8314
53.832
53.8326
53.8333
53.8339
53.8345
53.8351
53.8357
53.8363
53.8369
53.8375
53.8381
53.8386
53.8392
53.8398
53.8403
53.8408
53.8414
53.8419
53.8425
53.8429
53.8436
53.844
53.8446
53.8449
53.8456
53.8459
53.8465
53.8468
53.8475
53.8478
53.8484
53.8487
53.8493
53.8495
53.8502
53.8504
53.851
53.8512
53.8518
53.852
53.8526
53.8528
53.8534
53.8536
53.8541
53.8544
53.8547
53.855
53.3107
53.3137
53.3188
53.3238
53.3287
53.3333
53.3379
53.3423
53.3465
53.3506
53.3545
53.3583
53.3619
53.3653
53.3685
53.3715
53.3744
53.3771
53.3796
53.382
53.3842
53.3863
53.3882
53.39
53.3917
53.3932
53.3947
53.3962
53.3976
53.399
53.4003
53.4015
53.4028
53.404
53.4053
53.4065
53.4078
53.409
53.4103
53.4116
53.4129
53.4141
53.4154
53.4167
53.4181
53.4194
53.4207
53.4221
53.4234
53.4248
53.4261
53.4275
53.4289
53.4302
53.4316
53.433
53.4344
53.4358
53.4373
53.4387
53.4401
53.4415
53.443
53.4444
53.4459
53.4473
53.4488
53.4503
53.4518
53.4532
53.4547
53.4562
53.4577
53.4592
53.4607
53.4623
53.4638
53.4653
53.4668
53.4684
53.4699
53.4715
53.473
53.4746
53.4761
53.4777
53.4792
53.4808
53.4824
53.484
53.4855
53.4871
53.4887
53.4903
53.4919
53.4935
53.4951
53.4967
53.4983
53.4999
53.5014
53.503
53.5046
53.5062
53.5078
53.5094
53.511
53.5127
53.5143
53.516
53.5177
53.5193
53.521
53.5227
53.5243
53.526
53.5277
53.5293
53.531
53.5326
53.5342
53.5359
53.5375
53.5391
53.5407
53.5424
53.544
53.5457
53.5473
53.549
53.5506
53.5523
53.554
53.5556
53.5573
53.5589
53.5606
53.5623
53.5639
53.5656
53.5673
53.569
53.5707
53.5724
53.5741
53.5757
53.5774
53.5791
53.5808
53.5824
53.5841
53.5857
53.5873
53.5889
53.5905
53.5922
53.5938
53.5954
53.597
53.5987
53.6003
53.602
53.6036
53.6053
53.6069
53.6086
53.6102
53.6119
53.6135
53.6152
53.6168
53.6184
53.62
53.6216
53.6232
53.6248
53.6264
53.628
53.6296
53.6312
53.6328
53.6344
53.636
53.6375
53.6391
53.6407
53.6423
53.6438
53.6454
53.6469
53.6485
53.65
53.6516
53.6531
53.6547
53.6562
53.6577
53.6593
53.6608
53.6623
53.6638
53.6653
53.6668
53.6683
53.6698
53.6713
53.6728
53.6743
53.6758
53.6773
53.6788
53.6802
53.6817
53.6832
53.6846
53.6861
53.6875
53.689
53.6904
53.6918
53.6933
53.6947
53.6961
53.6975
53.6989
53.7003
53.7017
53.7031
53.7045
53.7059
53.7073
53.7087
53.71
53.7114
53.7128
53.7141
53.7155
53.7168
53.7181
53.7195
53.7208
53.7221
53.7235
53.7248
53.7261
53.7274
53.7287
53.73
53.7312
53.7325
53.7338
53.7351
53.7363
53.7376
53.7388
53.7401
53.7413
53.7426
53.7438
53.745
53.7462
53.7474
53.7487
53.7499
53.7511
53.7522
53.7534
53.7546
53.7558
53.7569
53.7581
53.7593
53.7604
53.7615
53.7627
53.7638
53.7649
53.766
53.7672
53.7683
53.7694
53.7705
53.7715
53.7726
53.7737
53.7748
53.7758
53.7769
53.7779
53.779
53.78
53.7811
53.7821
53.7831
53.7841
53.7851
53.7861
53.7871
53.7881
53.7891
53.7901
53.791
53.792
53.7929
53.7939
53.7948
53.7958
53.7967
53.7976
53.7986
53.7995
53.8004
53.8013
53.8022
53.803
53.8039
53.8048
53.8057
53.8065
53.8074
53.8082
53.8091
53.8099
53.8107
53.8116
53.8124
53.8132
53.814
53.8148
53.8156
53.8164
53.8171
53.8179
53.8187
53.8194
53.8202
53.8209
53.8217
53.8224
53.8231
53.8239
53.8246
53.8253
53.826
53.8267
53.8274
53.828
53.8287
53.8294
53.83
53.8307
53.8314
53.832
53.8326
53.8333
53.8339
53.8345
53.8351
53.8357
53.8363
53.8369
53.8375
53.8381
53.8386
53.8392
53.8398
53.8403
53.8408
53.8414
53.8419
53.8425
53.8429
53.8436
53.844
53.8446
53.8449
53.8456
53.8459
53.8465
53.8468
53.8475
53.8478
53.8484
53.8487
53.8493
53.8495
53.8502
53.8504
53.851
53.8512
53.8518
53.852
53.8526
53.8528
53.8534
53.8536
53.8541
53.8543
53.8549
53.8551
53.3107
53.3137
53.3188
53.3238
53.3287
53.3333
53.3379
53.3423
53.3465
53.3506
53.3545
53.3583
53.3619
53.3653
53.3685
53.3715
53.3744
53.3771
53.3796
53.382
53.3842
53.3863
53.3882
53.39
53.3917
53.3932
53.3947
53.3962
53.3976
53.399
53.4003
53.4015
53.4028
53.404
53.4053
53.4065
53.4078
53.409
53.4103
53.4116
53.4129
53.4141
53.4154
53.4167
53.4181
53.4194
53.4207
53.4221
53.4234
53.4248
53.4261
53.4275
53.4289
53.4302
53.4316
53.433
53.4344
53.4358
53.4373
53.4387
53.4401
53.4415
53.443
53.4444
53.4459
53.4473
53.4488
53.4503
53.4518
53.4532
53.4547
53.4562
53.4577
53.4592
53.4607
53.4623
53.4638
53.4653
53.4668
53.4684
53.4699
53.4715
53.473
53.4746
53.4761
53.4777
53.4792
53.4808
53.4824
53.484
53.4855
53.4871
53.4887
53.4903
53.4919
53.4935
53.4951
53.4967
53.4983
53.4999
53.5014
53.503
53.5046
53.5062
53.5078
53.5094
53.511
53.5127
53.5143
53.516
53.5177
53.5193
53.521
53.5227
53.5243
53.526
53.5277
53.5293
53.531
53.5326
53.5342
53.5359
53.5375
53.5391
53.5407
53.5424
53.544
53.5457
53.5473
53.549
53.5506
53.5523
53.554
53.5556
53.5573
53.5589
53.5606
53.5623
53.5639
53.5656
53.5673
53.569
53.5707
53.5724
53.5741
53.5757
53.5774
53.5791
53.5808
53.5824
53.5841
53.5857
53.5873
53.5889
53.5905
53.5922
53.5938
53.5954
53.597
53.5987
53.6003
53.602
53.6036
53.6053
53.6069
53.6086
53.6102
53.6119
53.6135
53.6152
53.6168
53.6184
53.62
53.6216
53.6232
53.6248
53.6264
53.628
53.6296
53.6312
53.6328
53.6344
53.636
53.6375
53.6391
53.6407
53.6423
53.6438
53.6454
53.6469
53.6485
53.65
53.6516
53.6531
53.6547
53.6562
53.6577
53.6593
53.6608
53.6623
53.6638
53.6653
53.6668
53.6683
53.6698
53.6713
53.6728
53.6743
53.6758
53.6773
53.6788
53.6802
53.6817
53.6832
53.6846
53.6861
53.6875
53.689
53.6904
53.6918
53.6933
53.6947
53.6961
53.6975
53.6989
53.7003
53.7017
53.7031
53.7045
53.7059
53.7073
53.7087
53.71
53.7114
53.7128
53.7141
53.7155
53.7168
53.7181
53.7195
53.7208
53.7221
53.7235
53.7248
53.7261
53.7274
53.7287
53.73
53.7312
53.7325
53.7338
53.7351
53.7363
53.7376
53.7388
53.7401
53.7413
53.7426
53.7438
53.745
53.7462
53.7474
53.7487
53.7499
53.7511
53.7522
53.7534
53.7546
53.7558
53.7569
53.7581
53.7593
53.7604
53.7615
53.7627
53.7638
53.7649
53.766
53.7672
53.7683
53.7694
53.7705
53.7715
53.7726
53.7737
53.7748
53.7758
53.7769
53.7779
53.779
53.78
53.7811
53.7821
53.7831
53.7841
53.7851
53.7861
53.7871
53.7881
53.7891
53.7901
53.791
53.792
53.7929
53.7939
53.7948
53.7958
53.7967
53.7976
53.7986
53.7995
53.8004
53.8013
53.8022
53.803
53.8039
53.8048
53.8057
53.8065
53.8074
53.8082
53.8091
53.8099
53.8107
53.8116
53.8124
53.8132
53.814
53.8148
53.8156
53.8164
53.8171
53.8179
53.8187
53.8194
53.8202
53.8209
53.8217
53.8224
53.8231
53.8239
53.8246
53.8253
53.826
53.8267
53.8274
53.828
53.8287
53.8294
53.83
53.8307
53.8314
53.832
53.8326
53.8333
53.8339
53.8345
53.8351
53.8357
53.8363
53.8369
53.8375
53.8381
53.8386
53.8392
53.8398
53.8403
53.8409
53.8414
53.8419
53.8425
53.843
53.8435
53.844
53.8446
53.845
53.8455
53.846
53.8465
53.8469
53.8474
53.8479
53.8483
53.8488
53.8492
53.8496
53.8501
53.8504
53.8509
53.8513
53.8517
53.8522
53.8524
53.853
53.8532
53.8538
53.854
53.8545
53.8547
53.8552
53.3107
53.3138
53.3189
53.3238
53.3287
53.3333
53.3379
53.3423
53.3465
53.3506
53.3545
53.3583
53.3619
53.3653
53.3685
53.3715
53.3744
53.3771
53.3796
53.382
53.3842
53.3863
53.3883
53.39
53.3917
53.3932
53.3947
53.3962
53.3976
53.399
53.4003
53.4015
53.4028
53.404
53.4053
53.4065
53.4078
53.409
53.4103
53.4116
53.4129
53.4142
53.4155
53.4168
53.4181
53.4194
53.4207
53.4221
53.4234
53.4248
53.4261
53.4275
53.4289
53.4302
53.4316
53.433
53.4344
53.4358
53.4373
53.4387
53.4401
53.4415
53.443
53.4444
53.4459
53.4474
53.4488
53.4503
53.4518
53.4533
53.4547
53.4562
53.4577
53.4592
53.4608
53.4623
53.4638
53.4653
53.4668
53.4684
53.4699
53.4715
53.473
53.4746
53.4761
53.4777
53.4793
53.4808
53.4824
53.484
53.4855
53.4871
53.4887
53.4903
53.4919
53.4935
53.4951
53.4967
53.4983
53.4999
53.5014
53.503
53.5046
53.5062
53.5078
53.5094
53.511
53.5127
53.5143
53.516
53.5177
53.5193
53.521
53.5227
53.5243
53.526
53.5277
53.5293
53.531
53.5326
53.5342
53.5359
53.5375
53.5391
53.5407
53.5424
53.544
53.5457
53.5473
53.549
53.5506
53.5523
53.554
53.5556
53.5573
53.5589
53.5606
53.5623
53.5639
53.5656
53.5673
53.569
53.5707
53.5724
53.5741
53.5758
53.5774
53.5791
53.5808
53.5824
53.5841
53.5857
53.5873
53.5889
53.5905
53.5922
53.5938
53.5954
53.597
53.5987
53.6003
53.602
53.6036
53.6053
53.6069
53.6086
53.6102
53.6119
53.6135
53.6152
53.6168
53.6184
53.62
53.6216
53.6232
53.6248
53.6264
53.628
53.6296
53.6312
53.6328
53.6344
53.636
53.6375
53.6391
53.6407
53.6423
53.6438
53.6454
53.6469
53.6485
53.65
53.6516
53.6531
53.6547
53.6562
53.6577
53.6593
53.6608
53.6623
53.6638
53.6653
53.6668
53.6683
53.6698
53.6713
53.6728
53.6743
53.6758
53.6773
53.6788
53.6802
53.6817
53.6832
53.6846
53.6861
53.6875
53.689
53.6904
53.6918
53.6933
53.6947
53.6961
53.6975
53.6989
53.7003
53.7017
53.7031
53.7045
53.7059
53.7073
53.7087
53.71
53.7114
53.7128
53.7141
53.7155
53.7168
53.7181
53.7195
53.7208
53.7221
53.7235
53.7248
53.7261
53.7274
53.7287
53.73
53.7312
53.7325
53.7338
53.7351
53.7363
53.7376
53.7388
53.7401
53.7413
53.7426
53.7438
53.745
53.7462
53.7474
53.7487
53.7499
53.7511
53.7522
53.7534
53.7546
53.7558
53.7569
53.7581
53.7593
53.7604
53.7615
53.7627
53.7638
53.7649
53.766
53.7672
53.7683
53.7694
53.7705
53.7715
53.7726
53.7737
53.7748
53.7758
53.7769
53.7779
53.779
53.78
53.7811
53.7821
53.7831
53.7841
53.7851
53.7861
53.7871
53.7881
53.7891
53.7901
53.791
53.792
53.7929
53.7939
53.7948
53.7958
53.7967
53.7976
53.7986
53.7995
53.8004
53.8013
53.8022
53.803
53.8039
53.8048
53.8057
53.8065
53.8074
53.8082
53.8091
53.8099
53.8107
53.8116
53.8124
53.8132
53.814
53.8148
53.8156
53.8164
53.8171
53.8179
53.8187
53.8194
53.8202
53.8209
53.8217
53.8224
53.8231
53.8239
53.8246
53.8253
53.826
53.8267
53.8274
53.828
53.8287
53.8294
53.83
53.8307
53.8314
53.832
53.8326
53.8333
53.8339
53.8345
53.8351
53.8357
53.8363
53.8369
53.8375
53.8381
53.8386
53.8392
53.8398
53.8403
53.8409
53.8414
53.8419
53.8425
53.843
53.8435
53.844
53.8445
53.8451
53.8454
53.846
53.8464
53.847
53.8474
53.8478
53.8484
53.8487
53.8493
53.8496
53.85
53.8506
53.8508
53.8514
53.8516
53.8522
53.8524
53.853
53.8532
53.8537
53.854
53.8545
53.8548
53.8551
53.3107
53.3138
53.3189
53.3239
53.3287
53.3333
53.3379
53.3423
53.3466
53.3507
53.3546
53.3583
53.3619
53.3653
53.3685
53.3715
53.3744
53.3771
53.3796
53.382
53.3842
53.3863
53.3883
53.3901
53.3917
53.3933
53.3948
53.3962
53.3976
53.399
53.4003
53.4015
53.4028
53.404
53.4053
53.4065
53.4078
53.409
53.4103
53.4116
53.4129
53.4142
53.4155
53.4168
53.4181
53.4194
53.4207
53.4221
53.4234
53.4248
53.4261
53.4275
53.4289
53.4303
53.4316
53.433
53.4344
53.4359
53.4373
53.4387
53.4401
53.4416
53.443
53.4445
53.4459
53.4474
53.4488
53.4503
53.4518
53.4533
53.4548
53.4562
53.4577
53.4593
53.4608
53.4623
53.4638
53.4653
53.4669
53.4684
53.4699
53.4715
53.473
53.4746
53.4761
53.4777
53.4793
53.4808
53.4824
53.484
53.4856
53.4871
53.4887
53.4903
53.4919
53.4935
53.4951
53.4967
53.4983
53.4999
53.5015
53.503
53.5046
53.5062
53.5078
53.5094
53.511
53.5127
53.5143
53.516
53.5177
53.5193
53.521
53.5227
53.5243
53.526
53.5277
53.5293
53.531
53.5326
53.5342
53.5359
53.5375
53.5391
53.5407
53.5424
53.544
53.5457
53.5473
53.549
53.5506
53.5523
53.554
53.5556
53.5573
53.5589
53.5606
53.5623
53.5639
53.5656
53.5673
53.569
53.5707
53.5724
53.5741
53.5758
53.5774
53.5791
53.5808
53.5824
53.5841
53.5857
53.5873
53.5889
53.5905
53.5922
53.5938
53.5954
53.597
53.5987
53.6003
53.602
53.6036
53.6053
53.6069
53.6086
53.6102
53.6119
53.6135
53.6152
53.6168
53.6184
53.62
53.6216
53.6232
53.6248
53.6264
53.628
53.6296
53.6312
53.6328
53.6344
53.636
53.6375
53.6391
53.6407
53.6423
53.6438
53.6454
53.6469
53.6485
53.65
53.6516
53.6531
53.6547
53.6562
53.6577
53.6593
53.6608
53.6623
53.6638
53.6653
53.6668
53.6683
53.6698
53.6713
53.6728
53.6743
53.6758
53.6773
53.6788
53.6802
53.6817
53.6832
53.6846
53.6861
53.6875
53.689
53.6904
53.6918
53.6933
53.6947
53.6961
53.6975
53.6989
53.7003
53.7017
53.7031
53.7045
53.7059
53.7073
53.7087
53.71
53.7114
53.7128
53.7141
53.7155
53.7168
53.7181
53.7195
53.7208
53.7221
53.7235
53.7248
53.7261
53.7274
53.7287
53.73
53.7312
53.7325
53.7338
53.7351
53.7363
53.7376
53.7388
53.7401
53.7413
53.7426
53.7438
53.745
53.7462
53.7474
53.7487
53.7499
53.7511
53.7522
53.7534
53.7546
53.7558
53.7569
53.7581
53.7593
53.7604
53.7615
53.7627
53.7638
53.7649
53.766
53.7672
53.7683
53.7694
53.7705
53.7715
53.7726
53.7737
53.7748
53.7758
53.7769
53.7779
53.779
53.78
53.7811
53.7821
53.7831
53.7841
53.7851
53.7861
53.7871
53.7881
53.7891
53.7901
53.791
53.792
53.7929
53.7939
53.7948
53.7958
53.7967
53.7976
53.7986
53.7995
53.8004
53.8013
53.8022
53.803
53.8039
53.8048
53.8057
53.8065
53.8074
53.8082
53.8091
53.8099
53.8107
53.8116
53.8124
53.8132
53.814
53.8148
53.8156
53.8164
53.8171
53.8179
53.8187
53.8194
53.8202
53.8209
53.8217
53.8224
53.8231
53.8239
53.8246
53.8253
53.826
53.8267
53.8274
53.828
53.8287
53.8294
53.83
53.8307
53.8314
53.832
53.8326
53.8333
53.8339
53.8345
53.8351
53.8357
53.8363
53.8369
53.8375
53.8381
53.8386
53.8392
53.8398
53.8403
53.8409
53.8414
53.8419
53.8425
53.843
53.8435
53.844
53.8445
53.8451
53.8454
53.8461
53.8464
53.847
53.8473
53.8479
53.8482
53.8488
53.8491
53.8497
53.8499
53.8506
53.8508
53.8514
53.8516
53.8522
53.8524
53.853
53.8532
53.8538
53.854
53.8545
53.8547
53.8552
53.3107
53.3138
53.3189
53.3239
53.3287
53.3334
53.3379
53.3423
53.3466
53.3507
53.3546
53.3583
53.3619
53.3653
53.3685
53.3715
53.3744
53.3771
53.3796
53.382
53.3842
53.3863
53.3883
53.3901
53.3917
53.3933
53.3948
53.3962
53.3976
53.399
53.4003
53.4015
53.4028
53.404
53.4053
53.4065
53.4078
53.409
53.4103
53.4116
53.4129
53.4142
53.4155
53.4168
53.4181
53.4194
53.4207
53.4221
53.4234
53.4248
53.4261
53.4275
53.4289
53.4303
53.4317
53.433
53.4345
53.4359
53.4373
53.4387
53.4401
53.4416
53.443
53.4445
53.4459
53.4474
53.4488
53.4503
53.4518
53.4533
53.4548
53.4563
53.4578
53.4593
53.4608
53.4623
53.4638
53.4653
53.4669
53.4684
53.4699
53.4715
53.473
53.4746
53.4761
53.4777
53.4793
53.4808
53.4824
53.484
53.4856
53.4871
53.4887
53.4903
53.4919
53.4935
53.4951
53.4967
53.4983
53.4999
53.5015
53.503
53.5046
53.5062
53.5078
53.5094
53.511
53.5127
53.5143
53.516
53.5177
53.5193
53.521
53.5227
53.5244
53.526
53.5277
53.5293
53.531
53.5326
53.5343
53.5359
53.5375
53.5391
53.5407
53.5424
53.544
53.5457
53.5473
53.549
53.5506
53.5523
53.554
53.5556
53.5573
53.5589
53.5606
53.5623
53.5639
53.5656
53.5673
53.569
53.5707
53.5724
53.5741
53.5758
53.5774
53.5791
53.5808
53.5824
53.5841
53.5857
53.5873
53.5889
53.5905
53.5922
53.5938
53.5954
53.597
53.5987
53.6003
53.602
53.6036
53.6053
53.6069
53.6086
53.6102
53.6119
53.6135
53.6152
53.6168
53.6184
53.62
53.6216
53.6232
53.6248
53.6264
53.628
53.6296
53.6312
53.6328
53.6344
53.636
53.6375
53.6391
53.6407
53.6423
53.6438
53.6454
53.6469
53.6485
53.65
53.6516
53.6531
53.6547
53.6562
53.6577
53.6593
53.6608
53.6623
53.6638
53.6653
53.6668
53.6683
53.6698
53.6713
53.6728
53.6743
53.6758
53.6773
53.6788
53.6802
53.6817
53.6832
53.6846
53.6861
53.6875
53.689
53.6904
53.6918
53.6933
53.6947
53.6961
53.6975
53.6989
53.7003
53.7017
53.7031
53.7045
53.7059
53.7073
53.7087
53.71
53.7114
53.7128
53.7141
53.7155
53.7168
53.7181
53.7195
53.7208
53.7221
53.7235
53.7248
53.7261
53.7274
53.7287
53.73
53.7312
53.7325
53.7338
53.7351
53.7363
53.7376
53.7388
53.7401
53.7413
53.7426
53.7438
53.745
53.7462
53.7474
53.7487
53.7499
53.7511
53.7522
53.7534
53.7546
53.7558
53.7569
53.7581
53.7593
53.7604
53.7615
53.7627
53.7638
53.7649
53.766
53.7672
53.7683
53.7694
53.7705
53.7715
53.7726
53.7737
53.7748
53.7758
53.7769
53.7779
53.779
53.78
53.7811
53.7821
53.7831
53.7841
53.7851
53.7861
53.7871
53.7881
53.7891
53.7901
53.791
53.792
53.7929
53.7939
53.7948
53.7958
53.7967
53.7976
53.7986
53.7995
53.8004
53.8013
53.8022
53.803
53.8039
53.8048
53.8057
53.8065
53.8074
53.8082
53.8091
53.8099
53.8107
53.8116
53.8124
53.8132
53.814
53.8148
53.8156
53.8164
53.8171
53.8179
53.8187
53.8194
53.8202
53.8209
53.8217
53.8224
53.8231
53.8239
53.8246
53.8253
53.826
53.8267
53.8274
53.828
53.8287
53.8294
53.83
53.8307
53.8314
53.832
53.8326
53.8333
53.8339
53.8345
53.8351
53.8357
53.8363
53.8369
53.8375
53.8381
53.8386
53.8392
53.8398
53.8403
53.8409
53.8414
53.8419
53.8425
53.843
53.8435
53.844
53.8445
53.8451
53.8454
53.8461
53.8464
53.847
53.8473
53.848
53.8482
53.8489
53.8491
53.8497
53.85
53.8506
53.8508
53.8514
53.8516
53.8522
53.8524
53.853
53.8532
53.8538
53.8539
53.8545
53.8546
53.8552
53.3101
53.3132
53.3183
53.3232
53.3281
53.3327
53.3373
53.3417
53.346
53.35
53.354
53.3577
53.3613
53.3647
53.3679
53.3709
53.3738
53.3765
53.379
53.3814
53.3836
53.3857
53.3877
53.3895
53.3911
53.3927
53.3942
53.3956
53.397
53.3984
53.3997
53.401
53.4022
53.4034
53.4047
53.4059
53.4072
53.4085
53.4097
53.411
53.4123
53.4136
53.4149
53.4162
53.4175
53.4188
53.4202
53.4215
53.4229
53.4242
53.4256
53.4269
53.4283
53.4297
53.4311
53.4325
53.4339
53.4353
53.4367
53.4381
53.4396
53.441
53.4425
53.4439
53.4454
53.4468
53.4483
53.4498
53.4512
53.4527
53.4542
53.4557
53.4572
53.4587
53.4602
53.4618
53.4633
53.4648
53.4663
53.4679
53.4694
53.471
53.4725
53.4741
53.4756
53.4772
53.4787
53.4803
53.4819
53.4835
53.485
53.4866
53.4882
53.4898
53.4914
53.493
53.4946
53.4962
53.4978
53.4994
53.501