/*--------------------------------*- C++ -*----------------------------------*\
| =========                 |                                                 |
| \\      /  F ield         | OpenFOAM: The Open Source CFD Toolbox           |
|  \\    /   O peration     | Version:  3.0.x                                 |
|   \\  /    A nd           | Web:      www.OpenFOAM.org                      |
|    \\/     M anipulation  |                                                 |
\*---------------------------------------------------------------------------*/
FoamFile
{
    version     2.0;
    format      ascii;
    class       volVectorField;
    location    "0.57";
    object      U;
}
// * * * * * * * * * * * * * * * * * * * * * * * * * * * * * * * * * * * * * //

dimensions      [0 1 -1 0 0 0 0];

internalField   nonuniform List<vector> 
27600
(
(42.6333 0.000123513 0)
(42.4716 0.000114206 0)
(42.2825 0.000113476 0)
(42.1029 0.00011683 0)
(41.9322 0.000119859 0)
(41.7633 0.000122394 0)
(41.5932 0.000124644 0)
(41.4224 0.000126649 0)
(41.2515 0.000128431 0)
(41.0807 0.000130021 0)
(40.91 0.000131445 0)
(40.7393 0.000132723 0)
(40.5686 0.000133871 0)
(40.398 0.000134903 0)
(40.2273 0.000135829 0)
(40.0567 0.000136659 0)
(39.8862 0.000137401 0)
(39.7157 0.000138064 0)
(39.5452 0.000138652 0)
(39.3748 0.000139173 0)
(39.2044 0.000139633 0)
(39.0341 0.000140036 0)
(38.8639 0.000140388 0)
(38.6937 0.000140694 0)
(38.5236 0.000140958 0)
(38.3536 0.000141184 0)
(38.1837 0.000141378 0)
(38.0138 0.000141543 0)
(37.8441 0.000141679 0)
(37.6745 0.000141804 0)
(37.5049 0.000141902 0)
(37.3354 0.000141982 0)
(37.1661 0.000142051 0)
(36.9969 0.000142108 0)
(36.8277 0.000142157 0)
(36.6587 0.000142197 0)
(36.4899 0.00014223 0)
(36.3211 0.000142258 0)
(36.1525 0.000142282 0)
(35.984 0.000142302 0)
(35.8157 0.000142318 0)
(35.6475 0.000142332 0)
(35.4795 0.000142344 0)
(35.3116 0.000142354 0)
(35.1438 0.000142362 0)
(34.9762 0.000142369 0)
(34.8088 0.000142375 0)
(34.6415 0.00014238 0)
(34.4745 0.000142384 0)
(34.3075 0.000142387 0)
(34.1408 0.00014239 0)
(33.9742 0.000142392 0)
(33.8079 0.000142393 0)
(33.6417 0.000142394 0)
(33.4757 0.000142395 0)
(33.3099 0.000142396 0)
(33.1443 0.000142396 0)
(32.9789 0.000142396 0)
(32.8137 0.000142396 0)
(32.6487 0.000142396 0)
(32.4839 0.000142396 0)
(32.3194 0.000142395 0)
(32.155 0.000142395 0)
(31.9909 0.000142395 0)
(31.8271 0.000142394 0)
(31.6634 0.000142394 0)
(31.5 0.000142393 0)
(31.3368 0.000142393 0)
(31.1739 0.000142392 0)
(31.0112 0.000142392 0)
(30.8487 0.000142392 0)
(30.6865 0.000142392 0)
(30.5246 0.000142392 0)
(30.3629 0.000142392 0)
(30.2015 0.000142392 0)
(30.0403 0.000142392 0)
(29.8794 0.000142392 0)
(29.7188 0.000142392 0)
(29.5585 0.000142392 0)
(29.3984 0.000142392 0)
(29.2386 0.000142393 0)
(29.0791 0.000142394 0)
(28.9199 0.000142395 0)
(28.7609 0.000142396 0)
(28.6023 0.000142398 0)
(28.4439 0.000142398 0)
(28.2859 0.000142399 0)
(28.1282 0.000142399 0)
(27.9707 0.000142399 0)
(27.8136 0.000142399 0)
(27.6568 0.0001424 0)
(27.5003 0.000142402 0)
(27.3441 0.000142406 0)
(27.1882 0.000142411 0)
(27.0327 0.000142415 0)
(26.8775 0.000142418 0)
(26.7226 0.000142419 0)
(26.568 0.000142419 0)
(26.4138 0.000142416 0)
(26.2599 0.000142413 0)
(26.1063 0.000142409 0)
(25.9531 0.000142406 0)
(25.8002 0.000142401 0)
(25.6477 0.000142396 0)
(25.4956 0.000142391 0)
(25.3437 0.000142389 0)
(25.1923 0.00014239 0)
(25.0412 0.000142395 0)
(24.8904 0.000142403 0)
(24.74 0.000142413 0)
(24.59 0.000142424 0)
(24.4404 0.000142436 0)
(24.2911 0.000142449 0)
(24.1422 0.000142464 0)
(23.9936 0.000142479 0)
(23.8455 0.000142493 0)
(23.6977 0.000142504 0)
(23.5503 0.00014251 0)
(23.4033 0.000142511 0)
(23.2567 0.000142508 0)
(23.1104 0.000142501 0)
(22.9646 0.000142493 0)
(22.8191 0.000142487 0)
(22.6741 0.000142483 0)
(22.5294 0.00014248 0)
(22.3851 0.00014248 0)
(22.2413 0.000142483 0)
(22.0978 0.000142489 0)
(21.9548 0.0001425 0)
(21.8121 0.000142512 0)
(21.6699 0.000142524 0)
(21.528 0.000142532 0)
(21.3866 0.000142536 0)
(21.2456 0.000142534 0)
(21.105 0.000142528 0)
(20.9649 0.000142519 0)
(20.8251 0.000142512 0)
(20.6858 0.00014251 0)
(20.5469 0.000142516 0)
(20.4085 0.000142528 0)
(20.2704 0.00014254 0)
(20.1328 0.000142551 0)
(19.9956 0.000142557 0)
(19.8589 0.000142561 0)
(19.7226 0.000142562 0)
(19.5867 0.000142558 0)
(19.4512 0.000142543 0)
(19.3162 0.00014251 0)
(19.1817 0.000142453 0)
(19.0476 0.000142369 0)
(18.9139 0.000142256 0)
(18.7807 0.000142112 0)
(18.6479 0.000141933 0)
(18.5156 0.000141715 0)
(18.3837 0.000141451 0)
(18.2523 0.000141135 0)
(18.1213 0.000140764 0)
(17.9909 0.00014033 0)
(17.8608 0.000139829 0)
(17.7312 0.00013925 0)
(17.6021 0.000138583 0)
(17.4735 0.000137814 0)
(17.3453 0.000136928 0)
(17.2177 0.00013591 0)
(17.0904 0.000134745 0)
(16.9637 0.00013342 0)
(16.8375 0.000131923 0)
(16.7117 0.000130243 0)
(16.5865 0.000128373 0)
(16.4617 0.000126305 0)
(16.3374 0.000124034 0)
(16.2137 0.000121558 0)
(16.0904 0.000118874 0)
(15.9677 0.000115985 0)
(15.8454 0.000112893 0)
(15.7237 0.000109605 0)
(15.6025 0.000106128 0)
(15.4819 0.000102474 0)
(15.3618 9.86553e-05 0)
(15.2422 9.46876e-05 0)
(15.1231 9.05885e-05 0)
(15.0046 8.63776e-05 0)
(14.8866 8.20763e-05 0)
(14.7692 7.77074e-05 0)
(14.6523 7.32947e-05 0)
(14.5359 6.88624e-05 0)
(14.4201 6.44346e-05 0)
(14.3048 6.00354e-05 0)
(14.1901 5.56881e-05 0)
(14.0759 5.14151e-05 0)
(13.9623 4.72377e-05 0)
(13.8492 4.31751e-05 0)
(13.7367 3.92449e-05 0)
(13.6247 3.54626e-05 0)
(13.5132 3.18414e-05 0)
(13.4023 2.8392e-05 0)
(13.2918 2.51226e-05 0)
(13.182 2.20394e-05 0)
(13.0726 1.91457e-05 0)
(12.9638 1.6443e-05 0)
(12.8555 1.39306e-05 0)
(12.7478 1.16055e-05 0)
(12.6405 9.46261e-06 0)
(12.5338 7.49369e-06 0)
(12.4276 5.68671e-06 0)
(12.3219 4.02265e-06 0)
(12.2167 2.46047e-06 0)
(12.112 8.94873e-07 0)
(12.0078 -1.78143e-07 0)
(11.9042 -1.09752e-06 0)
(11.801 -1.91172e-06 0)
(11.6984 -2.63061e-06 0)
(11.5962 -3.26111e-06 0)
(11.4945 -3.81087e-06 0)
(11.3934 -4.28768e-06 0)
(11.2927 -4.69914e-06 0)
(11.1926 -5.0525e-06 0)
(11.0929 -5.35463e-06 0)
(10.9938 -5.61188e-06 0)
(10.8951 -5.83e-06 0)
(10.7969 -6.01428e-06 0)
(10.6993 -6.16945e-06 0)
(10.6021 -6.29975e-06 0)
(10.5054 -6.40889e-06 0)
(10.4092 -6.50011e-06 0)
(10.3135 -6.57627e-06 0)
(10.2184 -6.63984e-06 0)
(10.1237 -6.69294e-06 0)
(10.0295 -6.73738e-06 0)
(9.93574 -6.77469e-06 0)
(9.84253 -6.80618e-06 0)
(9.74981 -6.8329e-06 0)
(9.65758 -6.85577e-06 0)
(9.56584 -6.87552e-06 0)
(9.4746 -6.89277e-06 0)
(9.38385 -6.90804e-06 0)
(9.29359 -6.92175e-06 0)
(9.20383 -6.93421e-06 0)
(9.11456 -6.9457e-06 0)
(9.02578 -6.95641e-06 0)
(8.9375 -6.96653e-06 0)
(8.8497 -6.9762e-06 0)
(8.7624 -6.98553e-06 0)
(8.67558 -6.99462e-06 0)
(8.58926 -7.00351e-06 0)
(8.50343 -7.01225e-06 0)
(8.41809 -7.02089e-06 0)
(8.33324 -7.02944e-06 0)
(8.24888 -7.03794e-06 0)
(8.16501 -7.0464e-06 0)
(8.08162 -7.05485e-06 0)
(7.99873 -7.06328e-06 0)
(7.91632 -7.0717e-06 0)
(7.83441 -7.08014e-06 0)
(7.75297 -7.0886e-06 0)
(7.67203 -7.09707e-06 0)
(7.59157 -7.10557e-06 0)
(7.5116 -7.11406e-06 0)
(7.43212 -7.12252e-06 0)
(7.35312 -7.13098e-06 0)
(7.2746 -7.13944e-06 0)
(7.19657 -7.14792e-06 0)
(7.11902 -7.15643e-06 0)
(7.04196 -7.16498e-06 0)
(6.96538 -7.17358e-06 0)
(6.88928 -7.1822e-06 0)
(6.81366 -7.19088e-06 0)
(6.73852 -7.19955e-06 0)
(6.66387 -7.20822e-06 0)
(6.58969 -7.21685e-06 0)
(6.51599 -7.22546e-06 0)
(6.44278 -7.23403e-06 0)
(6.37004 -7.24261e-06 0)
(6.29777 -7.25121e-06 0)
(6.22599 -7.25985e-06 0)
(6.15468 -7.26857e-06 0)
(6.08385 -7.27732e-06 0)
(6.01349 -7.28607e-06 0)
(5.94361 -7.29483e-06 0)
(5.8742 -7.30356e-06 0)
(5.80526 -7.31232e-06 0)
(5.7368 -7.32111e-06 0)
(5.66881 -7.32993e-06 0)
(5.60129 -7.33879e-06 0)
(5.53424 -7.34764e-06 0)
(5.46766 -7.35646e-06 0)
(5.40155 -7.36525e-06 0)
(5.3359 -7.37401e-06 0)
(5.27073 -7.38275e-06 0)
(5.20602 -7.39151e-06 0)
(5.14178 -7.40032e-06 0)
(5.078 -7.40921e-06 0)
(5.01469 -7.41816e-06 0)
(4.95184 -7.42714e-06 0)
(4.88945 -7.43613e-06 0)
(4.82752 -7.44508e-06 0)
(4.76606 -7.45399e-06 0)
(4.70506 -7.46286e-06 0)
(4.64451 -7.47171e-06 0)
(4.58443 -7.48054e-06 0)
(4.5248 -7.4894e-06 0)
(4.46563 -7.49829e-06 0)
(4.40692 -7.50722e-06 0)
(4.34866 -7.51617e-06 0)
(4.29086 -7.52517e-06 0)
(4.23351 -7.53418e-06 0)
(4.17661 -7.54323e-06 0)
(4.12016 -7.55225e-06 0)
(4.06416 -7.56123e-06 0)
(4.00862 -7.5702e-06 0)
(3.95352 -7.57916e-06 0)
(3.89887 -7.58813e-06 0)
(3.84467 -7.5971e-06 0)
(3.79091 -7.60607e-06 0)
(3.73759 -7.61504e-06 0)
(3.68472 -7.624e-06 0)
(3.63229 -7.633e-06 0)
(3.58031 -7.642e-06 0)
(3.52876 -7.65101e-06 0)
(3.47765 -7.66001e-06 0)
(3.42698 -7.669e-06 0)
(3.37675 -7.67798e-06 0)
(3.32695 -7.68697e-06 0)
(3.27758 -7.69599e-06 0)
(3.22865 -7.705e-06 0)
(3.18016 -7.714e-06 0)
(3.13209 -7.72298e-06 0)
(3.08445 -7.73194e-06 0)
(3.03724 -7.7409e-06 0)
(2.99046 -7.74988e-06 0)
(2.9441 -7.75891e-06 0)
(2.89817 -7.76795e-06 0)
(2.85267 -7.77697e-06 0)
(2.80759 -7.78595e-06 0)
(2.76293 -7.7949e-06 0)
(2.71869 -7.80388e-06 0)
(2.67487 -7.81293e-06 0)
(2.63147 -7.82203e-06 0)
(2.58848 -7.83115e-06 0)
(2.54592 -7.84024e-06 0)
(2.50376 -7.84927e-06 0)
(2.46202 -7.85823e-06 0)
(2.42069 -7.86714e-06 0)
(2.37978 -7.87608e-06 0)
(2.33927 -7.88512e-06 0)
(2.29917 -7.89421e-06 0)
(2.25948 -7.90335e-06 0)
(2.22019 -7.91246e-06 0)
(2.1813 -7.92152e-06 0)
(2.14282 -7.93051e-06 0)
(2.10474 -7.93947e-06 0)
(2.06706 -7.94839e-06 0)
(2.02977 -7.9573e-06 0)
(1.99288 -7.96616e-06 0)
(1.95639 -7.97508e-06 0)
(1.92029 -7.98394e-06 0)
(1.88458 -7.99304e-06 0)
(1.84926 -8.0019e-06 0)
(1.81433 -8.0113e-06 0)
(1.77979 -8.01994e-06 0)
(1.74563 -8.02975e-06 0)
(1.71186 -8.03768e-06 0)
(1.67847 -8.04824e-06 0)
(1.64546 -8.05479e-06 0)
(1.61283 -8.06688e-06 0)
(1.58057 -8.07099e-06 0)
(1.54869 -8.0858e-06 0)
(1.51718 -8.08633e-06 0)
(1.48605 -8.11292e-06 0)
(1.45528 -8.09194e-06 0)
(1.42489 -8.13963e-06 0)
(1.39485 -8.10017e-06 0)
(1.36519 -8.16767e-06 0)
(1.33588 -8.11369e-06 0)
(1.30695 -8.19236e-06 0)
(1.27835 -8.1334e-06 0)
(1.25013 -8.20619e-06 0)
(1.22225 -8.14573e-06 0)
(1.19474 -8.21721e-06 0)
(1.16756 -8.16564e-06 0)
(1.14075 -8.23665e-06 0)
(1.11426 -8.18747e-06 0)
(1.08815 -8.24702e-06 0)
(1.06235 -8.18529e-06 0)
(1.03692 -8.235e-06 0)
(1.01179 -8.133e-06 0)
(0.987037 -8.10394e-06 0)
(0.962574 -7.81718e-06 0)
(0.93847 -7.42269e-06 0)
(0.914637 -6.2521e-06 0)
(0.891126 -3.87057e-06 0)
(0.867809 2.65429e-06 0)
(0.844648 1.591e-05 0)
(0.821345 4.37933e-05 0)
(0.797526 0.000102229 0)
(0.772142 0.000229556 0)
(0.743165 0.000532439 0)
(0.69723 0.00123438 0)
(0.663586 0.00728437 0)
(0.326297 0.0155593 0)
(42.6351 0.00019893 0)
(42.4753 0.000162108 0)
(42.2881 0.000148088 0)
(42.1104 0.000147186 0)
(41.9416 0.000146786 0)
(41.7746 0.000146148 0)
(41.6065 0.000145763 0)
(41.4376 0.000145589 0)
(41.2687 0.000145529 0)
(41.0999 0.000145547 0)
(40.9311 0.000145625 0)
(40.7624 0.000145747 0)
(40.5938 0.000145897 0)
(40.4251 0.000146065 0)
(40.2565 0.00014624 0)
(40.0879 0.000146417 0)
(39.9194 0.000146589 0)
(39.7509 0.000146752 0)
(39.5825 0.000146904 0)
(39.4141 0.000147041 0)
(39.2458 0.000147163 0)
(39.0775 0.00014727 0)
(38.9093 0.000147361 0)
(38.7412 0.000147436 0)
(38.5732 0.000147497 0)
(38.4052 0.000147545 0)
(38.2374 0.000147581 0)
(38.0696 0.000147607 0)
(37.9019 0.000147619 0)
(37.7344 0.000147637 0)
(37.5669 0.000147644 0)
(37.3995 0.000147639 0)
(37.2322 0.000147636 0)
(37.065 0.000147631 0)
(36.898 0.000147626 0)
(36.731 0.000147619 0)
(36.5642 0.000147614 0)
(36.3976 0.000147608 0)
(36.231 0.000147604 0)
(36.0646 0.000147601 0)
(35.8983 0.000147599 0)
(35.7322 0.000147599 0)
(35.5662 0.000147599 0)
(35.4004 0.000147601 0)
(35.2347 0.000147605 0)
(35.0692 0.000147609 0)
(34.9038 0.000147615 0)
(34.7386 0.000147621 0)
(34.5736 0.000147629 0)
(34.4088 0.000147637 0)
(34.2441 0.000147647 0)
(34.0796 0.000147657 0)
(33.9153 0.000147667 0)
(33.7512 0.000147679 0)
(33.5873 0.000147691 0)
(33.4235 0.000147703 0)
(33.26 0.000147716 0)
(33.0967 0.000147729 0)
(32.9335 0.000147743 0)
(32.7706 0.000147757 0)
(32.6079 0.000147771 0)
(32.4454 0.000147786 0)
(32.2832 0.0001478 0)
(32.1211 0.000147815 0)
(31.9593 0.00014783 0)
(31.7977 0.000147846 0)
(31.6364 0.000147862 0)
(31.4752 0.000147877 0)
(31.3144 0.000147894 0)
(31.1537 0.00014791 0)
(30.9934 0.000147926 0)
(30.8332 0.000147942 0)
(30.6733 0.000147959 0)
(30.5137 0.000147975 0)
(30.3544 0.000147992 0)
(30.1953 0.000148009 0)
(30.0364 0.000148026 0)
(29.8779 0.000148042 0)
(29.7196 0.000148058 0)
(29.5616 0.000148075 0)
(29.4039 0.000148092 0)
(29.2464 0.000148109 0)
(29.0893 0.000148127 0)
(28.9324 0.000148144 0)
(28.7758 0.000148161 0)
(28.6196 0.000148178 0)
(28.4636 0.000148194 0)
(28.3079 0.00014821 0)
(28.1525 0.000148225 0)
(27.9975 0.000148241 0)
(27.8427 0.000148257 0)
(27.6883 0.000148275 0)
(27.5341 0.000148295 0)
(27.3803 0.000148316 0)
(27.2269 0.000148337 0)
(27.0737 0.000148356 0)
(26.9209 0.000148371 0)
(26.7684 0.000148385 0)
(26.6162 0.000148395 0)
(26.4644 0.000148405 0)
(26.3129 0.000148414 0)
(26.1617 0.000148423 0)
(26.0109 0.00014843 0)
(25.8605 0.000148437 0)
(25.7104 0.000148443 0)
(25.5606 0.000148454 0)
(25.4112 0.000148469 0)
(25.2622 0.000148489 0)
(25.1135 0.000148513 0)
(24.9652 0.000148539 0)
(24.8172 0.000148566 0)
(24.6696 0.000148593 0)
(24.5224 0.000148622 0)
(24.3756 0.000148653 0)
(24.2291 0.000148684 0)
(24.083 0.000148714 0)
(23.9373 0.000148739 0)
(23.7919 0.000148757 0)
(23.647 0.000148769 0)
(23.5024 0.000148774 0)
(23.3582 0.000148775 0)
(23.2145 0.000148776 0)
(23.0711 0.000148778 0)
(22.9281 0.000148783 0)
(22.7855 0.000148791 0)
(22.6433 0.000148801 0)
(22.5015 0.000148815 0)
(22.3601 0.000148834 0)
(22.2191 0.000148859 0)
(22.0785 0.000148885 0)
(21.9383 0.00014891 0)
(21.7985 0.00014893 0)
(21.6592 0.000148943 0)
(21.5202 0.000148949 0)
(21.3817 0.000148947 0)
(21.2436 0.000148944 0)
(21.1059 0.000148943 0)
(20.9687 0.000148951 0)
(20.8318 0.000148969 0)
(20.6954 0.000148994 0)
(20.5595 0.00014902 0)
(20.4239 0.000149042 0)
(20.2888 0.000149058 0)
(20.1541 0.00014907 0)
(20.0198 0.00014908 0)
(19.886 0.000149083 0)
(19.7526 0.000149073 0)
(19.6197 0.00014904 0)
(19.4872 0.000148975 0)
(19.3551 0.000148875 0)
(19.2235 0.00014874 0)
(19.0924 0.000148567 0)
(18.9616 0.000148352 0)
(18.8314 0.000148089 0)
(18.7015 0.000147771 0)
(18.5722 0.000147392 0)
(18.4432 0.000146947 0)
(18.3148 0.00014643 0)
(18.1868 0.000145835 0)
(18.0592 0.000145152 0)
(17.9321 0.000144367 0)
(17.8055 0.000143465 0)
(17.6793 0.000142428 0)
(17.5536 0.000141239 0)
(17.4283 0.000139881 0)
(17.3035 0.000138342 0)
(17.1792 0.000136607 0)
(17.0553 0.000134668 0)
(16.9319 0.000132517 0)
(16.809 0.000130149 0)
(16.6865 0.000127559 0)
(16.5646 0.000124746 0)
(16.443 0.000121713 0)
(16.322 0.000118461 0)
(16.2014 0.000114999 0)
(16.0813 0.000111333 0)
(15.9617 0.000107476 0)
(15.8425 0.000103443 0)
(15.7238 9.92478e-05 0)
(15.6056 9.49109e-05 0)
(15.4879 9.04527e-05 0)
(15.3707 8.5896e-05 0)
(15.2539 8.12649e-05 0)
(15.1376 7.65851e-05 0)
(15.0218 7.18826e-05 0)
(14.9064 6.71835e-05 0)
(14.7916 6.25137e-05 0)
(14.6772 5.78982e-05 0)
(14.5633 5.33614e-05 0)
(14.4499 4.89259e-05 0)
(14.337 4.46129e-05 0)
(14.2245 4.04413e-05 0)
(14.1125 3.64278e-05 0)
(14.001 3.25867e-05 0)
(13.89 2.89298e-05 0)
(13.7795 2.54662e-05 0)
(13.6695 2.22021e-05 0)
(13.5599 1.91416e-05 0)
(13.4509 1.62859e-05 0)
(13.3423 1.36337e-05 0)
(13.2342 1.1182e-05 0)
(13.1266 8.9274e-06 0)
(13.0195 6.86628e-06 0)
(12.9129 4.99412e-06 0)
(12.8067 3.30535e-06 0)
(12.7011 1.79448e-06 0)
(12.5959 5.06357e-07 0)
(12.4912 -6.89754e-07 0)
(12.387 -1.70305e-06 0)
(12.2834 -2.61533e-06 0)
(12.1802 -3.42879e-06 0)
(12.0774 -4.14397e-06 0)
(11.9752 -4.76695e-06 0)
(11.8735 -5.30611e-06 0)
(11.7723 -5.77031e-06 0)
(11.6715 -6.16816e-06 0)
(11.5713 -6.50773e-06 0)
(11.4715 -6.79647e-06 0)
(11.3723 -7.04112e-06 0)
(11.2735 -7.24783e-06 0)
(11.1752 -7.42199e-06 0)
(11.0774 -7.56842e-06 0)
(10.9802 -7.69132e-06 0)
(10.8834 -7.7944e-06 0)
(10.7871 -7.88086e-06 0)
(10.6913 -7.95346e-06 0)
(10.5959 -8.01453e-06 0)
(10.5011 -8.06605e-06 0)
(10.4068 -8.10975e-06 0)
(10.313 -8.14703e-06 0)
(10.2196 -8.17912e-06 0)
(10.1268 -8.20698e-06 0)
(10.0344 -8.23145e-06 0)
(9.94258 -8.25319e-06 0)
(9.85121 -8.27279e-06 0)
(9.76034 -8.29065e-06 0)
(9.66996 -8.30715e-06 0)
(9.58008 -8.32256e-06 0)
(9.49068 -8.3371e-06 0)
(9.40178 -8.35095e-06 0)
(9.31337 -8.36429e-06 0)
(9.22545 -8.37723e-06 0)
(9.13802 -8.38986e-06 0)
(9.05108 -8.40227e-06 0)
(8.96464 -8.41447e-06 0)
(8.87868 -8.42653e-06 0)
(8.79321 -8.43847e-06 0)
(8.70824 -8.45034e-06 0)
(8.62375 -8.46213e-06 0)
(8.53976 -8.47385e-06 0)
(8.45625 -8.48552e-06 0)
(8.37323 -8.49713e-06 0)
(8.2907 -8.50871e-06 0)
(8.20865 -8.52026e-06 0)
(8.12709 -8.53182e-06 0)
(8.04602 -8.54338e-06 0)
(7.96544 -8.5549e-06 0)
(7.88534 -8.5664e-06 0)
(7.80573 -8.57784e-06 0)
(7.72661 -8.58921e-06 0)
(7.64796 -8.60055e-06 0)
(7.56981 -8.61187e-06 0)
(7.49213 -8.62318e-06 0)
(7.41494 -8.63449e-06 0)
(7.33823 -8.64581e-06 0)
(7.262 -8.65715e-06 0)
(7.18626 -8.6685e-06 0)
(7.111 -8.67983e-06 0)
(7.03621 -8.69113e-06 0)
(6.96191 -8.70233e-06 0)
(6.88809 -8.71344e-06 0)
(6.81474 -8.72446e-06 0)
(6.74187 -8.73544e-06 0)
(6.66948 -8.74643e-06 0)
(6.59757 -8.75745e-06 0)
(6.52614 -8.76848e-06 0)
(6.45518 -8.77952e-06 0)
(6.38469 -8.79053e-06 0)
(6.31468 -8.80151e-06 0)
(6.24514 -8.81245e-06 0)
(6.17608 -8.82336e-06 0)
(6.10749 -8.83427e-06 0)
(6.03937 -8.84519e-06 0)
(5.97172 -8.85611e-06 0)
(5.90454 -8.86695e-06 0)
(5.83783 -8.87772e-06 0)
(5.77159 -8.88841e-06 0)
(5.70582 -8.89902e-06 0)
(5.64051 -8.90959e-06 0)
(5.57567 -8.92014e-06 0)
(5.5113 -8.93071e-06 0)
(5.44739 -8.94132e-06 0)
(5.38395 -8.95197e-06 0)
(5.32097 -8.96262e-06 0)
(5.25846 -8.97324e-06 0)
(5.1964 -8.98379e-06 0)
(5.13481 -8.99427e-06 0)
(5.07367 -9.00465e-06 0)
(5.013 -9.01496e-06 0)
(4.95279 -9.02522e-06 0)
(4.89303 -9.03548e-06 0)
(4.83373 -9.04572e-06 0)
(4.77488 -9.05597e-06 0)
(4.7165 -9.06622e-06 0)
(4.65856 -9.07647e-06 0)
(4.60108 -9.08673e-06 0)
(4.54405 -9.09697e-06 0)
(4.48747 -9.10716e-06 0)
(4.43135 -9.11727e-06 0)
(4.37567 -9.12731e-06 0)
(4.32044 -9.1373e-06 0)
(4.26566 -9.14727e-06 0)
(4.21132 -9.15719e-06 0)
(4.15743 -9.16707e-06 0)
(4.10399 -9.17694e-06 0)
(4.05099 -9.18675e-06 0)
(3.99843 -9.19655e-06 0)
(3.94631 -9.20633e-06 0)
(3.89463 -9.21608e-06 0)
(3.84339 -9.2258e-06 0)
(3.79259 -9.23545e-06 0)
(3.74222 -9.24505e-06 0)
(3.69229 -9.25464e-06 0)
(3.64279 -9.26423e-06 0)
(3.59373 -9.27378e-06 0)
(3.5451 -9.28327e-06 0)
(3.4969 -9.2927e-06 0)
(3.44913 -9.30208e-06 0)
(3.40179 -9.31142e-06 0)
(3.35487 -9.32078e-06 0)
(3.30838 -9.33015e-06 0)
(3.26232 -9.33951e-06 0)
(3.21668 -9.34881e-06 0)
(3.17147 -9.35802e-06 0)
(3.12668 -9.36716e-06 0)
(3.0823 -9.37631e-06 0)
(3.03835 -9.38551e-06 0)
(2.99482 -9.39478e-06 0)
(2.9517 -9.40403e-06 0)
(2.909 -9.41322e-06 0)
(2.86671 -9.42227e-06 0)
(2.82484 -9.43119e-06 0)
(2.78338 -9.44005e-06 0)
(2.74232 -9.44892e-06 0)
(2.70168 -9.45788e-06 0)
(2.66145 -9.46689e-06 0)
(2.62162 -9.4759e-06 0)
(2.5822 -9.48483e-06 0)
(2.54318 -9.49367e-06 0)
(2.50456 -9.50239e-06 0)
(2.46635 -9.51104e-06 0)
(2.42853 -9.51963e-06 0)
(2.39111 -9.52822e-06 0)
(2.35409 -9.53667e-06 0)
(2.31746 -9.54523e-06 0)
(2.28123 -9.55355e-06 0)
(2.24538 -9.56227e-06 0)
(2.20993 -9.57048e-06 0)
(2.17487 -9.5796e-06 0)
(2.14019 -9.58735e-06 0)
(2.1059 -9.59709e-06 0)
(2.07199 -9.60372e-06 0)
(2.03846 -9.61446e-06 0)
(2.00531 -9.6189e-06 0)
(1.97255 -9.6315e-06 0)
(1.94016 -9.63216e-06 0)
(1.90814 -9.64786e-06 0)
(1.8765 -9.64331e-06 0)
(1.84523 -9.67996e-06 0)
(1.81433 -9.63222e-06 0)
(1.7838 -9.70014e-06 0)
(1.75363 -9.63986e-06 0)
(1.72383 -9.72323e-06 0)
(1.69438 -9.67138e-06 0)
(1.66531 -9.7499e-06 0)
(1.63658 -9.70734e-06 0)
(1.60822 -9.74774e-06 0)
(1.58021 -9.71021e-06 0)
(1.55256 -9.73972e-06 0)
(1.52524 -9.72888e-06 0)
(1.4983 -9.76401e-06 0)
(1.47167 -9.75252e-06 0)
(1.44542 -9.74576e-06 0)
(1.41949 -9.68136e-06 0)
(1.39392 -9.62868e-06 0)
(1.36866 -9.39175e-06 0)
(1.34377 -8.99927e-06 0)
(1.31917 -7.93459e-06 0)
(1.29493 -5.76369e-06 0)
(1.27097 -1.35883e-06 0)
(1.24732 7.763e-06 0)
(1.22387 2.89927e-05 0)
(1.20056 7.46955e-05 0)
(1.17711 0.000171258 0)
(1.15312 0.000374267 0)
(1.12752 0.000810024 0)
(1.09819 0.00177743 0)
(1.05218 0.00362104 0)
(1.01037 0.013576 0)
(0.726873 0.0160555 0)
(42.6351 0.000142579 0)
(42.4753 0.000114908 0)
(42.2881 0.000102746 0)
(42.1103 0.000105684 0)
(41.9416 0.000108233 0)
(41.7746 0.000109473 0)
(41.6065 0.000110547 0)
(41.4376 0.000111609 0)
(41.2687 0.00011259 0)
(41.0999 0.000113484 0)
(40.9311 0.000114306 0)
(40.7624 0.000115065 0)
(40.5937 0.000115763 0)
(40.4251 0.000116404 0)
(40.2565 0.000116989 0)
(40.0879 0.000117523 0)
(39.9194 0.000118007 0)
(39.7509 0.000118445 0)
(39.5824 0.000118839 0)
(39.4141 0.000119191 0)
(39.2458 0.000119504 0)
(39.0775 0.000119781 0)
(38.9093 0.000120025 0)
(38.7412 0.000120238 0)
(38.5732 0.000120423 0)
(38.4053 0.000120583 0)
(38.2374 0.000120721 0)
(38.0696 0.00012084 0)
(37.9019 0.000120942 0)
(37.7344 0.000121024 0)
(37.5669 0.000121107 0)
(37.3995 0.000121165 0)
(37.2322 0.000121218 0)
(37.0651 0.000121265 0)
(36.898 0.000121306 0)
(36.7311 0.000121342 0)
(36.5643 0.000121374 0)
(36.3976 0.000121402 0)
(36.2311 0.000121428 0)
(36.0647 0.000121452 0)
(35.8984 0.000121474 0)
(35.7323 0.000121495 0)
(35.5663 0.000121515 0)
(35.4005 0.000121534 0)
(35.2348 0.000121552 0)
(35.0693 0.00012157 0)
(34.9039 0.000121587 0)
(34.7387 0.000121604 0)
(34.5737 0.00012162 0)
(34.4089 0.000121637 0)
(34.2442 0.000121653 0)
(34.0797 0.000121668 0)
(33.9154 0.000121684 0)
(33.7513 0.000121699 0)
(33.5874 0.000121715 0)
(33.4237 0.00012173 0)
(33.2601 0.000121745 0)
(33.0968 0.00012176 0)
(32.9337 0.000121775 0)
(32.7708 0.00012179 0)
(32.6081 0.000121805 0)
(32.4456 0.00012182 0)
(32.2833 0.000121835 0)
(32.1213 0.00012185 0)
(31.9595 0.000121864 0)
(31.7979 0.000121879 0)
(31.6366 0.000121894 0)
(31.4755 0.000121909 0)
(31.3146 0.000121924 0)
(31.154 0.000121939 0)
(30.9936 0.000121954 0)
(30.8335 0.000121969 0)
(30.6736 0.000121984 0)
(30.514 0.000121999 0)
(30.3546 0.000122014 0)
(30.1955 0.000122029 0)
(30.0367 0.000122044 0)
(29.8782 0.000122058 0)
(29.7199 0.000122073 0)
(29.5619 0.000122088 0)
(29.4042 0.000122103 0)
(29.2468 0.000122118 0)
(29.0896 0.000122133 0)
(28.9327 0.000122148 0)
(28.7762 0.000122164 0)
(28.6199 0.000122179 0)
(28.4639 0.000122193 0)
(28.3083 0.000122208 0)
(28.1529 0.000122222 0)
(27.9979 0.000122236 0)
(27.8431 0.000122249 0)
(27.6887 0.000122265 0)
(27.5346 0.000122282 0)
(27.3808 0.0001223 0)
(27.2273 0.000122318 0)
(27.0741 0.000122335 0)
(26.9213 0.000122349 0)
(26.7688 0.000122362 0)
(26.6167 0.000122372 0)
(26.4649 0.000122382 0)
(26.3134 0.000122391 0)
(26.1622 0.000122399 0)
(26.0115 0.000122407 0)
(25.861 0.000122414 0)
(25.7109 0.000122421 0)
(25.5612 0.000122431 0)
(25.4118 0.000122445 0)
(25.2627 0.000122463 0)
(25.1141 0.000122484 0)
(24.9658 0.000122506 0)
(24.8178 0.000122529 0)
(24.6702 0.000122551 0)
(24.523 0.000122575 0)
(24.3762 0.0001226 0)
(24.2297 0.000122626 0)
(24.0836 0.000122651 0)
(23.9379 0.000122672 0)
(23.7926 0.000122688 0)
(23.6477 0.0001227 0)
(23.5031 0.000122707 0)
(23.359 0.000122711 0)
(23.2152 0.000122714 0)
(23.0718 0.000122718 0)
(22.9288 0.000122725 0)
(22.7862 0.000122732 0)
(22.644 0.000122742 0)
(22.5023 0.000122756 0)
(22.3609 0.000122773 0)
(22.2199 0.000122793 0)
(22.0793 0.000122815 0)
(21.9392 0.000122835 0)
(21.7994 0.000122851 0)
(21.6601 0.000122864 0)
(21.5211 0.00012287 0)
(21.3826 0.000122872 0)
(21.2445 0.000122873 0)
(21.1069 0.000122876 0)
(20.9696 0.000122885 0)
(20.8328 0.000122901 0)
(20.6964 0.000122921 0)
(20.5604 0.000122942 0)
(20.4249 0.000122958 0)
(20.2898 0.00012297 0)
(20.1551 0.000122978 0)
(20.0209 0.000122983 0)
(19.8871 0.000122981 0)
(19.7537 0.000122968 0)
(19.6208 0.000122936 0)
(19.4883 0.000122878 0)
(19.3563 0.000122792 0)
(19.2247 0.000122675 0)
(19.0935 0.000122526 0)
(18.9628 0.000122341 0)
(18.8325 0.000122114 0)
(18.7027 0.000121838 0)
(18.5734 0.00012151 0)
(18.4445 0.000121124 0)
(18.316 0.000120676 0)
(18.188 0.000120159 0)
(18.0605 0.000119563 0)
(17.9334 0.000118879 0)
(17.8067 0.000118091 0)
(17.6806 0.000117188 0)
(17.5549 0.000116153 0)
(17.4296 0.000114975 0)
(17.3048 0.000113641 0)
(17.1805 0.000112143 0)
(17.0566 0.000110472 0)
(16.9333 0.000108623 0)
(16.8103 0.00010659 0)
(16.6879 0.000104371 0)
(16.5659 0.000101967 0)
(16.4443 9.93783e-05 0)
(16.3233 9.66087e-05 0)
(16.2027 9.36644e-05 0)
(16.0826 9.05536e-05 0)
(15.9629 8.72865e-05 0)
(15.8438 8.38757e-05 0)
(15.7251 8.03358e-05 0)
(15.6069 7.66831e-05 0)
(15.4891 7.29358e-05 0)
(15.3718 6.91135e-05 0)
(15.255 6.52368e-05 0)
(15.1387 6.13275e-05 0)
(15.0229 5.74076e-05 0)
(14.9075 5.34993e-05 0)
(14.7926 4.96245e-05 0)
(14.6782 4.58043e-05 0)
(14.5643 4.2059e-05 0)
(14.4508 3.84076e-05 0)
(14.3379 3.48673e-05 0)
(14.2254 3.14538e-05 0)
(14.1134 2.81804e-05 0)
(14.0019 2.50588e-05 0)
(13.8909 2.20979e-05 0)
(13.7803 1.93049e-05 0)
(13.6703 1.66843e-05 0)
(13.5607 1.42386e-05 0)
(13.4516 1.19683e-05 0)
(13.343 9.87154e-06 0)
(13.2349 7.945e-06 0)
(13.1273 6.18579e-06 0)
(13.0201 4.59119e-06 0)
(12.9135 3.15888e-06 0)
(12.8073 1.88757e-06 0)
(12.7017 7.68319e-07 0)
(12.5965 -2.14145e-07 0)
(12.4918 -1.10258e-06 0)
(12.3876 -1.95012e-06 0)
(12.2839 -2.6891e-06 0)
(12.1807 -3.33231e-06 0)
(12.078 -3.88883e-06 0)
(11.9758 -4.36922e-06 0)
(11.8741 -4.78263e-06 0)
(11.7728 -5.1373e-06 0)
(11.6721 -5.44051e-06 0)
(11.5718 -5.69879e-06 0)
(11.4721 -5.91801e-06 0)
(11.3728 -6.10348e-06 0)
(11.274 -6.25988e-06 0)
(11.1758 -6.39139e-06 0)
(11.078 -6.50172e-06 0)
(10.9807 -6.59413e-06 0)
(10.8839 -6.67141e-06 0)
(10.7876 -6.73602e-06 0)
(10.6918 -6.79007e-06 0)
(10.5965 -6.83535e-06 0)
(10.5017 -6.87342e-06 0)
(10.4073 -6.90558e-06 0)
(10.3135 -6.9329e-06 0)
(10.2202 -6.9563e-06 0)
(10.1273 -6.97653e-06 0)
(10.035 -6.99422e-06 0)
(9.94311 -7.00985e-06 0)
(9.85175 -7.02387e-06 0)
(9.76088 -7.03659e-06 0)
(9.6705 -7.04833e-06 0)
(9.58061 -7.05927e-06 0)
(9.49121 -7.06957e-06 0)
(9.40231 -7.0794e-06 0)
(9.3139 -7.08883e-06 0)
(9.22598 -7.09799e-06 0)
(9.13855 -7.10693e-06 0)
(9.05162 -7.11572e-06 0)
(8.96517 -7.12438e-06 0)
(8.87921 -7.13294e-06 0)
(8.79375 -7.14142e-06 0)
(8.70877 -7.14983e-06 0)
(8.62429 -7.15822e-06 0)
(8.54029 -7.16656e-06 0)
(8.45678 -7.17488e-06 0)
(8.37376 -7.18318e-06 0)
(8.29123 -7.19147e-06 0)
(8.20918 -7.19974e-06 0)
(8.12763 -7.20802e-06 0)
(8.04656 -7.21631e-06 0)
(7.96597 -7.22458e-06 0)
(7.88588 -7.23284e-06 0)
(7.80626 -7.24106e-06 0)
(7.72714 -7.24925e-06 0)
(7.6485 -7.25743e-06 0)
(7.57034 -7.2656e-06 0)
(7.49266 -7.27379e-06 0)
(7.41547 -7.28198e-06 0)
(7.33876 -7.29021e-06 0)
(7.26254 -7.29843e-06 0)
(7.18679 -7.30668e-06 0)
(7.11153 -7.31491e-06 0)
(7.03675 -7.32312e-06 0)
(6.96244 -7.33127e-06 0)
(6.88862 -7.33937e-06 0)
(6.81527 -7.34743e-06 0)
(6.74241 -7.35546e-06 0)
(6.67002 -7.36352e-06 0)
(6.5981 -7.37159e-06 0)
(6.52667 -7.37969e-06 0)
(6.45571 -7.38781e-06 0)
(6.38522 -7.39591e-06 0)
(6.31521 -7.40399e-06 0)
(6.24567 -7.41203e-06 0)
(6.17661 -7.42009e-06 0)
(6.10802 -7.42814e-06 0)
(6.0399 -7.43621e-06 0)
(5.97225 -7.44428e-06 0)
(5.90507 -7.45232e-06 0)
(5.83836 -7.46031e-06 0)
(5.77212 -7.46826e-06 0)
(5.70635 -7.47616e-06 0)
(5.64104 -7.48403e-06 0)
(5.5762 -7.4919e-06 0)
(5.51183 -7.49978e-06 0)
(5.44793 -7.50773e-06 0)
(5.38448 -7.5157e-06 0)
(5.3215 -7.52368e-06 0)
(5.25899 -7.53164e-06 0)
(5.19693 -7.53956e-06 0)
(5.13534 -7.54742e-06 0)
(5.07421 -7.55522e-06 0)
(5.01353 -7.56298e-06 0)
(4.95332 -7.57071e-06 0)
(4.89356 -7.57843e-06 0)
(4.83426 -7.58618e-06 0)
(4.77542 -7.59392e-06 0)
(4.71703 -7.60167e-06 0)
(4.65909 -7.60944e-06 0)
(4.60161 -7.61721e-06 0)
(4.54458 -7.62498e-06 0)
(4.488 -7.6327e-06 0)
(4.43188 -7.64037e-06 0)
(4.3762 -7.648e-06 0)
(4.32097 -7.65561e-06 0)
(4.26619 -7.66319e-06 0)
(4.21185 -7.67075e-06 0)
(4.15796 -7.67828e-06 0)
(4.10452 -7.6858e-06 0)
(4.05152 -7.69329e-06 0)
(3.99896 -7.70078e-06 0)
(3.94684 -7.70826e-06 0)
(3.89516 -7.71572e-06 0)
(3.84392 -7.72314e-06 0)
(3.79312 -7.73053e-06 0)
(3.74275 -7.73788e-06 0)
(3.69282 -7.74524e-06 0)
(3.64332 -7.75259e-06 0)
(3.59426 -7.75991e-06 0)
(3.54563 -7.7672e-06 0)
(3.49743 -7.77444e-06 0)
(3.44966 -7.78166e-06 0)
(3.40232 -7.78884e-06 0)
(3.3554 -7.79605e-06 0)
(3.30891 -7.80326e-06 0)
(3.26285 -7.81047e-06 0)
(3.21721 -7.81764e-06 0)
(3.172 -7.82474e-06 0)
(3.1272 -7.8318e-06 0)
(3.08283 -7.83888e-06 0)
(3.03888 -7.84599e-06 0)
(2.99534 -7.85313e-06 0)
(2.95223 -7.86027e-06 0)
(2.90953 -7.86735e-06 0)
(2.86724 -7.87435e-06 0)
(2.82537 -7.88128e-06 0)
(2.7839 -7.88813e-06 0)
(2.74285 -7.895e-06 0)
(2.70221 -7.90194e-06 0)
(2.66198 -7.90888e-06 0)
(2.62215 -7.91585e-06 0)
(2.58273 -7.92277e-06 0)
(2.54371 -7.92961e-06 0)
(2.50509 -7.93636e-06 0)
(2.46688 -7.94306e-06 0)
(2.42906 -7.9497e-06 0)
(2.39164 -7.95634e-06 0)
(2.35462 -7.96288e-06 0)
(2.31799 -7.96946e-06 0)
(2.28175 -7.97598e-06 0)
(2.24591 -7.98264e-06 0)
(2.21046 -7.98922e-06 0)
(2.17539 -7.99595e-06 0)
(2.14072 -8.00248e-06 0)
(2.10642 -8.0091e-06 0)
(2.07251 -8.01567e-06 0)
(2.03899 -8.02184e-06 0)
(2.00584 -8.02861e-06 0)
(1.97307 -8.03384e-06 0)
(1.94068 -8.04043e-06 0)
(1.90867 -8.04363e-06 0)
(1.87702 -8.04996e-06 0)
(1.84576 -8.07012e-06 0)
(1.81485 -8.02882e-06 0)
(1.78432 -8.06423e-06 0)
(1.75415 -8.05107e-06 0)
(1.72436 -8.06784e-06 0)
(1.69491 -8.11963e-06 0)
(1.66584 -8.09185e-06 0)
(1.63711 -8.17543e-06 0)
(1.60875 -8.05631e-06 0)
(1.58073 -8.1802e-06 0)
(1.55309 -7.99359e-06 0)
(1.52577 -8.23738e-06 0)
(1.49882 -7.99306e-06 0)
(1.4722 -8.29493e-06 0)
(1.44595 -7.94977e-06 0)
(1.42001 -8.16422e-06 0)
(1.39444 -7.78488e-06 0)
(1.36918 -7.71341e-06 0)
(1.34429 -6.83692e-06 0)
(1.3197 -5.39367e-06 0)
(1.29546 -1.52265e-06 0)
(1.2715 6.81249e-06 0)
(1.24786 2.50479e-05 0)
(1.22444 6.39209e-05 0)
(1.20121 0.000148316 0)
(1.17792 0.000325707 0)
(1.1543 0.000702476 0)
(1.12955 0.00156096 0)
(1.10215 0.00392257 0)
(1.0609 0.0107992 0)
(1.03158 0.0408917 0)
(0.785229 0.0723005 0)
(42.6351 9.25861e-05 0)