/*--------------------------------*- C++ -*----------------------------------*\
| =========                 |                                                 |
| \\      /  F ield         | OpenFOAM: The Open Source CFD Toolbox           |
|  \\    /   O peration     | Version:  3.0.x                                 |
|   \\  /    A nd           | Web:      www.OpenFOAM.org                      |
|    \\/     M anipulation  |                                                 |
\*---------------------------------------------------------------------------*/
FoamFile
{
    version     2.0;
    format      ascii;
    class       surfaceScalarField;
    location    "0.31005";
    object      phi;
}
// * * * * * * * * * * * * * * * * * * * * * * * * * * * * * * * * * * * * * //

dimensions      [1 0 -1 0 0 0 0];

internalField   nonuniform List<scalar> 
53800
(
1.97753
0.00102706
1.97683
0.000695229
1.97615
0.000688452
1.97546
0.000690027
1.97477
0.000689938
1.97408
0.00068971
1.97339
0.000689575
1.9727
0.000689399
1.97201
0.00068931
1.97132
0.000689269
1.97063
0.000689091
1.96994
0.000688949
1.96925
0.00068893
1.96856
0.000688936
1.96788
0.000688756
1.96719
0.00068871
1.9665
0.000688629
1.96581
0.000688521
1.96513
0.000688357
1.96444
0.00068847
1.96375
0.000688242
1.96306
0.000688109
1.96238
0.000688184
1.96169
0.000687975
1.961
0.000687921
1.96032
0.000687844
1.95963
0.000687762
1.95894
0.000687668
1.95826
0.000687548
1.95757
0.000687384
1.95689
0.000687142
1.9562
0.000686777
1.95552
0.000686221
1.95484
0.000685365
1.95415
0.000684039
1.95347
0.00068242
1.95279
0.000679672
1.95212
0.00067598
1.95145
0.000671102
1.95078
0.000664659
1.95013
0.000655636
1.94949
0.000644792
1.94886
0.000631114
1.94824
0.000614485
1.94765
0.000594713
1.94708
0.000571713
1.94653
0.000545524
1.94602
0.000516322
1.94553
0.000484423
1.94508
0.000450271
1.94467
0.000414421
1.94429
0.000377508
1.94395
0.000340212
1.94364
0.000303229
1.94337
0.000267189
1.94314
0.000232713
1.94293
0.000200305
1.94276
0.000170343
1.94262
0.000143111
1.94249
0.000118761
1.94239
9.73402e-05
1.94231
7.87935e-05
1.94225
6.29777e-05
1.94219
4.97049e-05
1.94215
3.87295e-05
1.94212
2.97817e-05
1.94209
2.25997e-05
1.94207
1.6917e-05
1.94206
1.2486e-05
1.94204
9.06875e-06
1.94203
6.47732e-06
1.94203
4.53642e-06
1.94202
3.10196e-06
1.94201
2.05566e-06
1.94201
1.30233e-06
1.942
7.66788e-07
1.942
3.90581e-07
1.942
1.29286e-07
1.94199
-4.91927e-08
1.94199
-1.68202e-07
1.94198
-2.46233e-07
1.94198
-2.96885e-07
1.94198
-3.29466e-07
1.94197
-3.50214e-07
1.94197
-3.63299e-07
1.94197
-3.71485e-07
1.94196
-3.76531e-07
1.94196
-3.79616e-07
1.94196
-3.81468e-07
1.94195
-3.82504e-07
1.94195
-3.83032e-07
1.94194
-3.83181e-07
1.94194
-3.83061e-07
1.94194
-3.82777e-07
1.94193
-3.82359e-07
1.94193
-3.8201e-07
1.94192
-3.81722e-07
1.94192
-3.81464e-07
1.94192
-3.81257e-07
1.94191
-3.8102e-07
1.94191
-3.80714e-07
1.9419
-3.80234e-07
1.9419
-3.79514e-07
1.9419
-3.78641e-07
1.94189
-3.77655e-07
1.94189
-3.76698e-07
1.94188
-3.75883e-07
1.94188
-3.75203e-07
1.94188
-3.74755e-07
1.94187
-3.7437e-07
1.94187
-3.74181e-07
1.94186
-3.74108e-07
1.94186
-3.74119e-07
1.94186
-3.74279e-07
1.94185
-3.7449e-07
1.94185
-3.74766e-07
1.94184
-3.7517e-07
1.94184
-3.75669e-07
1.94183
-3.76214e-07
1.94183
-3.76847e-07
1.94183
-3.7756e-07
1.94182
-3.78157e-07
1.94182
-3.78819e-07
1.94181
-3.79296e-07
1.94181
-3.79627e-07
1.94181
-3.79881e-07
1.9418
-3.79758e-07
1.9418
-3.79619e-07
1.9418
-3.79208e-07
1.94179
-3.78499e-07
1.94179
-3.77699e-07
1.94179
-3.76407e-07
1.94179
-3.74588e-07
1.94179
-3.7338e-07
1.94179
-3.70521e-07
1.9418
-3.64842e-07
1.9418
-3.61648e-07
1.94181
-3.58359e-07
1.94182
-3.53495e-07
1.94184
-3.47653e-07
1.94186
-3.41075e-07
1.94188
-3.33806e-07
1.9419
-3.25443e-07
1.94193
-3.1637e-07
1.94196
-3.06616e-07
1.942
-2.95775e-07
1.94205
-2.84464e-07
1.9421
-2.72434e-07
1.94215
-2.59366e-07
1.94221
-2.46349e-07
1.94228
-2.32318e-07
1.94236
-2.1806e-07
1.94244
-2.03745e-07
1.94253
-1.88502e-07
1.94263
-1.74317e-07
1.94274
-1.59322e-07
1.94285
-1.45184e-07
1.94297
-1.3132e-07
1.94309
-1.17663e-07
1.94323
-1.05807e-07
1.94337
-9.36816e-08
1.94351
-8.3819e-08
1.94366
-7.50479e-08
1.94382
-6.71535e-08
1.94398
-6.26023e-08
1.94414
-5.85933e-08
1.9443
-5.71235e-08
1.94446
-5.86952e-08
1.94463
-6.10817e-08
1.94479
-6.72226e-08
1.94495
-7.59755e-08
1.9451
-8.5809e-08
1.94525
-1.00739e-07
1.9454
-1.16703e-07
1.94553
-1.35125e-07
1.94566
-1.58063e-07
1.94578
-1.80382e-07
1.94589
-2.0787e-07
1.94598
-2.36276e-07
1.94606
-2.65565e-07
1.94613
-3.00202e-07
1.94618
-3.31624e-07
1.94622
-3.68749e-07
1.94624
-4.03652e-07
1.94625
-4.40665e-07
1.94623
-5.01474e-07
1.94619
-5.40786e-07
1.94614
-5.6608e-07
1.94607
-5.97691e-07
1.94598
-5.9888e-07
1.94587
-4.55937e-07
1.94574
3.72791e-07
1.9456
4.62333e-06
1.94541
2.59494e-05
1.94511
0.000132129
1.94426
0.000657558
1.94084
0.00322097
1.9252
0.0154243
1.84893
0.0760418
0.262676
1.58602
2.27286
0.000991407
2.27287
0.000682622
2.27288
0.000669411
2.2729
0.000673069
2.27292
0.000673393
2.27293
0.000673434
2.27295
0.00067365
2.27296
0.000673835
2.27297
0.000674099
2.27299
0.000674408
2.273
0.000674586
2.27301
0.0006748
2.27303
0.00067513
2.27304
0.000675484
2.27306
0.000675662
2.27307
0.000675965
2.27308
0.000676234
2.27309
0.000676479
2.2731
0.000676668
2.27312
0.000677122
2.27313
0.000677251
2.27314
0.000677471
2.27315
0.00067789
2.27316
0.000678034
2.27317
0.000678328
2.27318
0.0006786
2.27319
0.000678864
2.2732
0.000679113
2.27321
0.000679332
2.27322
0.000679498
2.27323
0.000679575
2.27323
0.00067951
2.27324
0.000679226
2.27325
0.000678606
2.27326
0.000677463
2.27326
0.000675941
2.27327
0.000673216
2.27327
0.000669426
2.27328
0.000664307
2.27329
0.00065746
2.2733
0.000647889
2.27331
0.000636299
2.27332
0.000621708
2.27333
0.00060401
2.27334
0.000583048
2.27335
0.000558779
2.27336
0.000531301
2.27338
0.000500855
2.27339
0.000467824
2.27341
0.00043272
2.27343
0.000396155
2.27344
0.000358811
2.27346
0.000321396
2.27348
0.000284617
2.27349
0.000249095
2.27351
0.000215423
2.27352
0.000184066
2.27353
0.000155343
2.27354
0.000129491
2.27355
0.000106595
2.27356
8.66486e-05
2.27356
6.95494e-05
2.27356
5.51049e-05
2.27357
4.31081e-05
2.27357
3.32868e-05
2.27357
2.53522e-05
2.27357
1.90544e-05
2.27357
1.41179e-05
2.27356
1.03092e-05
2.27356
7.40074e-06
2.27356
5.21814e-06
2.27355
3.60051e-06
2.27355
2.41764e-06
2.27354
1.5641e-06
2.27354
9.56199e-07
2.27354
5.28846e-07
2.27353
2.32187e-07
2.27353
2.88455e-08
2.27352
-1.08801e-07
2.27352
-2.00864e-07
2.27351
-2.61811e-07
2.27351
-3.01708e-07
2.2735
-3.276e-07
2.2735
-3.44226e-07
2.27349
-3.54819e-07
2.27348
-3.61528e-07
2.27348
-3.65704e-07
2.27347
-3.68305e-07
2.27347
-3.69924e-07
2.27346
-3.70837e-07
2.27346
-3.71321e-07
2.27345
-3.71456e-07
2.27345
-3.71321e-07
2.27344
-3.71037e-07
2.27344
-3.70612e-07
2.27343
-3.70201e-07
2.27342
-3.69859e-07
2.27342
-3.69535e-07
2.27341
-3.69237e-07
2.27341
-3.68909e-07
2.2734
-3.68527e-07
2.2734
-3.67963e-07
2.27339
-3.67178e-07
2.27338
-3.6625e-07
2.27338
-3.65209e-07
2.27337
-3.64216e-07
2.27337
-3.63354e-07
2.27336
-3.62623e-07
2.27335
-3.62139e-07
2.27335
-3.61721e-07
2.27334
-3.61502e-07
2.27334
-3.61382e-07
2.27333
-3.61371e-07
2.27333
-3.61488e-07
2.27332
-3.61677e-07
2.27331
-3.61932e-07
2.27331
-3.62317e-07
2.2733
-3.62797e-07
2.2733
-3.63325e-07
2.27329
-3.63943e-07
2.27328
-3.64649e-07
2.27328
-3.65246e-07
2.27327
-3.65904e-07
2.27327
-3.66406e-07
2.27326
-3.66785e-07
2.27326
-3.67094e-07
2.27325
-3.67047e-07
2.27325
-3.6701e-07
2.27324
-3.66712e-07
2.27324
-3.66119e-07
2.27323
-3.65439e-07
2.27323
-3.64296e-07
2.27323
-3.62626e-07
2.27323
-3.61568e-07
2.27323
-3.58941e-07
2.27324
-3.53379e-07
2.27324
-3.50421e-07
2.27325
-3.47249e-07
2.27326
-3.4253e-07
2.27328
-3.36855e-07
2.2733
-3.30409e-07
2.27332
-3.23278e-07
2.27335
-3.15038e-07
2.27338
-3.06092e-07
2.27342
-2.96444e-07
2.27346
-2.85741e-07
2.27351
-2.74558e-07
2.27356
-2.62677e-07
2.27363
-2.4978e-07
2.2737
-2.36934e-07
2.27378
-2.23106e-07
2.27386
-2.09049e-07
2.27396
-1.94948e-07
2.27406
-1.79964e-07
2.27417
-1.65979e-07
2.27429
-1.5126e-07
2.27442
-1.37352e-07
2.27456
-1.23731e-07
2.2747
-1.1034e-07
2.27486
-9.86911e-08
2.27501
-8.68313e-08
2.27518
-7.7147e-08
2.27535
-6.85905e-08
2.27553
-6.08961e-08
2.27571
-5.64396e-08
2.27589
-5.25652e-08
2.27608
-5.11645e-08
2.27627
-5.27252e-08
2.27645
-5.51336e-08
2.27664
-6.11362e-08
2.27682
-6.97801e-08
2.277
-7.9428e-08
2.27717
-9.40272e-08
2.27734
-1.09732e-07
2.27749
-1.27802e-07
2.27764
-1.50143e-07
2.27778
-1.72156e-07
2.2779
-1.9891e-07
2.27801
-2.26733e-07
2.2781
-2.55222e-07
2.27817
-2.89387e-07
2.27823
-3.2043e-07
2.27828
-3.56584e-07
2.2783
-3.89966e-07
2.2783
-4.26538e-07
2.27828
-4.81705e-07
2.27824
-5.28162e-07
2.27817
-5.47221e-07
2.27809
-5.70079e-07
2.27798
-5.31498e-07
2.27786
-1.90907e-07
2.27771
1.65068e-06
2.27754
1.09721e-05
2.27733
5.75481e-05
2.27697
0.000289239
2.27598
0.00143535
2.27194
0.00702687
2.25345
0.0336676
2.16549
0.163743
0.5533
1.87459
2.61083
0.000950436
2.61084
0.000666378
2.61086
0.000646317
2.61088
0.000651655
2.6109
0.000652071
2.61092
0.000652011
2.61094
0.000652219
2.61096
0.000652405
2.61098
0.000652661
2.611
0.000652961
2.61102
0.000653137
2.61104
0.000653346
2.61106
0.000653667
2.61109
0.000654003
2.61111
0.000654191
2.61113
0.000654481
2.61115
0.000654745
2.61117
0.000654986
2.61119
0.000655172
2.61122
0.000655609
2.61124
0.000655742
2.61126
0.00065596
2.61128
0.000656365
2.6113
0.000656509
2.61132
0.000656797
2.61135
0.000657065
2.61137
0.000657325
2.61139
0.00065757
2.61141
0.000657787
2.61144
0.000657952
2.61146
0.000658031
2.61148
0.000657973
2.61151
0.000657704
2.61153
0.00065711
2.61155
0.000656009
2.61157
0.000654536
2.61159
0.000651907
2.61161
0.000648246
2.61163
0.000643295
2.61166
0.000636666
2.61168
0.000627416
2.6117
0.000616196
2.61172
0.000602076
2.61174
0.000584949
2.61176
0.00056466
2.61177
0.000541171
2.61179
0.000514574
2.6118
0.000485103
2.61182
0.000453129
2.61183
0.000419148
2.61184
0.000383751
2.61185
0.000347598
2.61185
0.000311376
2.61186
0.000275765
2.61186
0.00024137
2.61187
0.000208763
2.61187
0.000178395
2.61187
0.000150576
2.61187
0.000125532
2.61187
0.000103351
2.61187
8.40238e-05
2.61187
6.7453e-05
2.61186
5.34528e-05
2.61186
4.18227e-05
2.61185
3.23e-05
2.61185
2.46055e-05
2.61185
1.84968e-05
2.61184
1.37078e-05
2.61184
1.0012e-05
2.61183
7.18925e-06
2.61183
5.07049e-06
2.61182
3.49986e-06
2.61181
2.3511e-06
2.61181
1.52199e-06
2.6118
9.31348e-07
2.6118
5.1604e-07
2.61179
2.27661e-07
2.61179
2.99624e-08
2.61178
-1.03919e-07
2.61177
-1.93493e-07
2.61177
-2.52803e-07
2.61176
-2.91646e-07
2.61176
-3.16875e-07
2.61175
-3.33075e-07
2.61175
-3.43389e-07
2.61174
-3.4993e-07
2.61173
-3.54004e-07
2.61173
-3.56533e-07
2.61172
-3.58123e-07
2.61171
-3.59018e-07
2.61171
-3.59487e-07
2.6117
-3.59625e-07
2.6117
-3.59491e-07
2.61169
-3.59221e-07
2.61168
-3.58814e-07
2.61168
-3.5841e-07
2.61167
-3.58068e-07
2.61166
-3.57773e-07
2.61166
-3.57471e-07
2.61165
-3.57169e-07
2.61164
-3.56795e-07
2.61164
-3.56253e-07
2.61163
-3.55489e-07
2.61162
-3.54587e-07
2.61162
-3.5359e-07
2.61161
-3.52618e-07
2.6116
-3.51793e-07
2.6116
-3.51076e-07
2.61159
-3.50603e-07
2.61158
-3.50192e-07
2.61158
-3.49995e-07
2.61157
-3.49872e-07
2.61156
-3.49857e-07
2.61156
-3.4997e-07
2.61155
-3.50152e-07
2.61154
-3.50396e-07
2.61154
-3.5077e-07
2.61153
-3.51236e-07
2.61152
-3.51738e-07
2.61152
-3.52342e-07
2.61151
-3.53026e-07
2.6115
-3.53597e-07
2.6115
-3.54241e-07
2.61149
-3.54736e-07
2.61148
-3.55103e-07
2.61148
-3.55394e-07
2.61147
-3.55361e-07
2.61146
-3.55318e-07
2.61146
-3.55049e-07
2.61145
-3.54481e-07
2.61145
-3.53808e-07
2.61145
-3.52713e-07
2.61145
-3.51076e-07
2.61145
-3.50068e-07
2.61145
-3.47562e-07
2.61145
-3.42076e-07
2.61146
-3.39307e-07
2.61147
-3.36204e-07
2.61148
-3.31635e-07
2.6115
-3.26145e-07
2.61152
-3.19906e-07
2.61155
-3.12997e-07
2.61158
-3.05019e-07
2.61162
-2.96346e-07
2.61166
-2.87004e-07
2.61171
-2.7665e-07
2.61177
-2.65813e-07
2.61183
-2.54306e-07
2.6119
-2.41827e-07
2.61198
-2.29371e-07
2.61207
-2.15998e-07
2.61217
-2.02384e-07
2.61228
-1.88713e-07
2.6124
-1.74223e-07
2.61253
-1.6066e-07
2.61267
-1.46436e-07
2.61281
-1.3295e-07
2.61297
-1.19766e-07
2.61314
-1.06804e-07
2.61331
-9.54969e-08
2.6135
-8.40446e-08
2.61369
-7.46368e-08
2.61388
-6.63567e-08
2.61409
-5.8928e-08
2.6143
-5.45842e-08
2.61451
-5.0848e-08
2.61472
-4.94874e-08
2.61494
-5.09681e-08
2.61515
-5.33582e-08
2.61536
-5.91208e-08
2.61557
-6.75245e-08
2.61578
-7.68487e-08
2.61598
-9.09422e-08
2.61616
-1.06207e-07
2.61634
-1.23739e-07
2.61651
-1.45228e-07
2.61667
-1.66747e-07
2.61681
-1.92489e-07
2.61693
-2.19476e-07
2.61704
-2.46866e-07
2.61713
-2.80295e-07
2.61719
-3.10727e-07
2.61724
-3.45557e-07
2.61727
-3.76858e-07
2.61727
-4.12289e-07
2.61725
-4.64916e-07
2.6172
-5.12824e-07
2.61713
-5.27485e-07
2.61703
-5.4012e-07
2.61691
-4.55875e-07
2.61676
1.08259e-07
2.6166
3.0599e-06
2.6164
1.79121e-05
2.61616
9.20414e-05
2.61575
0.000460761
2.61466
0.00228541
2.61022
0.0111995
2.58992
0.0536826
2.49212
0.261238
0.875145
2.16997
2.99905
0.000904558
2.99907
0.000646953
2.99909
0.000620093
2.99912
0.000627022
2.99914
0.000627573
2.99916
0.0006274
2.99918
0.000627598
2.99921
0.000627782
2.99923
0.000628028
2.99925
0.000628315
2.99928
0.000628485
2.9993
0.000628689
2.99932
0.000628995
2.99935
0.00062931
2.99938
0.000629505
2.9994
0.000629778
2.99943
0.000630031
2.99945
0.000630265
2.99947
0.000630445
2.9995
0.000630859
2.99952
0.000630991
2.99955
0.000631203
2.99957
0.000631589
2.9996
0.000631729
2.99962
0.000632006
2.99965
0.000632265
2.99967
0.000632514
2.9997
0.00063275
2.99973
0.000632959
2.99975
0.000633119
2.99978
0.000633195
2.99981
0.00063314
2.99983
0.000632882
2.99986
0.000632315
2.99988
0.000631259
2.99991
0.00062984
2.99993
0.000627322
2.99996
0.000623808
2.99998
0.000619053
3.00001
0.000612682
3.00003
0.000603808
3.00005
0.000593026
3.00008
0.000579463
3.0001
0.000563007
3.00012
0.000543511
3.00014
0.000520937
3.00016
0.000495372
3.00018
0.000467041
3.00019
0.000436299
3.0002
0.000403621
3.00022
0.000369577
3.00023
0.000334801
3.00023
0.000299951
3.00024
0.000265684
3.00025
0.000232581
3.00025
0.000201193
3.00025
0.000171953
3.00025
0.000145165
3.00025
0.000121043
3.00025
9.96741e-05
3.00025
8.10499e-05
3.00025
6.50788e-05
3.00024
5.15827e-05
3.00024
4.03684e-05
3.00023
3.1184e-05
3.00023
2.37613e-05
3.00022
1.78667e-05
3.00022
1.32445e-05
3.00021
9.6764e-06
3.00021
6.95063e-06
3.0002
4.90404e-06
3.00019
3.38649e-06
3.00019
2.27624e-06
3.00018
1.4747e-06
3.00017
9.03528e-07
3.00017
5.01786e-07
3.00016
2.2275e-07
3.00016
3.1403e-08
3.00015
-9.82509e-08
3.00014
-1.84991e-07
3.00014
-2.42449e-07
3.00013
-2.80103e-07
3.00012
-3.04557e-07
3.00011
-3.20273e-07
3.00011
-3.30278e-07
3.0001
-3.36622e-07
3.00009
-3.40584e-07
3.00009
-3.43036e-07
3.00008
-3.44578e-07
3.00007
-3.45448e-07
3.00006
-3.45924e-07
3.00006
-3.46045e-07
3.00005
-3.45921e-07
3.00004
-3.45655e-07
3.00004
-3.4527e-07
3.00003
-3.4488e-07
3.00002
-3.44542e-07
3.00001
-3.44276e-07
3.00001
-3.43975e-07
3
-3.43691e-07
2.99999
-3.43334e-07
2.99998
-3.4281e-07
2.99997
-3.42072e-07
2.99997
-3.41202e-07
2.99996
-3.40246e-07
2.99995
-3.39314e-07
2.99994
-3.38514e-07
2.99994
-3.37826e-07
2.99993
-3.37361e-07
2.99992
-3.36986e-07
2.99991
-3.36786e-07
2.99991
-3.36673e-07
2.9999
-3.36648e-07
2.99989
-3.36764e-07
2.99988
-3.36924e-07
2.99988
-3.37168e-07
2.99987
-3.37528e-07
2.99986
-3.37979e-07
2.99985
-3.38463e-07
2.99984
-3.39041e-07
2.99984
-3.39693e-07
2.99983
-3.40253e-07
2.99982
-3.40864e-07
2.99981
-3.41352e-07
2.99981
-3.41694e-07
2.9998
-3.41974e-07
2.99979
-3.41963e-07
2.99978
-3.41919e-07
2.99978
-3.41661e-07
2.99977
-3.41126e-07
2.99977
-3.4046e-07
2.99977
-3.39402e-07
2.99977
-3.37823e-07
2.99977
-3.36884e-07
2.99977
-3.34509e-07
2.99977
-3.29102e-07
2.99978
-3.26545e-07
2.99979
-3.23525e-07
2.99981
-3.19131e-07
2.99983
-3.13856e-07
2.99985
-3.07835e-07
2.99988
-3.01181e-07
2.99992
-2.93516e-07
2.99996
-2.85163e-07
3.00001
-2.76181e-07
3.00007
-2.66213e-07
3.00013
-2.55779e-07
3.00021
-2.44701e-07
3.00029
-2.32711e-07
3.00038
-2.20705e-07
3.00049
-2.07856e-07
3.0006
-1.94745e-07
3.00073
-1.81582e-07
3.00086
-1.67642e-07
3.00101
-1.54581e-07
3.00117
-1.40899e-07
3.00134
-1.27911e-07
3.00152
-1.15233e-07
3.00171
-1.02777e-07
3.00191
-9.1859e-08
3.00212
-8.0865e-08
3.00234
-7.17919e-08
3.00256
-6.38429e-08
3.0028
-5.66943e-08
3.00304
-5.24924e-08
3.00328
-4.89017e-08
3.00353
-4.75957e-08
3.00377
-4.89854e-08
3.00402
-5.13573e-08
3.00426
-5.68434e-08
3.0045
-6.4967e-08
3.00474
-7.39274e-08
3.00497
-8.74206e-08
3.00518
-1.02202e-07
3.00539
-1.19093e-07
3.00558
-1.39626e-07
3.00576
-1.60566e-07
3.00592
-1.85155e-07
3.00607
-2.1117e-07
3.00619
-2.37291e-07
3.00629
-2.69876e-07
3.00637
-2.99602e-07
3.00642
-3.32911e-07
3.00645
-3.61815e-07
3.00645
-3.95994e-07
3.00643
-4.45511e-07
3.00637
-4.95311e-07
3.00629
-5.04846e-07
3.00618
-5.05806e-07
3.00604
-3.69397e-07
3.00587
4.49709e-07
3.00568
4.66791e-06
3.00546
2.58301e-05
3.00517
0.000131396
3.00471
0.000656471
3.00346
0.0032556
2.99839
0.015965
2.97527
0.0764693
2.86474
0.37143
1.23227
2.50726
3.445
0.000853409
3.44502
0.000623682
3.44505
0.000590322
3.44508
0.000598695
3.4451
0.000599421
3.44513
0.00059913
3.44516
0.000599313
3.44518
0.000599497
3.44521
0.00059973
3.44524
0.000600003
3.44526
0.000600167
3.44529
0.000600363
3.44532
0.000600654
3.44535
0.000600946
3.44538
0.000601147
3.44541
0.000601401
3.44544
0.000601643
3.44546
0.000601867
3.44549
0.00060204
3.44552
0.000602429
3.44555
0.00060256
3.44557
0.000602764
3.4456
0.000603129
3.44563
0.000603263
3.44566
0.000603528
3.44569
0.000603776
3.44572
0.000604014
3.44575
0.00060424
3.44578
0.000604439
3.44581
0.000604592
3.44584
0.000604666
3.44587
0.000604614
3.4459
0.000604369
3.44593
0.000603831
3.44596
0.000602827
3.44599
0.00060147
3.44602
0.000599077
3.44604
0.000595731
3.44607
0.0005912
3.4461
0.000585124
3.44613
0.000576677
3.44616
0.000566397
3.44618
0.000553469
3.44621
0.00053778
3.44623
0.000519191
3.44626
0.000497664
3.44628
0.000473281
3.4463
0.000446254
3.44631
0.000416924
3.44633
0.000385741
3.44634
0.00035325
3.44635
0.000320052
3.44636
0.000286779
3.44637
0.000254056
3.44638
0.000222438
3.44638
0.000192452
3.44638
0.000164513
3.44638
0.000138911
3.44638
0.000115851
3.44638
9.54192e-05
3.44638
7.76069e-05
3.44638
6.23286e-05
3.44637
4.94149e-05
3.44637
3.86815e-05
3.44636
2.98886e-05
3.44636
2.27808e-05
3.44635
1.71344e-05
3.44634
1.27056e-05
3.44634
9.28573e-06
3.44633
6.67256e-06
3.44632
4.70984e-06
3.44632
3.25405e-06
3.44631
2.18864e-06
3.4463
1.41921e-06
3.4463
8.70743e-07
3.44629
4.84835e-07
3.44628
2.16705e-07
3.44627
3.27673e-08
3.44627
-9.19135e-08
3.44626
-1.75354e-07
3.44625
-2.30657e-07
3.44624
-2.66897e-07
3.44623
-2.90447e-07
3.44623
-3.05594e-07
3.44622
-3.15236e-07
3.44621
-3.2135e-07
3.4462
-3.25175e-07
3.44619
-3.27535e-07
3.44619
-3.29028e-07
3.44618
-3.29874e-07
3.44617
-3.30328e-07
3.44616
-3.30454e-07
3.44615
-3.30338e-07
3.44614
-3.30081e-07
3.44614
-3.29712e-07
3.44613
-3.29348e-07
3.44612
-3.29017e-07
3.44611
-3.28768e-07
3.4461
-3.28475e-07
3.44609
-3.28215e-07
3.44608
-3.27866e-07
3.44608
-3.27358e-07
3.44607
-3.2666e-07
3.44606
-3.2583e-07
3.44605
-3.24913e-07
3.44604
-3.24027e-07
3.44603
-3.23269e-07
3.44602
-3.22614e-07
3.44601
-3.22163e-07
3.446
-3.21814e-07
3.446
-3.21617e-07
3.44599
-3.21514e-07
3.44598
-3.2149e-07
3.44597
-3.2159e-07
3.44596
-3.21739e-07
3.44595
-3.21976e-07
3.44594
-3.22316e-07
3.44593
-3.22741e-07
3.44592
-3.23213e-07
3.44592
-3.2376e-07
3.44591
-3.24375e-07
3.4459
-3.24922e-07
3.44589
-3.25505e-07
3.44588
-3.25965e-07
3.44587
-3.26298e-07
3.44586
-3.26574e-07
3.44586
-3.26558e-07
3.44585
-3.26512e-07
3.44584
-3.26272e-07
3.44584
-3.25772e-07
3.44583
-3.25124e-07
3.44583
-3.2412e-07
3.44583
-3.226e-07
3.44583
-3.21732e-07
3.44583
-3.19485e-07
3.44583
-3.14216e-07
3.44584
-3.11877e-07
3.44586
-3.08957e-07
3.44587
-3.04755e-07
3.4459
-2.99724e-07
3.44593
-2.93978e-07
3.44596
-2.87615e-07
3.446
-2.80304e-07
3.44605
-2.72319e-07
3.44611
-2.63744e-07
3.44617
-2.54229e-07
3.44625
-2.44252e-07
3.44633
-2.33676e-07
3.44643
-2.22233e-07
3.44653
-2.10748e-07
3.44665
-1.98501e-07
3.44678
-1.85968e-07
3.44693
-1.73384e-07
3.44708
-1.60095e-07
3.44725
-1.47587e-07
3.44744
-1.34556e-07
3.44763
-1.22132e-07
3.44784
-1.10022e-07
3.44806
-9.81399e-08
3.44829
-8.76844e-08
3.44853
-7.72252e-08
3.44878
-6.85213e-08
3.44904
-6.09489e-08
3.44931
-5.41313e-08
3.44958
-5.0095e-08
3.44986
-4.66789e-08
3.45015
-4.54475e-08
3.45043
-4.67153e-08
3.45071
-4.906e-08
3.45099
-5.42332e-08
3.45127
-6.20348e-08
3.45154
-7.05695e-08
3.4518
-8.34007e-08
3.45205
-9.75979e-08
3.45229
-1.13763e-07
3.45251
-1.33199e-07
3.45271
-1.5347e-07
3.4529
-1.76733e-07
3.45306
-2.01631e-07
3.4532
-2.26286e-07
3.45332
-2.57911e-07
3.45341
-2.86806e-07
3.45347
-3.18378e-07
3.4535
-3.44533e-07
3.45351
-3.77338e-07
3.45348
-4.23144e-07
3.45341
-4.75247e-07
3.45332
-4.78831e-07
3.45319
-4.66551e-07
3.45303
-2.70844e-07
3.45284
8.38103e-07
3.45262
6.49579e-06
3.45236
3.48296e-05
3.45204
0.000176126
3.45151
0.00087894
3.45008
0.00435882
3.44431
0.021389
3.41803
0.102372
3.29332
0.495747
1.62772
2.89745
3.95727
0.000796532
3.95729
0.000595784
3.95732
0.000556529
3.95735
0.000566127
3.95738
0.000567063
3.95741
0.000566657
3.95745
0.000566824
3.95748
0.000567006
3.95751
0.000567226
3.95754
0.000567482
3.95757
0.000567639
3.9576
0.000567826
3.95763
0.000568099
3.95766
0.000568367
3.9577
0.000568571
3.95773
0.000568806
3.95776
0.000569034
3.9578
0.000569248
3.95783
0.000569412
3.95786
0.000569773
3.95789
0.000569902
3.95792
0.000570097
3.95796
0.000570437
3.95799
0.000570565
3.95802
0.000570816
3.95806
0.000571051
3.95809
0.000571276
3.95813
0.00057149
3.95816
0.000571678
3.9582
0.000571823
3.95823
0.000571894
3.95827
0.000571846
3.9583
0.000571616
3.95834
0.00057111
3.95837
0.000570165
3.9584
0.00056888
3.95843
0.000566629
3.95846
0.000563474
3.9585
0.0005592
3.95853
0.00055346
3.95856
0.0005455
3.95859
0.000535793
3.95863
0.000523591
3.95865
0.00050878
3.95868
0.000491228
3.95871
0.000470898
3.95873
0.000447867
3.95875
0.000422335
3.95877
0.000394621
3.95879
0.000365152
3.95881
0.000334439
3.95882
0.000303053
3.95883
0.00027159
3.95884
0.000240639
3.95885
0.000210729
3.95885
0.000182355
3.95885
0.000155911
3.95886
0.000131676
3.95886
0.00010984
3.95885
9.04885e-05
3.95885
7.36135e-05
3.95885
5.91355e-05
3.95884
4.68954e-05
3.95884
3.67188e-05
3.95883
2.83796e-05
3.95882
2.1637e-05
3.95882
1.62789e-05
3.95881
1.20751e-05
3.9588
8.82796e-06
3.9588
6.34608e-06
3.95879
4.48135e-06
3.95878
3.09778e-06
3.95877
2.08491e-06
3.95876
1.35318e-06
3.95875
8.31407e-07
3.95875
4.64154e-07
3.95874
2.089e-07
3.95873
3.37586e-08
3.95872
-8.50641e-08
3.95871
-1.64579e-07
3.9587
-2.17304e-07
3.95869
-2.51865e-07
3.95868
-2.74333e-07
3.95867
-2.88797e-07
3.95867
-2.98001e-07
3.95866
-3.03836e-07
3.95865
-3.07487e-07
3.95864
-3.09748e-07
3.95863
-3.11173e-07
3.95862
-3.11985e-07
3.95861
-3.12416e-07
3.9586
-3.12532e-07
3.95859
-3.1243e-07
3.95858
-3.12187e-07
3.95857
-3.11842e-07
3.95856
-3.11497e-07
3.95855
-3.11179e-07
3.95854
-3.10954e-07
3.95853
-3.10669e-07
3.95852
-3.10422e-07
3.95851
-3.1009e-07
3.9585
-3.0962e-07
3.95849
-3.08951e-07
3.95848
-3.08166e-07
3.95847
-3.07305e-07
3.95846
-3.06466e-07
3.95845
-3.05748e-07
3.95844
-3.05132e-07
3.95843
-3.04705e-07
3.95842
-3.04377e-07
3.95841
-3.04184e-07
3.9584
-3.04087e-07
3.95839
-3.04064e-07
3.95838
-3.0416e-07
3.95837
-3.04297e-07
3.95836
-3.04524e-07
3.95835
-3.04854e-07
3.95834
-3.0525e-07
3.95833
-3.05694e-07
3.95832
-3.06211e-07
3.95831
-3.06793e-07
3.9583
-3.07318e-07
3.95829
-3.07856e-07
3.95828
-3.08296e-07
3.95827
-3.08619e-07
3.95826
-3.08872e-07
3.95825
-3.08863e-07
3.95824
-3.08812e-07
3.95823
-3.08593e-07
3.95823
-3.0813e-07
3.95822
-3.07505e-07
3.95822
-3.06555e-07
3.95821
-3.05108e-07
3.95821
-3.04312e-07
3.95822
-3.02214e-07
3.95822
-2.97124e-07
3.95824
-2.95006e-07
3.95825
-2.92217e-07
3.95827
-2.88237e-07
3.9583
-2.83489e-07
3.95833
-2.78049e-07
3.95837
-2.72027e-07
3.95842
-2.6512e-07
3.95847
-2.57565e-07
3.95854
-2.49453e-07
3.95861
-2.40459e-07
3.9587
-2.31016e-07
3.9588
-2.21006e-07
3.95891
-2.10191e-07
3.95903
-1.99313e-07
3.95917
-1.87747e-07
3.95932
-1.75884e-07
3.95948
-1.6398e-07
3.95966
-1.51418e-07
3.95985
-1.39568e-07
3.96006
-1.27274e-07
3.96029
-1.15503e-07
3.96053
-1.04042e-07
3.96078
-9.28212e-08
3.96104
-8.28995e-08
3.96132
-7.30415e-08
3.96161
-6.47806e-08
3.96191
-5.76374e-08
3.96222
-5.12e-08
3.96253
-4.73556e-08
3.96285
-4.41241e-08
3.96318
-4.29836e-08
3.9635
-4.41287e-08
3.96383
-4.64352e-08
3.96415
-5.12464e-08
3.96447
-5.86906e-08
3.96478
-6.67324e-08
3.96508
-7.87923e-08
3.96536
-9.23264e-08
3.96564
-1.07654e-07
3.96589
-1.25837e-07
3.96613
-1.45322e-07
3.96634
-1.67072e-07
3.96653
-1.90678e-07
3.96669
-2.13651e-07
3.96682
-2.44174e-07
3.96693
-2.7209e-07
3.967
-3.01665e-07
3.96704
-3.24661e-07
3.96704
-3.55927e-07
3.967
-3.97778e-07
3.96693
-4.51906e-07
3.96682
-4.48963e-07
3.96667
-4.21721e-07
3.96649
-1.59006e-07
3.96627
1.27744e-06
3.96602
8.56151e-06
3.96572
4.49981e-05
3.96535
0.000226667
3.96475
0.00113034
3.96313
0.00560593
3.95659
0.027526
3.92688
0.131644
3.78706
0.635117
2.06367
3.35065
17.2636
0.000570111
17.2637
0.000461083
17.2639
0.000413623
17.264
0.000423975
17.2641
0.000425725
17.2643
0.000425034
17.2644
0.00042511
17.2645
0.000425266
17.2647
0.000425426
17.2648
0.00042561
17.2649
0.000425729
17.265
0.000425872
17.2652
0.000426071
17.2653
0.000426251
17.2655
0.000426436
17.2656
0.000426599
17.2658
0.000426769
17.2659
0.000426934
17.2661
0.000427058
17.2662
0.000427312
17.2663
0.000427423
17.2665
0.000427574
17.2666
0.000427819
17.2668
0.000427917
17.2669
0.000428105
17.2671
0.000428284
17.2672
0.000428452
17.2674
0.000428613
17.2675
0.000428755
17.2677
0.000428865
17.2678
0.000428919
17.268
0.000428885
17.2681
0.000428717
17.2683
0.000428346
17.2684
0.000427648
17.2686
0.00042668
17.2687
0.00042502
17.2688
0.000422678
17.269
0.000419498
17.2691
0.000415212
17.2693
0.000409314
17.2694
0.000402074
17.2695
0.000392986
17.2697
0.000381947
17.2698
0.000368859
17.2699
0.000353691
17.27
0.000336498
17.2701
0.000317428
17.2702
0.000296716
17.2703
0.000274678
17.2703
0.000251696
17.2704
0.000228194
17.2704
0.000204618
17.2705
0.000181409
17.2705
0.000158964
17.2705
0.000137655
17.2705
0.000117778
17.2706
9.95501e-05
17.2706
8.31078e-05
17.2705
6.85258e-05
17.2705
5.57964e-05
17.2705
4.48648e-05
17.2705
3.56147e-05
17.2705
2.79149e-05
17.2704
2.15987e-05
17.2704
1.64868e-05
17.2704
1.24192e-05
17.2704
9.22443e-06
17.2703
6.75338e-06
17.2703
4.86263e-06
17.2703
3.44003e-06
17.2702
2.38313e-06
17.2702
1.60835e-06
17.2701
1.04781e-06
17.2701
6.47517e-07
17.2701
3.65291e-07
17.27
1.68779e-07
17.27
3.3529e-08
17.27
-5.78611e-08
17.2699
-1.19423e-07
17.2699
-1.60264e-07
17.2698
-1.87095e-07
17.2698
-2.04554e-07
17.2698
-2.15812e-07
17.2697
-2.22985e-07
17.2697
-2.27541e-07
17.2696
-2.304e-07
17.2696
-2.32176e-07
17.2696
-2.33294e-07
17.2695
-2.33939e-07
17.2695
-2.34278e-07
17.2694
-2.3438e-07
17.2694
-2.34313e-07
17.2694
-2.34138e-07
17.2693
-2.33892e-07
17.2693
-2.33629e-07
17.2692
-2.33382e-07
17.2692
-2.33235e-07
17.2691
-2.32992e-07
17.2691
-2.32813e-07
17.2691
-2.32556e-07
17.269
-2.32199e-07
17.269
-2.31698e-07
17.2689
-2.31107e-07
17.2689
-2.30468e-07
17.2688
-2.29844e-07
17.2688
-2.29313e-07
17.2687
-2.28853e-07
17.2687
-2.28528e-07
17.2687
-2.28294e-07
17.2686
-2.28152e-07
17.2686
-2.28074e-07
17.2685
-2.2805e-07
17.2685
-2.28127e-07
17.2684
-2.28228e-07
17.2684
-2.28397e-07
17.2683
-2.28648e-07
17.2683
-2.28935e-07
17.2683
-2.29281e-07
17.2682
-2.29658e-07
17.2682
-2.30089e-07
17.2681
-2.30498e-07
17.2681
-2.30884e-07
17.268
-2.31224e-07
17.268
-2.31469e-07
17.2679
-2.31654e-07
17.2679
-2.31651e-07
17.2679
-2.31599e-07
17.2678
-2.31448e-07
17.2678
-2.31114e-07
17.2678
-2.30616e-07
17.2678
-2.29908e-07
17.2678
-2.28794e-07
17.2678
-2.2829e-07
17.2678
-2.26733e-07
17.2678
-2.22704e-07
17.2678
-2.21316e-07
17.2679
-2.1916e-07
17.268
-2.16169e-07
17.2681
-2.12625e-07
17.2683
-2.08538e-07
17.2684
-2.0401e-07
17.2686
-1.98842e-07
17.2689
-1.93176e-07
17.2692
-1.87085e-07
17.2695
-1.80355e-07
17.2699
-1.73256e-07
17.2703
-1.65744e-07
17.2708
-1.57659e-07
17.2713
-1.49463e-07
17.2719
-1.40828e-07
17.2726
-1.31902e-07
17.2733
-1.22971e-07
17.2741
-1.13574e-07
17.2749
-1.04644e-07
17.2758
-9.54869e-08
17.2768
-8.66207e-08
17.2778
-7.80065e-08
17.2789
-6.96477e-08
17.2801
-6.21235e-08
17.2813
-5.48303e-08
17.2826
-4.85288e-08
17.2839
-4.32569e-08
17.2852
-3.84389e-08
17.2866
-3.55062e-08
17.288
-3.30429e-08
17.2894
-3.2268e-08
17.2908
-3.29351e-08
17.2922
-3.50442e-08
17.2937
-3.83056e-08
17.295
-4.41469e-08
17.2964
-5.00295e-08
17.2977
-5.88229e-08
17.299
-6.93262e-08
17.3001
-8.10369e-08
17.3012
-9.38244e-08
17.3023
-1.09731e-07
17.3032
-1.24985e-07
17.304
-1.42921e-07
17.3047
-1.5859e-07
17.3053
-1.84276e-07
17.3058
-2.07612e-07
17.3061
-2.28559e-07
17.3062
-2.37616e-07
17.3063
-2.62249e-07
17.3061
-2.95424e-07
17.3058
-3.43342e-07
17.3053
-3.19019e-07
17.3047
-2.30545e-07
17.3039
3.06965e-07
17.3029
3.0846e-06
17.3018
1.70272e-05
17.3005
8.66378e-05
17.2989
0.000433611
17.2964
0.00215969
17.2896
0.0107083
17.2629
0.0525199
17.1419
0.250679
16.6223
1.15275
3.76476
14.9192
17.2636
0.000367728
17.2637
0.000313371
17.2638
0.00027443
17.264
0.000282169
17.2641
0.000284006
17.2642
0.000283355
17.2644
0.000283376
17.2645
0.000283497
17.2646
0.000283607
17.2648
0.000283729
17.2649
0.000283814
17.265
0.000283913
17.2652
0.000284045
17.2653
0.000284159
17.2655
0.000284295
17.2656
0.0002844
17.2658
0.000284514
17.2659
0.000284626
17.266
0.00028471
17.2662
0.000284872
17.2663
0.000284952
17.2665
0.000285054
17.2666
0.000285213
17.2668
0.000285279
17.2669
0.000285404
17.267
0.000285525
17.2672
0.000285637
17.2673
0.000285744
17.2675
0.000285839
17.2677
0.000285912
17.2678
0.000285949
17.268
0.000285928
17.2681
0.000285818
17.2683
0.000285575
17.2684
0.000285116
17.2685
0.000284469
17.2687
0.000283377
17.2688
0.000281828