/*--------------------------------*- C++ -*----------------------------------*\
| =========                 |                                                 |
| \\      /  F ield         | OpenFOAM: The Open Source CFD Toolbox           |
|  \\    /   O peration     | Version:  3.0.x                                 |
|   \\  /    A nd           | Web:      www.OpenFOAM.org                      |
|    \\/     M anipulation  |                                                 |
\*---------------------------------------------------------------------------*/
FoamFile
{
    version     2.0;
    format      ascii;
    class       volVectorField;
    location    "0.31005";
    object      U;
}
// * * * * * * * * * * * * * * * * * * * * * * * * * * * * * * * * * * * * * //

dimensions      [0 1 -1 0 0 0 0];

internalField   nonuniform List<vector> 
27600
(
(42.685 0.000288115 0)
(42.6702 0.000241398 0)
(42.6554 0.000238367 0)
(42.6405 0.000240608 0)
(42.6256 0.00024286 0)
(42.6107 0.000244876 0)
(42.5958 0.000246644 0)
(42.5809 0.000248167 0)
(42.566 0.000249514 0)
(42.5512 0.000250712 0)
(42.5363 0.000251747 0)
(42.5214 0.000252682 0)
(42.5065 0.000253554 0)
(42.4917 0.000254355 0)
(42.4768 0.000255044 0)
(42.462 0.000255705 0)
(42.4471 0.000256307 0)
(42.4322 0.000256856 0)
(42.4174 0.000257353 0)
(42.4025 0.000257871 0)
(42.3877 0.000258285 0)
(42.3728 0.000258685 0)
(42.358 0.000259104 0)
(42.3432 0.000259442 0)
(42.3283 0.000259779 0)
(42.3135 0.000260095 0)
(42.2987 0.000260388 0)
(42.2838 0.000260657 0)
(42.269 0.000260899 0)
(42.2542 0.000261108 0)
(42.2394 0.000261273 0)
(42.2246 0.000261378 0)
(42.2098 0.000261401 0)
(42.195 0.000261305 0)
(42.1802 0.000261037 0)
(42.1655 0.000260608 0)
(42.1508 0.000259814 0)
(42.1362 0.000258645 0)
(42.1217 0.000257015 0)
(42.1072 0.000254786 0)
(42.093 0.00025168 0)
(42.079 0.000247806 0)
(42.0652 0.000242897 0)
(42.0517 0.000236873 0)
(42.0387 0.000229655 0)
(42.0261 0.000221203 0)
(42.014 0.000211522 0)
(42.0025 0.000200665 0)
(41.9917 0.000188743 0)
(41.9816 0.000175912 0)
(41.9722 0.000162375 0)
(41.9637 0.000148366 0)
(41.9559 0.00013414 0)
(41.9489 0.000119961 0)
(41.9427 0.000106078 0)
(41.9373 9.27277e-05 0)
(41.9326 8.01132e-05 0)
(41.9286 6.83928e-05 0)
(41.9251 5.76859e-05 0)
(41.9223 4.80639e-05 0)
(41.9199 3.95557e-05 0)
(41.918 3.21517e-05 0)
(41.9164 2.58069e-05 0)
(41.9151 2.04545e-05 0)
(41.9141 1.60064e-05 0)
(41.9133 1.2363e-05 0)
(41.9127 9.42359e-06 0)
(41.9122 7.08603e-06 0)
(41.9118 5.25387e-06 0)
(41.9115 3.83548e-06 0)
(41.9113 2.75421e-06 0)
(41.9111 1.94065e-06 0)
(41.9109 1.33663e-06 0)
(41.9108 8.94048e-07 0)
(41.9107 5.73958e-07 0)
(41.9106 3.45503e-07 0)
(41.9105 1.84633e-07 0)
(41.9104 7.27827e-08 0)
(41.9103 -3.52238e-09 0)
(41.9103 -5.45102e-08 0)
(41.9102 -8.81442e-08 0)
(41.9101 -1.10159e-07 0)
(41.91 -1.24477e-07 0)
(41.91 -1.33711e-07 0)
(41.9099 -1.39589e-07 0)
(41.9098 -1.43276e-07 0)
(41.9098 -1.4552e-07 0)
(41.9097 -1.46852e-07 0)
(41.9096 -1.47602e-07 0)
(41.9095 -1.47982e-07 0)
(41.9095 -1.48122e-07 0)
(41.9094 -1.48123e-07 0)
(41.9093 -1.48024e-07 0)
(41.9092 -1.47875e-07 0)
(41.9092 -1.47713e-07 0)
(41.9091 -1.47567e-07 0)
(41.909 -1.47516e-07 0)
(41.9089 -1.47526e-07 0)
(41.9088 -1.47533e-07 0)
(41.9087 -1.47526e-07 0)
(41.9087 -1.47462e-07 0)
(41.9086 -1.47293e-07 0)
(41.9085 -1.46977e-07 0)
(41.9084 -1.46535e-07 0)
(41.9083 -1.46005e-07 0)
(41.9082 -1.4543e-07 0)
(41.9082 -1.44863e-07 0)
(41.9081 -1.44327e-07 0)
(41.908 -1.43855e-07 0)
(41.9079 -1.43365e-07 0)
(41.9078 -1.42993e-07 0)
(41.9077 -1.42679e-07 0)
(41.9076 -1.42396e-07 0)
(41.9076 -1.42164e-07 0)
(41.9075 -1.41954e-07 0)
(41.9074 -1.41757e-07 0)
(41.9073 -1.41592e-07 0)
(41.9072 -1.41458e-07 0)
(41.9071 -1.41326e-07 0)
(41.907 -1.41214e-07 0)
(41.9069 -1.41118e-07 0)
(41.9068 -1.40949e-07 0)
(41.9068 -1.40791e-07 0)
(41.9067 -1.4056e-07 0)
(41.9066 -1.40225e-07 0)
(41.9065 -1.39842e-07 0)
(41.9064 -1.39348e-07 0)
(41.9064 -1.38787e-07 0)
(41.9063 -1.38121e-07 0)
(41.9062 -1.37354e-07 0)
(41.9062 -1.36556e-07 0)
(41.9062 -1.35553e-07 0)
(41.9062 -1.3441e-07 0)
(41.9062 -1.33379e-07 0)
(41.9062 -1.31989e-07 0)
(41.9063 -1.299e-07 0)
(41.9064 -1.28383e-07 0)
(41.9066 -1.26781e-07 0)
(41.9068 -1.24846e-07 0)
(41.907 -1.22663e-07 0)
(41.9073 -1.20302e-07 0)
(41.9077 -1.17805e-07 0)
(41.9082 -1.15046e-07 0)
(41.9087 -1.12122e-07 0)
(41.9094 -1.09099e-07 0)
(41.9101 -1.0582e-07 0)
(41.9109 -1.02472e-07 0)
(41.9119 -9.90158e-08 0)
(41.913 -9.52856e-08 0)
(41.9142 -9.16817e-08 0)
(41.9155 -8.78671e-08 0)
(41.917 -8.40508e-08 0)
(41.9186 -8.03525e-08 0)
(41.9204 -7.64294e-08 0)
(41.9223 -7.30019e-08 0)
(41.9244 -6.94315e-08 0)
(41.9266 -6.6269e-08 0)
(41.9289 -6.33695e-08 0)
(41.9314 -6.05754e-08 0)
(41.9341 -5.85394e-08 0)
(41.9368 -5.63196e-08 0)
(41.9397 -5.48221e-08 0)
(41.9427 -5.36719e-08 0)
(41.9458 -5.26821e-08 0)
(41.949 -5.30565e-08 0)
(41.9522 -5.35887e-08 0)
(41.9555 -5.51313e-08 0)
(41.9588 -5.80274e-08 0)
(41.9622 -6.12079e-08 0)
(41.9655 -6.59469e-08 0)
(41.9687 -7.17272e-08 0)
(41.9719 -7.7784e-08 0)
(41.975 -8.57676e-08 0)
(41.978 -9.39625e-08 0)
(41.9809 -1.0285e-07 0)
(41.9836 -1.13213e-07 0)
(41.9861 -1.23034e-07 0)
(41.9884 -1.3437e-07 0)
(41.9904 -1.4573e-07 0)
(41.9922 -1.5704e-07 0)
(41.9937 -1.69756e-07 0)
(41.995 -1.81202e-07 0)
(41.9959 -1.9409e-07 0)
(41.9965 -2.06269e-07 0)
(41.9967 -2.18857e-07 0)
(41.9966 -2.35162e-07 0)
(41.9961 -2.46419e-07 0)
(41.9952 -2.54682e-07 0)
(41.9939 -2.63713e-07 0)
(41.9922 -2.65993e-07 0)
(41.9902 -2.39651e-07 0)
(41.9879 -7.6962e-08 0)
(41.9851 7.81953e-07 0)
(41.9818 5.08995e-06 0)
(41.9769 2.65126e-05 0)
(41.966 0.000132529 0)
(41.9267 0.000650074 0)
(41.757 0.00312016 0)
(41.2816 0.0156123 0)
(36.6596 0.0562552 0)
(42.7002 0.000462903 0)
(42.7007 0.000329777 0)
(42.701 0.0003134 0)
(42.7014 0.000310391 0)
(42.7016 0.000308062 0)
(42.7019 0.000306204 0)
(42.7022 0.000304691 0)
(42.7025 0.000303354 0)
(42.7028 0.000302194 0)
(42.703 0.000301165 0)
(42.7033 0.00030017 0)
(42.7035 0.000299268 0)
(42.7038 0.000298484 0)
(42.704 0.000297769 0)
(42.7043 0.000297029 0)
(42.7045 0.00029639 0)
(42.7047 0.000295779 0)
(42.705 0.000295195 0)
(42.7052 0.000294623 0)
(42.7054 0.000294195 0)
(42.7056 0.00029366 0)
(42.7058 0.000293188 0)
(42.706 0.000292827 0)
(42.7062 0.000292379 0)
(42.7064 0.000292007 0)
(42.7065 0.000291654 0)
(42.7067 0.000291316 0)
(42.7069 0.00029099 0)
(42.707 0.000290671 0)
(42.7072 0.000290347 0)
(42.7073 0.000290003 0)
(42.7075 0.000289616 0)
(42.7076 0.000289157 0)
(42.7078 0.000288576 0)
(42.7079 0.000287797 0)
(42.708 0.000286885 0)
(42.7081 0.000285496 0)
(42.7083 0.000283686 0)
(42.7084 0.000281357 0)
(42.7085 0.000278342 0)
(42.7087 0.000274217 0)
(42.7088 0.000269288 0)
(42.709 0.000263144 0)
(42.7092 0.000255733 0)
(42.7093 0.000246986 0)
(42.7096 0.000236878 0)
(42.7098 0.00022544 0)
(42.7101 0.000212763 0)
(42.7103 0.000198996 0)
(42.7106 0.000184344 0)
(42.7109 0.000169054 0)
(42.7113 0.000153402 0)
(42.7116 0.000137683 0)
(42.7119 0.000122189 0)
(42.7122 0.000107184 0)
(42.7125 9.29163e-05 0)
(42.7127 7.9589e-05 0)
(42.713 6.73443e-05 0)
(42.7132 5.62867e-05 0)
(42.7133 4.64627e-05 0)
(42.7135 3.78757e-05 0)
(42.7136 3.04896e-05 0)
(42.7137 2.4231e-05 0)
(42.7137 1.90141e-05 0)
(42.7138 1.47287e-05 0)
(42.7138 1.12567e-05 0)
(42.7138 8.48971e-06 0)
(42.7137 6.31424e-06 0)
(42.7137 4.62968e-06 0)
(42.7137 3.33894e-06 0)
(42.7136 2.36673e-06 0)
(42.7135 1.64342e-06 0)
(42.7135 1.11236e-06 0)
(42.7134 7.2745e-07 0)
(42.7133 4.51942e-07 0)
(42.7132 2.57123e-07 0)
(42.7131 1.2091e-07 0)
(42.7131 2.66378e-08 0)
(42.713 -3.68272e-08 0)
(42.7129 -7.91955e-08 0)
(42.7128 -1.06934e-07 0)
(42.7127 -1.24792e-07 0)
(42.7126 -1.36106e-07 0)
(42.7125 -1.4319e-07 0)
(42.7124 -1.47577e-07 0)
(42.7123 -1.50302e-07 0)
(42.7122 -1.51973e-07 0)
(42.7122 -1.53018e-07 0)
(42.7121 -1.53691e-07 0)
(42.712 -1.54081e-07 0)
(42.7119 -1.54306e-07 0)
(42.7118 -1.54381e-07 0)
(42.7117 -1.54341e-07 0)
(42.7116 -1.54219e-07 0)
(42.7115 -1.54021e-07 0)
(42.7114 -1.5379e-07 0)
(42.7113 -1.53597e-07 0)
(42.7112 -1.5338e-07 0)
(42.7111 -1.53148e-07 0)
(42.711 -1.52915e-07 0)
(42.7109 -1.52695e-07 0)
(42.7108 -1.52448e-07 0)
(42.7107 -1.52144e-07 0)
(42.7106 -1.5184e-07 0)
(42.7104 -1.51541e-07 0)
(42.7103 -1.51287e-07 0)
(42.7102 -1.51129e-07 0)
(42.7101 -1.51047e-07 0)
(42.71 -1.51059e-07 0)
(42.7099 -1.51106e-07 0)
(42.7098 -1.512e-07 0)
(42.7097 -1.51311e-07 0)
(42.7096 -1.51423e-07 0)
(42.7095 -1.51583e-07 0)
(42.7094 -1.51735e-07 0)
(42.7093 -1.51906e-07 0)
(42.7092 -1.5211e-07 0)
(42.7091 -1.52349e-07 0)
(42.7089 -1.52585e-07 0)
(42.7088 -1.52849e-07 0)
(42.7087 -1.53148e-07 0)
(42.7086 -1.53379e-07 0)
(42.7085 -1.53631e-07 0)
(42.7084 -1.53825e-07 0)
(42.7083 -1.53936e-07 0)
(42.7082 -1.54041e-07 0)
(42.7081 -1.53971e-07 0)
(42.708 -1.53879e-07 0)
(42.7079 -1.53663e-07 0)
(42.7078 -1.53322e-07 0)
(42.7078 -1.52952e-07 0)
(42.7077 -1.52298e-07 0)
(42.7077 -1.51417e-07 0)
(42.7077 -1.50774e-07 0)
(42.7077 -1.49483e-07 0)
(42.7078 -1.46862e-07 0)
(42.7079 -1.45295e-07 0)
(42.708 -1.43591e-07 0)
(42.7082 -1.41188e-07 0)
(42.7084 -1.38302e-07 0)
(42.7087 -1.35039e-07 0)
(42.7091 -1.3141e-07 0)
(42.7095 -1.27237e-07 0)
(42.71 -1.22711e-07 0)
(42.7107 -1.17808e-07 0)
(42.7114 -1.12379e-07 0)
(42.7122 -1.06709e-07 0)
(42.7131 -1.00668e-07 0)
(42.7142 -9.41678e-08 0)
(42.7154 -8.76511e-08 0)
(42.7167 -8.06907e-08 0)
(42.7181 -7.36542e-08 0)
(42.7197 -6.66145e-08 0)
(42.7215 -5.92858e-08 0)
(42.7234 -5.24576e-08 0)
(42.7254 -4.54085e-08 0)
(42.7276 -3.88161e-08 0)
(42.73 -3.24501e-08 0)
(42.7325 -2.62931e-08 0)
(42.7351 -2.09259e-08 0)
(42.7378 -1.54865e-08 0)
(42.7407 -1.08736e-08 0)
(42.7437 -6.63853e-09 0)
(42.7468 -2.73625e-09 0)
(42.7499 -1.20596e-10 0)
(42.7531 2.26833e-09 0)
(42.7564 3.62032e-09 0)
(42.7597 3.70959e-09 0)
(42.763 3.40355e-09 0)
(42.7663 1.41538e-09 0)
(42.7696 -1.84603e-09 0)
(42.7727 -5.77431e-09 0)
(42.7758 -1.22056e-08 0)
(42.7788 -1.9332e-08 0)
(42.7816 -2.77828e-08 0)
(42.7843 -3.85104e-08 0)
(42.7868 -4.91319e-08 0)
(42.7891 -6.234e-08 0)
(42.7911 -7.62254e-08 0)
(42.7929 -9.07343e-08 0)
(42.7944 -1.08135e-07 0)
(42.7956 -1.2424e-07 0)
(42.7965 -1.43223e-07 0)
(42.797 -1.61325e-07 0)
(42.7972 -1.8081e-07 0)
(42.7971 -2.07982e-07 0)
(42.7966 -2.28523e-07 0)
(42.7956 -2.40742e-07 0)
(42.7943 -2.54602e-07 0)
(42.7927 -2.49309e-07 0)
(42.7906 -1.50599e-07 0)
(42.7883 3.79321e-07 0)
(42.7855 3.09134e-06 0)
(42.7821 1.66783e-05 0)
(42.7772 8.42858e-05 0)
(42.7661 0.000418751 0)
(42.7264 0.00205028 0)
(42.5546 0.00982034 0)
(42.0625 0.0479693 0)
(37.5341 0.163191 0)
(42.7002 0.000369092 0)
(42.7007 0.000238554 0)
(42.7011 0.000231862 0)
(42.7014 0.000235251 0)
(42.7017 0.00023659 0)
(42.7021 0.000237553 0)
(42.7024 0.000238517 0)
(42.7027 0.000239428 0)
(42.7031 0.000240338 0)
(42.7034 0.000241241 0)
(42.7037 0.000242067 0)
(42.7041 0.00024288 0)
(42.7044 0.00024371 0)
(42.7047 0.000244521 0)
(42.7051 0.00024524 0)
(42.7054 0.000245979 0)
(42.7058 0.000246681 0)
(42.7061 0.000247349 0)
(42.7065 0.000247971 0)
(42.7068 0.000248673 0)
(42.7071 0.000249229 0)
(42.7075 0.000249799 0)
(42.7078 0.000250426 0)
(42.7082 0.000250927 0)
(42.7085 0.000251469 0)
(42.7089 0.000251986 0)
(42.7093 0.000252483 0)
(42.7096 0.000252958 0)
(42.71 0.000253407 0)
(42.7103 0.000253821 0)
(42.7107 0.000254186 0)
(42.711 0.000254483 0)
(42.7114 0.000254682 0)
(42.7117 0.000254737 0)
(42.7121 0.000254574 0)
(42.7125 0.000254251 0)
(42.7128 0.000253445 0)
(42.7132 0.000252212 0)
(42.7135 0.000250447 0)
(42.7138 0.000247995 0)
(42.7142 0.000244471 0)
(42.7145 0.00024015 0)
(42.7148 0.000234652 0)
(42.7151 0.00022794 0)
(42.7154 0.000219957 0)
(42.7157 0.000210692 0)
(42.716 0.000200189 0)
(42.7162 0.000188547 0)
(42.7165 0.00017592 0)
(42.7167 0.000162512 0)
(42.7169 0.000148564 0)
(42.717 0.000134341 0)
(42.7171 0.000120118 0)
(42.7173 0.000106167 0)
(42.7173 9.27235e-05 0)
(42.7174 8.00119e-05 0)
(42.7174 6.82057e-05 0)
(42.7175 5.7421e-05 0)
(42.7175 4.77415e-05 0)
(42.7175 3.91947e-05 0)
(42.7174 3.17711e-05 0)
(42.7174 2.54271e-05 0)
(42.7174 2.00848e-05 0)
(42.7173 1.56622e-05 0)
(42.7172 1.20536e-05 0)
(42.7172 9.14764e-06 0)
(42.7171 6.84917e-06 0)
(42.717 5.05374e-06 0)
(42.717 3.67346e-06 0)
(42.7169 2.62303e-06 0)
(42.7168 1.83779e-06 0)
(42.7167 1.25811e-06 0)
(42.7166 8.36053e-07 0)
(42.7165 5.33043e-07 0)
(42.7165 3.18584e-07 0)
(42.7164 1.68967e-07 0)
(42.7163 6.59358e-08 0)
(42.7162 -4.2721e-09 0)
(42.7161 -5.2614e-08 0)
(42.716 -8.49713e-08 0)
(42.7159 -1.06577e-07 0)
(42.7158 -1.21e-07 0)
(42.7157 -1.30614e-07 0)
(42.7156 -1.36979e-07 0)
(42.7156 -1.41161e-07 0)
(42.7155 -1.4388e-07 0)
(42.7154 -1.45619e-07 0)
(42.7153 -1.46726e-07 0)
(42.7152 -1.47427e-07 0)
(42.7151 -1.47839e-07 0)
(42.715 -1.48077e-07 0)
(42.7149 -1.48178e-07 0)
(42.7148 -1.4818e-07 0)
(42.7147 -1.48143e-07 0)
(42.7146 -1.48075e-07 0)
(42.7145 -1.48054e-07 0)
(42.7144 -1.48069e-07 0)
(42.7143 -1.48094e-07 0)
(42.7142 -1.48156e-07 0)
(42.7141 -1.48209e-07 0)
(42.714 -1.48203e-07 0)
(42.7139 -1.48092e-07 0)
(42.7138 -1.47844e-07 0)
(42.7137 -1.47493e-07 0)
(42.7136 -1.47054e-07 0)
(42.7135 -1.46599e-07 0)
(42.7134 -1.46177e-07 0)
(42.7132 -1.45796e-07 0)
(42.7131 -1.45511e-07 0)
(42.713 -1.45266e-07 0)
(42.7129 -1.45136e-07 0)
(42.7128 -1.45067e-07 0)
(42.7127 -1.45082e-07 0)
(42.7126 -1.45186e-07 0)
(42.7125 -1.45341e-07 0)
(42.7124 -1.45543e-07 0)
(42.7123 -1.45817e-07 0)
(42.7122 -1.46153e-07 0)
(42.7121 -1.46536e-07 0)
(42.712 -1.46963e-07 0)
(42.7118 -1.47445e-07 0)
(42.7117 -1.47897e-07 0)
(42.7116 -1.48397e-07 0)
(42.7115 -1.48854e-07 0)
(42.7114 -1.4927e-07 0)
(42.7113 -1.49667e-07 0)
(42.7112 -1.49946e-07 0)
(42.7111 -1.50243e-07 0)
(42.711 -1.50456e-07 0)
(42.711 -1.50564e-07 0)
(42.7109 -1.50637e-07 0)
(42.7109 -1.50552e-07 0)
(42.7108 -1.50263e-07 0)
(42.7108 -1.50235e-07 0)
(42.7108 -1.49598e-07 0)
(42.7109 -1.4779e-07 0)
(42.711 -1.47073e-07 0)
(42.7111 -1.46246e-07 0)
(42.7113 -1.44826e-07 0)
(42.7115 -1.43041e-07 0)
(42.7118 -1.40951e-07 0)
(42.7122 -1.38591e-07 0)
(42.7126 -1.35804e-07 0)
(42.7132 -1.32712e-07 0)
(42.7138 -1.29324e-07 0)
(42.7145 -1.255e-07 0)
(42.7153 -1.21457e-07 0)
(42.7162 -1.17095e-07 0)
(42.7173 -1.12307e-07 0)
(42.7185 -1.0749e-07 0)
(42.7198 -1.02261e-07 0)
(42.7213 -9.69278e-08 0)
(42.7229 -9.15492e-08 0)
(42.7246 -8.58512e-08 0)
(42.7265 -8.05102e-08 0)
(42.7286 -7.4907e-08 0)
(42.7307 -6.9598e-08 0)
(42.7331 -6.43961e-08 0)
(42.7356 -5.92921e-08 0)
(42.7382 -5.48295e-08 0)
(42.7409 -5.03365e-08 0)
(42.7438 -4.66474e-08 0)
(42.7468 -4.34013e-08 0)
(42.7499 -4.04932e-08 0)
(42.753 -3.86927e-08 0)
(42.7563 -3.70853e-08 0)
(42.7595 -3.6268e-08 0)
(42.7628 -3.63201e-08 0)
(42.7661 -3.65986e-08 0)
(42.7694 -3.78883e-08 0)
(42.7727 -3.99292e-08 0)
(42.7758 -4.21762e-08 0)
(42.7789 -4.577e-08 0)
(42.7819 -4.95786e-08 0)
(42.7848 -5.40249e-08 0)
(42.7874 -5.97233e-08 0)
(42.7899 -6.55794e-08 0)
(42.7922 -7.31883e-08 0)
(42.7942 -8.1574e-08 0)
(42.796 -9.05506e-08 0)
(42.7975 -1.02133e-07 0)
(42.7987 -1.12907e-07 0)
(42.7996 -1.25876e-07 0)
(42.8001 -1.37865e-07 0)
(42.8004 -1.51526e-07 0)
(42.8002 -1.72532e-07 0)
(42.7997 -1.90892e-07 0)
(42.7988 -1.97183e-07 0)
(42.7975 -2.03898e-07 0)
(42.7958 -1.79075e-07 0)
(42.7938 -6.46788e-10 0)
(42.7914 9.66746e-07 0)
(42.7886 5.81343e-06 0)
(42.7852 3.00172e-05 0)
(42.7804 0.000150424 0)
(42.7696 0.00074617 0)
(42.7311 0.00365478 0)
(42.565 0.0175139 0)
(42.0985 0.0851668 0)
(37.7143 0.286198 0)
(42.7002 0.000375188 0)
(42.7007 0.000276273 0)
(42.7011 0.000271758 0)
(42.7014 0.000276039 0)
(42.7017 0.000276924 0)
(42.7021 0.000277089 0)
(42.7024 0.000277133 0)
(42.7027 0.000277014 0)
(42.7031 0.000276821 0)
(42.7034 0.000276581 0)
(42.7037 0.000276253 0)
(42.7041 0.000275916 0)
(42.7044 0.000275611 0)
(42.7047 0.000275307 0)
(42.7051 0.000274952 0)
(42.7054 0.000274638 0)
(42.7058 0.000274323 0)
(42.7061 0.00027401 0)
(42.7064 0.000273687 0)
(42.7068 0.000273472 0)
(42.7071 0.000273153 0)
(42.7075 0.000272879 0)
(42.7078 0.00027269 0)
(42.7082 0.000272412 0)
(42.7085 0.000272203 0)
(42.7089 0.000271997 0)
(42.7093 0.000271799 0)
(42.7096 0.000271607 0)
(42.71 0.000271414 0)
(42.7103 0.00027121 0)
(42.7107 0.000270983 0)
(42.711 0.00027071 0)
(42.7114 0.000270362 0)
(42.7118 0.000269895 0)
(42.7121 0.000269236 0)
(42.7125 0.000268435 0)
(42.7128 0.000267187 0)
(42.7132 0.000265535 0)
(42.7135 0.000263377 0)
(42.7139 0.000260557 0)
(42.7142 0.000256705 0)
(42.7145 0.000252069 0)
(42.7149 0.000246283 0)
(42.7152 0.0002393 0)
(42.7155 0.000231054 0)
(42.7157 0.000221526 0)
(42.716 0.00021075 0)
(42.7163 0.000198814 0)
(42.7165 0.000185863 0)
(42.7167 0.000172091 0)
(42.7169 0.000157733 0)
(42.717 0.000143051 0)
(42.7172 0.000128321 0)
(42.7173 0.000113816 0)
(42.7174 9.97817e-05 0)
(42.7174 8.64516e-05 0)
(42.7175 7.40111e-05 0)
(42.7175 6.25912e-05 0)
(42.7175 5.22872e-05 0)
(42.7175 4.314e-05 0)
(42.7175 3.51504e-05 0)
(42.7174 2.82835e-05 0)
(42.7174 2.24676e-05 0)
(42.7173 1.76237e-05 0)
(42.7173 1.3647e-05 0)
(42.7172 1.04257e-05 0)
(42.7171 7.86107e-06 0)
(42.717 5.84506e-06 0)
(42.717 4.28479e-06 0)
(42.7169 3.08999e-06 0)
(42.7168 2.19051e-06 0)
(42.7167 1.52175e-06 0)
(42.7166 1.03106e-06 0)
(42.7165 6.75565e-07 0)
(42.7165 4.21051e-07 0)
(42.7164 2.40997e-07 0)
(42.7163 1.15223e-07 0)
(42.7162 2.87873e-08 0)
(42.7161 -2.81248e-08 0)
(42.716 -6.644e-08 0)
(42.7159 -9.17018e-08 0)
(42.7158 -1.0806e-07 0)
(42.7157 -1.18493e-07 0)
(42.7157 -1.25041e-07 0)
(42.7156 -1.29103e-07 0)
(42.7155 -1.31625e-07 0)
(42.7154 -1.33135e-07 0)
(42.7153 -1.34044e-07 0)
(42.7152 -1.34583e-07 0)
(42.7151 -1.3486e-07 0)
(42.715 -1.34964e-07 0)
(42.7149 -1.3493e-07 0)
(42.7148 -1.34787e-07 0)
(42.7147 -1.34568e-07 0)
(42.7146 -1.34262e-07 0)
(42.7145 -1.33941e-07 0)
(42.7144 -1.33602e-07 0)
(42.7143 -1.33291e-07 0)
(42.7142 -1.32974e-07 0)
(42.7141 -1.32657e-07 0)
(42.714 -1.32329e-07 0)
(42.7139 -1.31964e-07 0)
(42.7138 -1.31554e-07 0)
(42.7137 -1.31132e-07 0)
(42.7136 -1.30713e-07 0)
(42.7135 -1.30324e-07 0)
(42.7134 -1.30013e-07 0)
(42.7133 -1.29757e-07 0)
(42.7131 -1.29589e-07 0)
(42.713 -1.2944e-07 0)
(42.7129 -1.29349e-07 0)
(42.7128 -1.2927e-07 0)
(42.7127 -1.29212e-07 0)
(42.7126 -1.29184e-07 0)
(42.7125 -1.29172e-07 0)
(42.7124 -1.29172e-07 0)
(42.7123 -1.29215e-07 0)
(42.7122 -1.29299e-07 0)
(42.7121 -1.29391e-07 0)
(42.712 -1.29523e-07 0)
(42.7118 -1.29669e-07 0)
(42.7117 -1.29789e-07 0)
(42.7116 -1.29917e-07 0)
(42.7115 -1.29987e-07 0)
(42.7114 -1.29997e-07 0)
(42.7113 -1.29978e-07 0)
(42.7112 -1.29836e-07 0)
(42.7111 -1.2966e-07 0)
(42.711 -1.29416e-07 0)
(42.711 -1.29056e-07 0)
(42.7109 -1.28646e-07 0)
(42.7109 -1.28081e-07 0)
(42.7108 -1.27296e-07 0)
(42.7108 -1.26772e-07 0)
(42.7108 -1.25679e-07 0)
(42.7109 -1.23388e-07 0)
(42.711 -1.22231e-07 0)
(42.7111 -1.20901e-07 0)
(42.7113 -1.19033e-07 0)
(42.7115 -1.16801e-07 0)
(42.7118 -1.14264e-07 0)
(42.7122 -1.11488e-07 0)
(42.7126 -1.08294e-07 0)
(42.7132 -1.04839e-07 0)
(42.7138 -1.01142e-07 0)
(42.7145 -9.70567e-08 0)
(42.7153 -9.27875e-08 0)
(42.7163 -8.82817e-08 0)
(42.7173 -8.33895e-08 0)
(42.7185 -7.85342e-08 0)
(42.7198 -7.33243e-08 0)
(42.7213 -6.80086e-08 0)
(42.7229 -6.26898e-08 0)
(42.7246 -5.70235e-08 0)
(42.7265 -5.1766e-08 0)
(42.7286 -4.62314e-08 0)
(42.7308 -4.10042e-08 0)
(42.7331 -3.59098e-08 0)
(42.7356 -3.08864e-08 0)
(42.7382 -2.66015e-08 0)
(42.741 -2.22179e-08 0)
(42.7438 -1.87494e-08 0)
(42.7468 -1.57986e-08 0)
(42.7499 -1.31931e-08 0)
(42.753 -1.20876e-08 0)
(42.7563 -1.1292e-08 0)
(42.7595 -1.16963e-08 0)
(42.7628 -1.36305e-08 0)
(42.7661 -1.61173e-08 0)
(42.7694 -2.03271e-08 0)
(42.7727 -2.57391e-08 0)
(42.7759 -3.1244e-08 0)
(42.7789 -3.84993e-08 0)
(42.7819 -4.58463e-08 0)
(42.7848 -5.37261e-08 0)
(42.7874 -6.28602e-08 0)
(42.7899 -7.18706e-08 0)
(42.7922 -8.23465e-08 0)
(42.7942 -9.33111e-08 0)
(42.796 -1.0431e-07 0)
(42.7975 -1.1773e-07 0)
(42.7987 -1.29905e-07 0)
(42.7996 -1.43595e-07 0)
(42.8001 -1.55657e-07 0)
(42.8004 -1.69549e-07 0)
(42.8002 -1.89931e-07 0)
(42.7997 -2.09386e-07 0)
(42.7988 -2.14128e-07 0)
(42.7975 -2.16734e-07 0)
(42.7958 -1.72551e-07 0)
(42.7938 9.94647e-08 0)
(42.7914 1.53992e-06 0)
(42.7886 8.75465e-06 0)
(42.7852 4.47459e-05 0)
(42.7804 0.000223758 0)
(42.7696 0.00110976 0)
(42.7313 0.00544058 0)
(42.5665 0.0260676 0)
(42.105 0.126721 0)
(37.8332 0.422298 0)
(42.7002 0.000351871 0)
(42.7007 0.00025127 0)
(42.7011 0.000235084 0)
(42.7014 0.000235179 0)
(42.7017 0.000233708 0)
(42.702 0.000232605 0)
(42.7024 0.000232119 0)
(42.7027 0.000231904 0)
(42.703 0.000231886 0)
(42.7034 0.000231997 0)
(42.7037 0.000232141 0)
(42.704 0.000232349 0)
(42.7044 0.000232632 0)
(42.7047 0.00023294 0)
(42.7051 0.000233221 0)
(42.7054 0.000233537 0)
(42.7057 0.000233852 0)
(42.7061 0.000234161 0)
(42.7064 0.000234448 0)
(42.7068 0.000234823 0)
(42.7071 0.000235087 0)
(42.7075 0.000235376 0)
(42.7078 0.000235727 0)
(42.7082 0.000235977 0)
(42.7085 0.000236275 0)
(42.7089 0.00023656 0)
(42.7092 0.000236835 0)
(42.7096 0.000237099 0)
(42.71 0.000237347 0)
(42.7103 0.000237571 0)
(42.7107 0.000237757 0)
(42.711 0.000237887 0)
(42.7114 0.000237934 0)
(42.7117 0.000237857 0)
(42.7121 0.000237586 0)
(42.7125 0.00023717 0)
(42.7128 0.000236327 0)
(42.7132 0.000235095 0)
(42.7135 0.000233382 0)
(42.7139 0.000231042 0)
(42.7142 0.000227735 0)
(42.7145 0.000223692 0)
(42.7148 0.000218578 0)
(42.7152 0.000212351 0)
(42.7155 0.000204958 0)
(42.7157 0.000196385 0)
(42.716 0.00018667 0)
(42.7163 0.000175901 0)
(42.7165 0.000164217 0)
(42.7167 0.000151803 0)
(42.7169 0.000138878 0)
(42.717 0.000125687 0)
(42.7172 0.000112481 0)
(42.7173 9.95129e-05 0)
(42.7173 8.70016e-05 0)
(42.7174 7.51556e-05 0)
(42.7175 6.41379e-05 0)
(42.7175 5.40609e-05 0)
(42.7175 4.50023e-05 0)
(42.7175 3.69927e-05 0)
(42.7174 3.00249e-05 0)
(42.7174 2.40616e-05 0)
(42.7174 1.90325e-05 0)
(42.7173 1.48625e-05 0)
(42.7173 1.14546e-05 0)
(42.7172 8.7063e-06 0)
(42.7171 6.5288e-06 0)
(42.717 4.82522e-06 0)
(42.717 3.51332e-06 0)
(42.7169 2.51337e-06 0)
(42.7168 1.76442e-06 0)
(42.7167 1.21044e-06 0)
(42.7166 8.06174e-07 0)
(42.7165 5.15232e-07 0)
(42.7165 3.08795e-07 0)
(42.7164 1.64391e-07 0)
(42.7163 6.46464e-08 0)
(42.7162 -3.64392e-09 0)
(42.7161 -5.15509e-08 0)
(42.716 -8.36268e-08 0)
(42.7159 -1.04798e-07 0)
(42.7158 -1.18699e-07 0)
(42.7157 -1.27784e-07 0)
(42.7157 -1.33682e-07 0)
(42.7156 -1.37465e-07 0)
(42.7155 -1.39886e-07 0)
(42.7154 -1.41422e-07 0)
(42.7153 -1.42387e-07 0)
(42.7152 -1.43018e-07 0)
(42.7151 -1.43378e-07 0)
(42.715 -1.43586e-07 0)
(42.7149 -1.43669e-07 0)
(42.7148 -1.43664e-07 0)
(42.7147 -1.43616e-07 0)
(42.7146 -1.43537e-07 0)
(42.7145 -1.43471e-07 0)
(42.7144 -1.43434e-07 0)
(42.7143 -1.43431e-07 0)
(42.7142 -1.43411e-07 0)
(42.7141 -1.43403e-07 0)
(42.714 -1.43348e-07 0)
(42.7139 -1.43216e-07 0)
(42.7138 -1.42991e-07 0)
(42.7137 -1.42689e-07 0)
(42.7136 -1.42332e-07 0)
(42.7135 -1.41978e-07 0)
(42.7134 -1.41647e-07 0)
(42.7133 -1.41361e-07 0)
(42.7131 -1.41157e-07 0)
(42.713 -1.40989e-07 0)
(42.7129 -1.40903e-07 0)
(42.7128 -1.40847e-07 0)
(42.7127 -1.40833e-07 0)
(42.7126 -1.40871e-07 0)
(42.7125 -1.40931e-07 0)
(42.7124 -1.41023e-07 0)
(42.7123 -1.41156e-07 0)
(42.7122 -1.41318e-07 0)
(42.7121 -1.4149e-07 0)
(42.712 -1.41692e-07 0)
(42.7118 -1.41929e-07 0)
(42.7117 -1.42137e-07 0)
(42.7116 -1.42364e-07 0)
(42.7115 -1.42548e-07 0)
(42.7114 -1.42686e-07 0)
(42.7113 -1.4281e-07 0)
(42.7112 -1.42822e-07 0)
(42.7111 -1.42834e-07 0)
(42.711 -1.42762e-07 0)
(42.711 -1.42583e-07 0)
(42.7109 -1.42361e-07 0)
(42.7109 -1.41975e-07 0)
(42.7108 -1.41396e-07 0)
(42.7108 -1.41049e-07 0)
(42.7108 -1.40151e-07 0)
(42.7109 -1.38023e-07 0)
(42.711 -1.37039e-07 0)
(42.7111 -1.35843e-07 0)
(42.7113 -1.34095e-07 0)
(42.7115 -1.32001e-07 0)
(42.7118 -1.29614e-07 0)
(42.7122 -1.26964e-07 0)
(42.7126 -1.23908e-07 0)
(42.7132 -1.20584e-07 0)
(42.7138 -1.16985e-07 0)
(42.7145 -1.12992e-07 0)
(42.7153 -1.08796e-07 0)
(42.7163 -1.04334e-07 0)
(42.7173 -9.95282e-08 0)
(42.7185 -9.46759e-08 0)
(42.7198 -8.95041e-08 0)
(42.7213 -8.42285e-08 0)
(42.7229 -7.89044e-08 0)
(42.7246 -7.33286e-08 0)
(42.7265 -6.8011e-08 0)
(42.7286 -6.24958e-08 0)
(42.7308 -5.72066e-08 0)
(42.7331 -5.20253e-08 0)
(42.7356 -4.69495e-08 0)
(42.7382 -4.23321e-08 0)
(42.741 -3.77597e-08 0)
(42.7438 -3.3764e-08 0)
(42.7468 -3.0122e-08 0)
(42.7499 -2.67887e-08 0)
(42.753 -2.43313e-08 0)
(42.7563 -2.21523e-08 0)
(42.7595 -2.08281e-08 0)
(42.7628 -2.05476e-08 0)
(42.7661 -2.08737e-08 0)
(42.7694 -2.25445e-08 0)
(42.7727 -2.53927e-08 0)
(42.7759 -2.86246e-08 0)
(42.7789 -3.36781e-08 0)
(42.7819 -3.9342e-08 0)
(42.7848 -4.59118e-08 0)
(42.7874 -5.39261e-08 0)
(42.7899 -6.22359e-08 0)
(42.7922 -7.19089e-08 0)
(42.7942 -8.2217e-08 0)
(42.796 -9.25219e-08 0)
(42.7975 -1.05529e-07 0)
(42.7987 -1.17432e-07 0)
(42.7996 -1.30593e-07 0)
(42.8001 -1.41795e-07 0)
(42.8004 -1.55384e-07 0)
(42.8002 -1.74642e-07 0)
(42.7997 -1.95219e-07 0)
(42.7988 -1.97997e-07 0)
(42.7975 -1.95853e-07 0)
(42.7958 -1.29228e-07 0)
(42.7938 2.59691e-07 0)
(42.7914 2.23627e-06 0)
(42.7886 1.21486e-05 0)
(42.7852 6.15932e-05 0)
(42.7804 0.000307535 0)
(42.7697 0.00152514 0)
(42.7318 0.00748189 0)
(42.5687 0.0358214 0)
(42.1123 0.173699 0)
(37.9548 0.573233 0)
(42.7002 0.000330417 0)
(42.7007 0.000244136 0)
(42.7011 0.000231445 0)
(42.7014 0.000236557 0)
(42.7017 0.000238274 0)
(42.702 0.000239061 0)
(42.7024 0.000239771 0)
(42.7027 0.000240296 0)
(42.703 0.000240707 0)
(42.7034 0.000241041 0)
(42.7037 0.000241266 0)
(42.704 0.000241454 0)
(42.7044 0.000241641 0)
(42.7047 0.0002418 0)
(42.705 0.000241906 0)
(42.7054 0.000242013 0)
(42.7057 0.000242104 0)
(42.7061 0.000242181 0)
(42.7064 0.00024223 0)
(42.7068 0.000242357 0)
(42.7071 0.000242384 0)
(42.7075 0.000242435 0)
(42.7078 0.000242546 0)
(42.7082 0.000242567 0)
(42.7085 0.000242638 0)
(42.7089 0.000242703 0)
(42.7092 0.000242764 0)
(42.7096 0.00024282 0)
(42.7099 0.000242866 0)
(42.7103 0.000242894 0)
(42.7107 0.000242891 0)
(42.711 0.00024284 0)
(42.7114 0.000242713 0)
(42.7117 0.000242471 0)
(42.7121 0.000242046 0)
(42.7124 0.00024148 0)
(42.7128 0.000240509 0)
(42.7131 0.00023916 0)
(42.7135 0.000237342 0)
(42.7138 0.000234911 0)
(42.7142 0.000231547 0)
(42.7145 0.000227451 0)
(42.7148 0.000222305 0)
(42.7151 0.000216063 0)
(42.7154 0.000208665 0)
(42.7157 0.000200096 0)
(42.716 0.000190385 0)
(42.7162 0.000179615 0)
(42.7165 0.000167918 0)
(42.7167 0.000155471 0)
(42.7169 0.00014249 0)
(42.717 0.000129213 0)
(42.7171 0.000115891 0)
(42.7173 0.000102774 0)
(42.7173 9.00836e-05 0)
(42.7174 7.80321e-05 0)
(42.7175 6.67871e-05 0)
(42.7175 5.64687e-05 0)
(42.7175 4.71601e-05 0)
(42.7175 3.88999e-05 0)
(42.7174 3.1687e-05 0)
(42.7174 2.54899e-05 0)
(42.7174 2.02433e-05 0)
(42.7173 1.58747e-05 0)
(42.7173 1.22895e-05 0)
(42.7172 9.38639e-06 0)
(42.7171 7.07566e-06 0)
(42.717 5.25985e-06 0)
(42.717 3.8549e-06 0)
(42.7169 2.7794e-06 0)
(42.7168 1.96996e-06 0)
(42.7167 1.3684e-06 0)
(42.7166 9.2729e-07 0)
(42.7165 6.08056e-07 0)
(42.7165 3.79917e-07 0)
(42.7164 2.1891e-07 0)
(42.7163 1.06704e-07 0)
(42.7162 2.96407e-08 0)
(42.7161 -2.20681e-08 0)
(42.716 -5.65646e-08 0)
(42.7159 -7.9494e-08 0)
(42.7158 -9.45803e-08 0)
(42.7157 -1.0442e-07 0)
(42.7157 -1.10782e-07 0)
(42.7156 -1.1485e-07 0)
(42.7155 -1.17426e-07 0)
(42.7154 -1.19045e-07 0)
(42.7153 -1.20042e-07 0)
(42.7152 -1.20669e-07 0)
(42.7151 -1.21027e-07 0)
(42.715 -1.21219e-07 0)
(42.7149 -1.21275e-07 0)
(42.7148 -1.21229e-07 0)
(42.7147 -1.21122e-07 0)
(42.7146 -1.20961e-07 0)
(42.7145 -1.20799e-07 0)
(42.7144 -1.20648e-07 0)
(42.7143 -1.20532e-07 0)
(42.7142 -1.20403e-07 0)
(42.7141 -1.20282e-07 0)
(42.714 -1.2013e-07 0)
(42.7139 -1.19915e-07 0)
(42.7138 -1.19625e-07 0)
(42.7137 -1.19288e-07 0)
(42.7136 -1.18922e-07 0)
(42.7135 -1.18561e-07 0)
(42.7134 -1.18268e-07 0)
(42.7133 -1.18016e-07 0)
(42.7131 -1.17843e-07 0)
(42.713 -1.17716e-07 0)
(42.7129 -1.1764e-07 0)
(42.7128 -1.17611e-07 0)
(42.7127 -1.17612e-07 0)
(42.7126 -1.17664e-07 0)
(42.7125 -1.17746e-07 0)
(42.7124 -1.17866e-07 0)
(42.7123 -1.18024e-07 0)
(42.7122 -1.18227e-07 0)
(42.7121 -1.18456e-07 0)
(42.712 -1.18703e-07 0)
(42.7118 -1.18991e-07 0)
(42.7117 -1.19249e-07 0)
(42.7116 -1.19513e-07 0)
(42.7115 -1.19725e-07 0)
(42.7114 -1.19888e-07 0)
(42.7113 -1.20019e-07 0)
(42.7112 -1.20028e-07 0)
(42.7111 -1.20022e-07 0)
(42.711 -1.19944e-07 0)
(42.711 -1.19758e-07 0)
(42.7109 -1.19509e-07 0)
(42.7109 -1.19125e-07 0)
(42.7108 -1.18533e-07 0)
(42.7108 -1.18213e-07 0)
(42.7108 -1.17352e-07 0)
(42.7109 -1.15293e-07 0)
(42.711 -1.14431e-07 0)
(42.7111 -1.13319e-07 0)
(42.7113 -1.11728e-07 0)
(42.7115 -1.0982e-07 0)
(42.7118 -1.07627e-07 0)
(42.7122 -1.05208e-07 0)
(42.7126 -1.02425e-07 0)
(42.7132 -9.9382e-08 0)
(42.7138 -9.61298e-08 0)
(42.7145 -9.25196e-08 0)
(42.7153 -8.8729e-08 0)
(42.7163 -8.47189e-08 0)
(42.7173 -8.03685e-08 0)
(42.7185 -7.60165e-08 0)
(42.7198 -7.13645e-08 0)
(42.7213 -6.65961e-08 0)
(42.7229 -6.18214e-08 0)
(42.7246 -5.67522e-08 0)
(42.7265 -5.1994e-08 0)
(42.7286 -4.70401e-08 0)
(42.7308 -4.23103e-08 0)
(42.7331 -3.77068e-08 0)
(42.7356 -3.31859e-08 0)
(42.7382 -2.92322e-08 0)
(42.741 -2.52741e-08 0)
(42.7438 -2.19919e-08 0)
(42.7468 -1.91697e-08 0)
(42.7499 -1.66269e-08 0)
(42.753 -1.51761e-08 0)
(42.7563 -1.3981e-08 0)
(42.7595 -1.36404e-08 0)
(42.7628 -1.42322e-08 0)
(42.7661 -1.52371e-08 0)
(42.7694 -1.72601e-08 0)
(42.7727 -2.02966e-08 0)
(42.7759 -2.35754e-08 0)
(42.7789 -2.8481e-08 0)
(42.7819 -3.3945e-08 0)
(42.7848 -4.01421e-08 0)
(42.7874 -4.75634e-08 0)
(42.7899 -5.54099e-08 0)
(42.7922 -6.43201e-08 0)
(42.7942 -7.39293e-08 0)
(42.796 -8.33711e-08 0)
(42.7975 -9.57212e-08 0)
(42.7987 -1.07012e-07 0)
(42.7996 -1.19176e-07 0)
(42.8001 -1.28941e-07 0)
(42.8004 -1.41695e-07 0)
(42.8002 -1.59184e-07 0)
(42.7997 -1.80376e-07 0)
(42.7988 -1.80457e-07 0)
(42.7975 -1.72466e-07 0)
(42.7958 -8.06187e-08 0)
(42.7938 4.29287e-07 0)
(42.7914 3.0224e-06 0)
(42.7886 1.60019e-05 0)
(42.7852 8.0721e-05 0)
(42.7805 0.000402645 0)
(42.7699 0.00199685 0)
(42.7325 0.00980204 0)
(42.572 0.0468819 0)
(42.1232 0.226568 0)