/*--------------------------------*- C++ -*----------------------------------*\
| =========                 |                                                 |
| \\      /  F ield         | OpenFOAM: The Open Source CFD Toolbox           |
|  \\    /   O peration     | Version:  3.0.x                                 |
|   \\  /    A nd           | Web:      www.OpenFOAM.org                      |
|    \\/     M anipulation  |                                                 |
\*---------------------------------------------------------------------------*/
FoamFile
{
    version     2.0;
    format      ascii;
    class       volScalarField;
    location    "0.600075";
    object      rho;
}
// * * * * * * * * * * * * * * * * * * * * * * * * * * * * * * * * * * * * * //

dimensions      [1 -3 0 0 0 0 0];

internalField   nonuniform List<scalar> 
13800
(
57.2169
57.2222
57.2309
57.2395
57.2478
57.2557
57.2632
57.2704
57.2771
57.2831
57.2882
57.2926
57.2964
57.2994
57.3015
57.3028
57.3033
57.3033
57.3028
57.3016
57.2999
57.2975
57.2948
57.2916
57.2881
57.2843
57.2802
57.2759
57.2712
57.2663
57.2611
57.2557
57.25
57.244
57.2378
57.2314
57.2247
57.2178
57.2106
57.2032
57.1955
57.1877
57.1796
57.1712
57.1627
57.154
57.145
57.1359
57.1265
57.117
57.1072
57.0973
57.0872
57.0769
57.0664
57.0557
57.0449
57.0339
57.0228
57.0115
57
56.9884
56.9767
56.9648
56.9528
56.9406
56.9283
56.9159
56.9034
56.8907
56.878
56.8651
56.8522
56.8392
56.8261
56.8129
56.7997
56.7863
56.7729
56.7594
56.7458
56.7321
56.7183
56.7045
56.6907
56.6768
56.6628
56.6489
56.6348
56.6208
56.6067
56.5926
56.5785
56.5644
56.5503
56.5362
56.5221
56.5079
56.4937
56.4795
56.4653
56.451
56.4368
56.4226
56.4083
56.3942
56.38
56.3659
56.3518
56.3378
56.3237
56.3097
56.2958
56.2818
56.2679
56.2541
56.2402
56.2264
56.2127
56.199
56.1853
56.1717
56.1582
56.1447
56.1313
56.118
56.1047
56.0915
56.0783
56.0652
56.0522
56.0393
56.0265
56.0137
56.0011
55.9885
55.976
55.9636
55.9512
55.939
55.9269
55.9148
55.9029
55.8911
55.8793
55.8677
55.8561
55.8447
55.8334
55.8221
55.811
55.8
55.7891
55.7783
55.7676
55.7571
55.7466
55.7362
55.726
55.7158
55.7058
55.6959
55.6861
55.6764
55.6668
55.6573
55.6479
55.6386
55.6295
55.6204
55.6115
55.6026
55.5939
55.5852
55.5767
55.5683
55.56
55.5517
55.5437
55.5355
55.5278
55.5197
55.5124
55.5044
55.4973
55.4894
55.4826
55.4748
55.4683
55.4607
55.4544
55.4469
55.4408
55.4336
55.4276
55.4207
55.4147
55.4087
55.4015
55.3964
57.2182
57.2235
57.2322
57.2408
57.2491
57.257
57.2645
57.2717
57.2784
57.2844
57.2895
57.2939
57.2977
57.3007
57.3028
57.304
57.3046
57.3046
57.304
57.3028
57.3011
57.2988
57.296
57.2928
57.2893
57.2855
57.2814
57.2771
57.2724
57.2675
57.2623
57.2569
57.2512
57.2452
57.239
57.2325
57.2258
57.2189
57.2117
57.2043
57.1966
57.1888
57.1807
57.1724
57.1638
57.1551
57.1461
57.137
57.1276
57.118
57.1083
57.0983
57.0882
57.0779
57.0674
57.0568
57.0459
57.035
57.0238
57.0125
57.001
56.9894
56.9777
56.9658
56.9538
56.9416
56.9293
56.9169
56.9044
56.8917
56.8789
56.8661
56.8531
56.8401
56.827
56.8138
56.8006
56.7872
56.7738
56.7603
56.7467
56.733
56.7192
56.7054
56.6916
56.6777
56.6637
56.6497
56.6357
56.6216
56.6076
56.5935
56.5794
56.5653
56.5511
56.537
56.5229
56.5087
56.4945
56.4803
56.4661
56.4519
56.4376
56.4234
56.4091
56.3949
56.3808
56.3666
56.3526
56.3385
56.3245
56.3105
56.2965
56.2826
56.2687
56.2548
56.241
56.2272
56.2134
56.1997
56.186
56.1724
56.1589
56.1454
56.132
56.1187
56.1054
56.0921
56.079
56.0659
56.0529
56.04
56.0272
56.0144
56.0017
55.9892
55.9767
55.9642
55.9519
55.9397
55.9276
55.9155
55.9036
55.8917
55.88
55.8684
55.8568
55.8454
55.8341
55.8228
55.8117
55.8007
55.7898
55.779
55.7683
55.7577
55.7473
55.7369
55.7267
55.7165
55.7065
55.6966
55.6867
55.677
55.6674
55.658
55.6486
55.6393
55.6301
55.6211
55.6121
55.6033
55.5946
55.5859
55.5774
55.5689
55.5607
55.5524
55.5444
55.5362
55.5285
55.5204
55.513
55.5051
55.4979
55.4901
55.4832
55.4755
55.4689
55.4614
55.455
55.4476
55.4414
55.4343
55.4283
55.4213
55.4155
55.4087
55.403
55.3965
57.2182
57.2235
57.2322
57.2408
57.2491
57.257
57.2645
57.2717
57.2784
57.2844
57.2895
57.2939
57.2977
57.3007
57.3028
57.304
57.3046
57.3046
57.304
57.3028
57.3011
57.2988
57.296
57.2928
57.2893
57.2855
57.2814
57.2771
57.2724
57.2675
57.2623
57.2569
57.2512
57.2452
57.239
57.2325
57.2258
57.2189
57.2117
57.2043
57.1966
57.1888
57.1807
57.1724
57.1638
57.1551
57.1461
57.137
57.1276
57.118
57.1083
57.0983
57.0882
57.0779
57.0674
57.0568
57.0459
57.035
57.0238
57.0125
57.001
56.9894
56.9777
56.9658
56.9538
56.9416
56.9293
56.9169
56.9044
56.8917
56.8789
56.8661
56.8531
56.8401
56.827
56.8138
56.8006
56.7872
56.7738
56.7603
56.7467
56.733
56.7192
56.7054
56.6916
56.6777
56.6637
56.6497
56.6357
56.6216
56.6076
56.5935
56.5794
56.5653
56.5511
56.537
56.5229
56.5087
56.4945
56.4803
56.4661
56.4519
56.4376
56.4234
56.4091
56.3949
56.3808
56.3667
56.3526
56.3385
56.3245
56.3105
56.2965
56.2826
56.2687
56.2548
56.241
56.2272
56.2134
56.1997
56.186
56.1725
56.1589
56.1454
56.132
56.1187
56.1054
56.0922
56.079
56.0659
56.0529
56.04
56.0272
56.0144
56.0017
55.9892
55.9767
55.9642
55.9519
55.9397
55.9276
55.9155
55.9036
55.8918
55.88
55.8684
55.8568
55.8454
55.8341
55.8228
55.8117
55.8007
55.7898
55.779
55.7683
55.7577
55.7473
55.7369
55.7267
55.7165
55.7065
55.6966
55.6867
55.677
55.6674
55.658
55.6486
55.6393
55.6301
55.6211
55.6121
55.6033
55.5946
55.5859
55.5774
55.5689
55.5607
55.5524
55.5444
55.5362
55.5285
55.5204
55.513
55.5051
55.4979
55.4901
55.4833
55.4755
55.4689
55.4614
55.455
55.4476
55.4414
55.4343
55.4283
55.4213
55.4155
55.4087
55.4031
55.3967
57.2182
57.2235
57.2322
57.2408
57.2491
57.257
57.2645
57.2716
57.2784
57.2843
57.2895
57.2939
57.2977
57.3007
57.3027
57.304
57.3046
57.3045
57.304
57.3028
57.3011
57.2987
57.296
57.2928
57.2893
57.2855
57.2814
57.2771
57.2724
57.2675
57.2623
57.2569
57.2511
57.2452
57.239
57.2325
57.2258
57.2189
57.2117
57.2043
57.1966
57.1888
57.1807
57.1723
57.1638
57.1551
57.1461
57.1369
57.1276
57.118
57.1083
57.0983
57.0882
57.0779
57.0674
57.0568
57.0459
57.035
57.0238
57.0125
57.001
56.9894
56.9777
56.9658
56.9538
56.9416
56.9293
56.9169
56.9044
56.8917
56.8789
56.8661
56.8531
56.8401
56.827
56.8138
56.8006
56.7872
56.7738
56.7603
56.7467
56.733
56.7192
56.7054
56.6916
56.6777
56.6637
56.6497
56.6357
56.6216
56.6076
56.5935
56.5794
56.5653
56.5511
56.537
56.5229
56.5087
56.4945
56.4803
56.4661
56.4519
56.4376
56.4234
56.4091
56.3949
56.3808
56.3667
56.3526
56.3385
56.3245
56.3105
56.2965
56.2826
56.2687
56.2548
56.241
56.2272
56.2134
56.1997
56.186
56.1725
56.1589
56.1454
56.132
56.1187
56.1054
56.0922
56.079
56.0659
56.0529
56.04
56.0272
56.0144
56.0017
55.9892
55.9767
55.9642
55.9519
55.9397
55.9276
55.9155
55.9036
55.8918
55.88
55.8684
55.8568
55.8454
55.8341
55.8228
55.8117
55.8007
55.7898
55.779
55.7683
55.7577
55.7473
55.7369
55.7267
55.7165
55.7065
55.6966
55.6867
55.677
55.6674
55.658
55.6486
55.6393
55.6301
55.6211
55.6121
55.6033
55.5946
55.5859
55.5774
55.5689
55.5607
55.5524
55.5444
55.5362
55.5285
55.5204
55.513
55.5051
55.4979
55.4901
55.4833
55.4755
55.4689
55.4614
55.455
55.4476
55.4414
55.4343
55.4283
55.4213
55.4155
55.4088
55.403
55.3969
57.2182
57.2235
57.2322
57.2408
57.2491
57.257
57.2645
57.2716
57.2784
57.2843
57.2895
57.2939
57.2977
57.3007
57.3027
57.304
57.3045
57.3045
57.304
57.3028
57.3011
57.2987
57.296
57.2928
57.2893
57.2855
57.2814
57.277
57.2724
57.2675
57.2623
57.2568
57.2511
57.2452
57.239
57.2325
57.2258
57.2189
57.2117
57.2043
57.1966
57.1888
57.1807
57.1723
57.1638
57.1551
57.1461
57.1369
57.1276
57.118
57.1083
57.0983
57.0882
57.0779
57.0674
57.0568
57.0459
57.035
57.0238
57.0125
57.001
56.9894
56.9777
56.9658
56.9538
56.9416
56.9293
56.9169
56.9044
56.8917
56.8789
56.8661
56.8531
56.8401
56.827
56.8138
56.8006
56.7872
56.7738
56.7603
56.7467
56.733
56.7192
56.7054
56.6916
56.6777
56.6637
56.6497
56.6357
56.6216
56.6076
56.5935
56.5794
56.5653
56.5511
56.537
56.5229
56.5087
56.4945
56.4803
56.4661
56.4519
56.4376
56.4234
56.4091
56.3949
56.3808
56.3667
56.3526
56.3385
56.3245
56.3105
56.2965
56.2826
56.2687
56.2548
56.241
56.2272
56.2134
56.1997
56.186
56.1724
56.1589
56.1454
56.132
56.1187
56.1054
56.0922
56.079
56.0659
56.0529
56.04
56.0272
56.0144
56.0017
55.9892
55.9767
55.9642
55.9519
55.9397
55.9276
55.9155
55.9036
55.8918
55.88
55.8684
55.8568
55.8454
55.8341
55.8228
55.8117
55.8007
55.7898
55.779
55.7683
55.7577
55.7473
55.7369
55.7267
55.7165
55.7065
55.6966
55.6867
55.677
55.6674
55.658
55.6486
55.6393
55.6301
55.6211
55.6121
55.6033
55.5946
55.5859
55.5774
55.5689
55.5607
55.5524
55.5444
55.5362
55.5285
55.5204
55.513
55.505
55.4979
55.4901
55.4833
55.4755
55.4689
55.4614
55.455
55.4476
55.4414
55.4343
55.4283
55.4213
55.4155
55.4087
55.4031
55.3966
57.2182
57.2235
57.2322
57.2408
57.2491
57.257
57.2645
57.2716
57.2784
57.2843
57.2895
57.2939
57.2977
57.3007
57.3027
57.304
57.3045
57.3045
57.304
57.3028
57.3011
57.2987
57.296
57.2928
57.2893
57.2855
57.2814
57.277
57.2724
57.2675
57.2623
57.2568
57.2511
57.2452
57.239
57.2325
57.2258
57.2189
57.2117
57.2043
57.1966
57.1888
57.1807
57.1723
57.1638
57.1551
57.1461
57.1369
57.1276
57.118
57.1083
57.0983
57.0882
57.0779
57.0674
57.0568
57.0459
57.035
57.0238
57.0125
57.001
56.9894
56.9777
56.9658
56.9538
56.9416
56.9293
56.9169
56.9044
56.8917
56.8789
56.8661
56.8531
56.8401
56.827
56.8138
56.8006
56.7872
56.7738
56.7603
56.7467
56.733
56.7192
56.7054
56.6916
56.6777
56.6637
56.6497
56.6357
56.6216
56.6076
56.5935
56.5794
56.5653
56.5511
56.537
56.5229
56.5087
56.4945
56.4803
56.4661
56.4519
56.4376
56.4234
56.4091
56.3949
56.3808
56.3667
56.3526
56.3385
56.3245
56.3105
56.2965
56.2826
56.2687
56.2548
56.241
56.2272
56.2134
56.1997
56.186
56.1724
56.1589
56.1454
56.132
56.1187
56.1054
56.0922
56.079
56.0659
56.0529
56.04
56.0272
56.0144
56.0017
55.9892
55.9767
55.9642
55.9519
55.9397
55.9276
55.9155
55.9036
55.8918
55.88
55.8684
55.8568
55.8454
55.8341
55.8228
55.8117
55.8007
55.7898
55.779
55.7683
55.7577
55.7473
55.7369
55.7267
55.7165
55.7065
55.6966
55.6867
55.677
55.6674
55.658
55.6486
55.6393
55.6301
55.6211
55.6121
55.6033
55.5945
55.5859
55.5774
55.569
55.5606
55.5524
55.5443
55.5363
55.5284
55.5206
55.5128
55.5053
55.4976
55.4905
55.4827
55.476
55.4684
55.4618
55.4547
55.4479
55.4413
55.4343
55.4282
55.4215
55.4152
55.4091
55.4029
55.3968
57.2182
57.2235
57.2322
57.2408
57.2491
57.257
57.2645
57.2716
57.2784
57.2843
57.2895
57.2939
57.2977
57.3007
57.3027
57.304
57.3046
57.3045
57.304
57.3028
57.3011
57.2987
57.296
57.2928
57.2893
57.2855
57.2814
57.2771
57.2724
57.2675
57.2623
57.2569
57.2511
57.2452
57.239
57.2325
57.2258
57.2189
57.2117
57.2043
57.1966
57.1888
57.1807
57.1723
57.1638
57.1551
57.1461
57.1369
57.1276
57.118
57.1083
57.0983
57.0882
57.0779
57.0674
57.0568
57.0459
57.035
57.0238
57.0125
57.001
56.9894
56.9777
56.9658
56.9538
56.9416
56.9293
56.9169
56.9044
56.8917
56.8789
56.8661
56.8531
56.8401
56.827
56.8138
56.8006
56.7872
56.7738
56.7603
56.7467
56.733
56.7192
56.7054
56.6916
56.6777
56.6637
56.6497
56.6357
56.6216
56.6076
56.5935
56.5794
56.5653
56.5511
56.537
56.5229
56.5087
56.4945
56.4803
56.4661
56.4519
56.4376
56.4234
56.4091
56.3949
56.3808
56.3667
56.3526
56.3385
56.3245
56.3105
56.2965
56.2826
56.2687
56.2548
56.241
56.2272
56.2134
56.1997
56.186
56.1725
56.1589
56.1454
56.132
56.1187
56.1054
56.0922
56.079
56.0659
56.0529
56.04
56.0272
56.0144
56.0017
55.9892
55.9767
55.9642
55.9519
55.9397
55.9276
55.9155
55.9036
55.8918
55.88
55.8684
55.8568
55.8454
55.8341
55.8228
55.8117
55.8007
55.7898
55.779
55.7683
55.7577
55.7473
55.7369
55.7267
55.7165
55.7065
55.6966
55.6867
55.677
55.6674
55.658
55.6486
55.6393
55.6301
55.6211
55.6121
55.6033
55.5945
55.5859
55.5774
55.569
55.5606
55.5525
55.5442
55.5364
55.5282
55.5207
55.5127
55.5054
55.4975
55.4905
55.4828
55.476
55.4684
55.4619
55.4545
55.4482
55.4409
55.4348
55.4278
55.4218
55.415
55.4092
55.4028
55.3967
57.2182
57.2235
57.2322
57.2408
57.2491
57.257
57.2645
57.2717
57.2784
57.2844
57.2895
57.2939
57.2977
57.3007
57.3028
57.304
57.3046
57.3046
57.304
57.3028
57.3011
57.2988
57.296
57.2928
57.2893
57.2855
57.2814
57.2771
57.2724
57.2675
57.2623
57.2569
57.2512
57.2452
57.239
57.2325
57.2258
57.2189
57.2117
57.2043
57.1966
57.1888
57.1807
57.1724
57.1638
57.1551
57.1461
57.137
57.1276
57.118
57.1083
57.0983
57.0882
57.0779
57.0674
57.0568
57.0459
57.035
57.0238
57.0125
57.001
56.9894
56.9777
56.9658
56.9538
56.9416
56.9293
56.9169
56.9044
56.8917
56.8789
56.8661
56.8531
56.8401
56.827
56.8138
56.8006
56.7872
56.7738
56.7603
56.7467
56.733
56.7192
56.7054
56.6916
56.6777
56.6637
56.6497
56.6357
56.6216
56.6076
56.5935
56.5794
56.5653
56.5511
56.537
56.5229
56.5087
56.4945
56.4803
56.4661
56.4519
56.4376
56.4234
56.4091
56.3949
56.3808
56.3667
56.3526
56.3385
56.3245
56.3105
56.2965
56.2826
56.2687
56.2548
56.241
56.2272
56.2134
56.1997
56.186
56.1725
56.1589
56.1454
56.132
56.1187
56.1054
56.0922
56.079
56.0659
56.0529
56.04
56.0272
56.0144
56.0017
55.9892
55.9767
55.9642
55.9519
55.9397
55.9276
55.9155
55.9036
55.8918
55.88
55.8684
55.8568
55.8454
55.8341
55.8228
55.8117
55.8007
55.7898
55.779
55.7683
55.7577
55.7473
55.7369
55.7267
55.7165
55.7065
55.6966
55.6867
55.677
55.6674
55.658
55.6486
55.6393
55.6301
55.6211
55.6121
55.6033
55.5945
55.5859
55.5774
55.569
55.5606
55.5525
55.5442
55.5364
55.5282
55.5208
55.5126
55.5055
55.4975
55.4906
55.4827
55.476
55.4684
55.4619
55.4545
55.4482
55.4409
55.4348
55.4277
55.4218
55.4149
55.4093
55.4024
55.3965
57.2182
57.2235
57.2322
57.2408
57.2491
57.257
57.2645
57.2717
57.2784
57.2844
57.2895
57.2939
57.2977
57.3007
57.3028
57.304
57.3046
57.3046
57.304
57.3028
57.3011
57.2988
57.296
57.2928
57.2893
57.2855
57.2814
57.2771
57.2724
57.2675
57.2623
57.2569
57.2512
57.2452
57.239
57.2325
57.2258
57.2189
57.2117
57.2043
57.1966
57.1888
57.1807
57.1724
57.1638
57.1551
57.1461
57.137
57.1276
57.118
57.1083
57.0983
57.0882
57.0779
57.0674
57.0568
57.0459
57.035
57.0238
57.0125
57.001
56.9894
56.9777
56.9658
56.9538
56.9416
56.9293
56.9169
56.9044
56.8917
56.8789
56.8661
56.8531
56.8401
56.827
56.8138
56.8006
56.7872
56.7738
56.7603
56.7467
56.733
56.7192
56.7054
56.6916
56.6777
56.6637
56.6497
56.6357
56.6216
56.6076
56.5935
56.5794
56.5653
56.5511
56.537
56.5229
56.5087
56.4945
56.4803
56.4661
56.4519
56.4376
56.4234
56.4091
56.3949
56.3808
56.3666
56.3526
56.3385
56.3245
56.3105
56.2965
56.2826
56.2687
56.2548
56.241
56.2272
56.2134
56.1997
56.186
56.1724
56.1589
56.1454
56.132
56.1187
56.1054
56.0921
56.079
56.0659
56.0529
56.04
56.0272
56.0144
56.0017
55.9892
55.9767
55.9642
55.9519
55.9397
55.9276
55.9155
55.9036
55.8917
55.88
55.8684
55.8568
55.8454
55.8341
55.8228
55.8117
55.8007
55.7898
55.779
55.7683
55.7577
55.7473
55.7369
55.7267
55.7165
55.7065
55.6966
55.6867
55.677
55.6674
55.658
55.6486
55.6393
55.6301
55.6211
55.6121
55.6033
55.5945
55.5859
55.5774
55.569
55.5606
55.5525
55.5442
55.5364
55.5282
55.5208
55.5126
55.5055
55.4975
55.4906
55.4827
55.476
55.4684
55.4619
55.4545
55.4482
55.4409
55.4348
55.4277
55.4218
55.4149
55.4093
55.4023
55.3962
57.2169
57.2222
57.2309
57.2395
57.2478
57.2557
57.2632
57.2704
57.2771
57.2831
57.2882
57.2926
57.2964
57.2994
57.3015
57.3028
57.3033
57.3033
57.3028
57.3016
57.2999
57.2975
57.2948
57.2916
57.2881
57.2843
57.2802
57.2759
57.2712
57.2663
57.2611
57.2557
57.25
57.244
57.2378
57.2314
57.2247
57.2178
57.2106
57.2032
57.1955
57.1877
57.1796
57.1712
57.1627
57.154
57.145
57.1359
57.1265
57.117
57.1072
57.0973
57.0872
57.0769
57.0664
57.0557
57.0449
57.0339
57.0228
57.0115
57
56.9884
56.9767
56.9648
56.9528
56.9406
56.9283
56.9159
56.9034
56.8907
56.878
56.8651
56.8522
56.8392
56.8261
56.8129
56.7997
56.7863
56.7729
56.7594
56.7458
56.7321
56.7183
56.7045
56.6907
56.6768
56.6628
56.6489
56.6348
56.6208
56.6067
56.5926
56.5785
56.5644
56.5503
56.5362
56.5221
56.5079
56.4937
56.4795
56.4653
56.451
56.4368
56.4226
56.4083
56.3942
56.38
56.3659
56.3518
56.3378
56.3237
56.3097
56.2958
56.2818
56.2679
56.2541
56.2402
56.2264
56.2127
56.199
56.1853
56.1717
56.1582
56.1447
56.1313
56.118
56.1047
56.0915
56.0783
56.0652
56.0522
56.0393
56.0265
56.0137
56.0011
55.9885
55.976
55.9636
55.9512
55.939
55.9269
55.9148
55.9029
55.8911
55.8793
55.8677
55.8561
55.8447
55.8334
55.8221
55.811
55.8
55.7891
55.7783
55.7676
55.7571
55.7466
55.7362
55.726
55.7158
55.7058
55.6959
55.6861
55.6764
55.6668
55.6573
55.6479
55.6386
55.6295
55.6204
55.6115
55.6026
55.5939
55.5853
55.5767
55.5683
55.5599
55.5518
55.5435
55.5358
55.5275
55.5201
55.512
55.5048
55.4968
55.4899
55.4821
55.4754
55.4677
55.4613
55.4538
55.4475
55.4402
55.4342
55.4271
55.4212
55.4142
55.4087
55.4013
55.3954
55.3936
55.3921
55.3907
55.3892
55.3874
55.3856
55.3836
55.3819
55.3805
55.3793
55.3781
55.3771
55.376
55.3749
55.3738
55.3727
55.3715
55.3702
55.3689
55.3676
55.3931
55.3918
55.3905
55.3892
55.3879
55.3866
55.3852
55.3837
55.3823
55.3809
55.3795
55.3782
55.3769
55.3757
55.3746
55.3735
55.3724
55.3712
55.37
55.3687
55.3929
55.3916
55.3903
55.389
55.3878
55.3866
55.3852
55.384
55.3826
55.3813
55.3798
55.3786
55.3772
55.376
55.3748
55.3736
55.3724
55.3712
55.3701
55.3688
55.3933
55.3921
55.3908
55.3896
55.3884
55.3872
55.3859
55.3848
55.3836
55.3824
55.3811
55.3798
55.3784
55.377
55.3754
55.374
55.3725
55.3712
55.3699
55.3684
55.3929
55.3919
55.3907
55.3896
55.3885
55.3874
55.3864
55.3852
55.3842
55.3831
55.3821
55.3811
55.38
55.3789
55.3778
55.3767
55.3754
55.3742
55.3728
55.3716
55.393
55.3918
55.3907
55.3897
55.3886
55.3876
55.3865
55.3854
55.3842
55.3831
55.3819
55.3808
55.3796
55.3783
55.3769
55.3754
55.3738
55.3723
55.3708
55.3696
55.3927
55.3917
55.3907
55.3896
55.3886
55.3876
55.3865
55.3856
55.3845
55.3836
55.3826
55.3816
55.3806
55.3796
55.3787
55.3779
55.377
55.3763
55.3755
55.3746
55.3925
55.3915
55.3904
55.3893
55.3882
55.3871
55.386
55.3849
55.3839
55.3829
55.3819
55.3809
55.38
55.3793
55.3786
55.3782
55.378
55.3781
55.3777
55.3765
55.3921
55.3911
55.39
55.389
55.3879
55.3869
55.3859
55.385
55.384
55.3831
55.3822
55.3814
55.3807
55.3801
55.3797
55.3793
55.3792
55.3793
55.3783
55.3766
55.3914
55.3903
55.3893
55.3883
55.3873
55.3863
55.3853
55.3844
55.3836
55.3828
55.3821
55.3814
55.3808
55.3803
55.3799
55.3795
55.3794
55.3795
55.378
55.3752
55.3648
55.3599
55.3553
55.3513
55.3474
55.3432
55.3389
55.3347
55.3309
55.3272
55.3236
55.3198
55.3159
55.3121
55.3084
55.3049
55.3014
55.298
55.2947
55.2914
55.2881
55.2849
55.2817
55.2786
55.2755
55.2725
55.2696
55.2667
55.2638
55.261
55.2583
55.2557
55.2531
55.2505
55.248
55.2455
55.243
55.2407
55.2384
55.2361
55.2339
55.2318
55.2297
55.2276
55.2256
55.2237
55.2217
55.2199
55.2181
55.2163
55.2145
55.2128
55.2112
55.2095
55.2079
55.2064
55.2049
55.2035
55.2021
55.2007
55.1994
55.1981
55.1968
55.1956
55.1944
55.1932
55.1921
55.191
55.1899
55.1889
55.1879
55.1869
55.186
55.1851
55.1842
55.1834
55.1826
55.1818
55.1811
55.1803
55.1796
55.1789
55.1783
55.1776
55.177
55.1765
55.1759
55.1754
55.175
55.1745
55.1741
55.1737
55.1733
55.173
55.1727
55.1723
55.172
55.1718
55.1715
55.1713
55.1711
55.1709
55.1707
55.1706
55.1704
55.1703
55.1702
55.1702
55.1702
55.1702
55.1701
55.1701
55.1701
55.1702
55.1704
55.1707
55.1712
55.1717
55.1722
55.1724
55.1723
55.1723
55.1731
55.1746
55.1765
55.1779
55.1777
55.1726
55.1525
55.1197
55.0869
55.0562
55.029
55.0067
54.9901
54.9802
54.9769
54.9764
54.9782
54.9893
55.025
55.0685
55.1057
55.1344
55.1546
55.1676
55.176
55.1815
55.1848
55.1859
55.1852
55.1835
55.1825
55.1818
55.1813
55.1811
55.1809
55.1809
55.1809
55.1809
55.1809
55.181
55.1811
55.1811
55.1812
55.1813
55.1813
55.1814
55.1815
55.1815
55.1816
55.1816
55.1817
55.1818
55.1817
55.1819
55.1817
55.182
55.1817
55.1821
55.1817
55.1821
55.1817
55.1821
55.1816
55.1821
55.1816
55.1821
55.1816
55.1821
55.1816
55.182
55.1815
55.182
55.1815
55.182
55.1815
55.182
55.1813
55.1815
55.366
55.3616
55.3568
55.3524
55.3484
55.3444
55.3403
55.3361
55.3322
55.3285
55.325
55.3214
55.3177
55.3139
55.3101
55.3066
55.3031
55.2998
55.2965
55.2932
55.2899
55.2867
55.2836
55.2805
55.2774
55.2744
55.2715
55.2686
55.2658
55.263
55.2602
55.2576
55.255
55.2524
55.2499
55.2475
55.245
55.2427
55.2403
55.2381
55.2359
55.2337
55.2316
55.2296
55.2276
55.2256
55.2237
55.2218
55.22
55.2182
55.2165
55.2148
55.2132
55.2116
55.21
55.2084
55.2069
55.2054
55.204
55.2027
55.2013
55.2001
55.1988
55.1976
55.1964
55.1952
55.1941
55.193
55.1919
55.1909
55.1899
55.189
55.188
55.1871
55.1862
55.1854
55.1846
55.1838
55.1831
55.1824
55.1817
55.181
55.1803
55.1797
55.1791
55.1785
55.178
55.1775
55.177
55.1765
55.1761
55.1757
55.1753
55.175
55.1747
55.1744
55.1741
55.1738
55.1736
55.1733
55.1731
55.1729
55.1727
55.1726
55.1724
55.1723
55.1722
55.1722
55.172
55.172
55.172
55.172
55.172
55.1721
55.1722
55.1723
55.1726
55.1729
55.1732
55.1732
55.1732
55.1732
55.1734
55.174
55.1753
55.1773
55.1792
55.1811
55.1831
55.1857
55.1885
55.1911
55.1927
55.1927
55.1902
55.1839
55.177
55.17
55.1636
55.1575
55.1542
55.1535
55.1539
55.1561
55.161
55.1663
55.1711
55.1753
55.1787
55.1808
55.1816
55.1817
55.1816
55.1815
55.1815
55.1814
55.1814
55.1814
55.1814
55.1815
55.1815
55.1816
55.1816
55.1817
55.1818
55.1818
55.1819
55.182
55.182
55.1821
55.1821
55.1822
55.1822
55.1823
55.1823
55.1825
55.1823
55.1826
55.1823
55.1826
55.1823
55.1826
55.1823
55.1826
55.1823
55.1826
55.1823
55.1826
55.1822
55.1826
55.1822
55.1825
55.1822
55.1825
55.1821
55.1825
55.1821
55.1825
55.1821
55.1821
55.3661
55.3616
55.3568
55.3523
55.3483
55.3443
55.3401
55.3359
55.3319
55.3283
55.3247
55.3211
55.3173
55.3135
55.3098
55.3063
55.3029
55.2995
55.2962
55.2929
55.2896
55.2864
55.2833
55.2802
55.2771
55.2741
55.2712
55.2683
55.2654
55.2627
55.2599
55.2573
55.2547
55.2521
55.2496
55.2471
55.2447
55.2423
55.24
55.2377
55.2355
55.2334
55.2313
55.2293
55.2273
55.2253
55.2234
55.2215
55.2197
55.2179
55.2162
55.2145
55.2129
55.2112
55.2097
55.2081
55.2066
55.2051
55.2037
55.2024
55.201
55.1997
55.1985
55.1973
55.1961
55.1949
55.1938
55.1927
55.1916
55.1906
55.1896
55.1887
55.1877
55.1868
55.1859
55.1851
55.1843
55.1835
55.1828
55.1821
55.1814
55.1807
55.18
55.1794
55.1788
55.1782
55.1777
55.1772
55.1767
55.1763
55.1758
55.1754
55.1751
55.1747
55.1744
55.1741
55.1738
55.1735
55.1733
55.1731
55.1729
55.1727
55.1725
55.1723
55.1722
55.1721
55.172
55.1719
55.1718
55.1718
55.1717
55.1717
55.1717
55.1717
55.1718
55.1719
55.1722
55.1725
55.1728
55.173
55.1729
55.1726
55.1725
55.1731
55.1748
55.1773
55.1805
55.1839
55.1873
55.1905
55.1934
55.1959
55.1979
55.199
55.1989
55.1968
55.1926
55.1881
55.1835
55.1792
55.1754
55.1725
55.1705
55.1699
55.1703
55.1714
55.1734
55.1755
55.1773
55.1787
55.1796
55.1803
55.1807
55.181
55.1811
55.1812
55.1813
55.1813
55.1814
55.1815
55.1815
55.1816
55.1816
55.1817
55.1818
55.1818
55.1819
55.182
55.182
55.1821
55.1821
55.1822
55.1822
55.1823
55.1823
55.1825
55.1823
55.1826
55.1823
55.1826
55.1823
55.1826
55.1823
55.1826
55.1823
55.1826
55.1823
55.1826
55.1822
55.1826
55.1822
55.1825
55.1822
55.1825
55.1821
55.1825
55.1821
55.1825
55.1822
55.1823
55.3657
55.3611
55.3559
55.351
55.3464
55.3421
55.3378
55.3334
55.329
55.3249
55.3209
55.3171
55.3133
55.3094
55.3056
55.3019
55.2983
55.2949
55.2915
55.2882
55.2849
55.2817
55.2785
55.2753
55.2723
55.2693
55.2663
55.2634
55.2606
55.2578
55.2551
55.2524
55.2498
55.2472
55.2447
55.2422
55.2398
55.2374
55.2351
55.2329
55.2307
55.2285
55.2264
55.2244
55.2224
55.2204
55.2185
55.2167
55.2148
55.2131
55.2113
55.2096
55.2079
55.2063
55.2047
55.2032
55.2017
55.2003
55.1989
55.1975
55.1962
55.1949
55.1936
55.1924
55.1912
55.19
55.1889
55.1878
55.1868
55.1857
55.1847
55.1838
55.1828
55.1819
55.1811
55.1803
55.1795
55.1787
55.1779
55.1772
55.1764
55.1758
55.1751
55.1745
55.1739
55.1733
55.1728
55.1723
55.1718
55.1714
55.171
55.1706
55.1702
55.1699
55.1695
55.1692
55.1689
55.1687
55.1684
55.1682
55.168
55.1678
55.1677
55.1675
55.1675
55.1674
55.1673
55.1672
55.1672
55.1672
55.1673
55.1674
55.1676
55.168
55.1682
55.1686
55.1688
55.1689
55.1689
55.169
55.1692
55.1698
55.1712
55.173
55.1751
55.1771
55.1788
55.1805
55.1823
55.1839
55.1852
55.1859
55.1859
55.1851
55.184
55.1825
55.181
55.1796
55.1782
55.1772
55.1764
55.176
55.176
55.1762
55.1767
55.1773
55.178
55.1786
55.1791
55.1796
55.1799
55.1802
55.1804
55.1806
55.1807
55.1808
55.1809
55.181
55.1811
55.1812
55.1813
55.1814
55.1815
55.1816
55.1817
55.1818
55.1819
55.1819
55.182
55.1821
55.1821
55.1822
55.1822
55.1823
55.1823
55.1824
55.1823
55.1825
55.1823
55.1825
55.1824
55.1825
55.1824
55.1826
55.1823
55.1826
55.1822
55.1826
55.1822
55.1826
55.1822
55.1826
55.1822
55.1825
55.1821
55.1825
55.1821
55.1825
55.1824
55.1823
55.3688
55.364
55.3592
55.3545
55.35
55.3457
55.3415
55.3374
55.3336
55.3299
55.3263
55.3226
55.3188
55.3151
55.3114
55.3078
55.3043
55.3009
55.2975
55.2941
55.2908
55.2876
55.2845
55.2814
55.2783
55.2754
55.2724
55.2696
55.2667
55.264
55.2613
55.2586
55.256
55.2534
55.2509
55.2485
55.2461
55.2437
55.2414
55.2392
55.237
55.2348
55.2327
55.2306
55.2286
55.2266
55.2247
55.2228
55.221
55.2192
55.2175
55.2158
55.2142
55.2125
55.211
55.2095
55.208
55.2065
55.2051
55.2037
55.2024
55.2011
55.1998
55.1986
55.1974
55.1962
55.1951
55.194
55.193
55.1919
55.1909
55.1899
55.189
55.1881
55.1872
55.1864
55.1856
55.1848
55.184
55.1833
55.1826
55.1819
55.1813
55.1807
55.1801
55.1796
55.179
55.1785
55.178
55.1775
55.1771
55.1767
55.1763
55.1759
55.1756
55.1752
55.1749
55.1747
55.1744
55.1742
55.1739
55.1737
55.1735
55.1734
55.1732
55.1731
55.173
55.1729
55.1728
55.1727
55.1727
55.1727
55.1727
55.1726
55.1727
55.1727
55.1728
55.1728
55.1729
55.1731
55.1734
55.1735
55.1734
55.1733
55.1736
55.1741
55.1749
55.176
55.1771
55.1783
55.1793
55.1802
55.1807
55.1809
55.1809
55.1806
55.1803
55.1799
55.1796
55.1793
55.179
55.1789
55.1789
55.1789
55.179
55.1791
55.1793
55.1794
55.1796
55.1798
55.1799
55.1801
55.1802
55.1804
55.1805
55.1806
55.1808
55.1809
55.181
55.1811
55.1812
55.1814
55.1815
55.1816
55.1817
55.1818
55.1818
55.1819
55.182
55.1821
55.1821
55.1822
55.1822
55.1823
55.1823
55.1823
55.1824
55.1823
55.1825
55.1824
55.1825
55.1825
55.1824
55.1826
55.1823
55.1825
55.1824
55.1824
55.1825
55.1823
55.1825
55.1822
55.1824
55.1824
55.1822
55.1824
55.1823
55.1823
55.1823
55.1823
55.3664
55.36
55.3535
55.3474
55.3416
55.3362
55.331
55.3261
55.3213
55.3167
55.3123
55.3081
55.304
55.3001
55.2963
55.2926
55.289
55.2855
55.2821
55.2787
55.2754
55.2721
55.2689
55.2658
55.2627
55.2597
55.2567
55.2538
55.251
55.2482
55.2455
55.2428
55.2402
55.2376
55.235
55.2326
55.2302
55.2278
55.2255
55.2233
55.2211
55.2189
55.2168
55.2148
55.2128
55.2109
55.209
55.2071
55.2052
55.2034
55.2017
55.2
55.1984
55.1968
55.1952
55.1937
55.1922
55.1908
55.1894
55.188
55.1867
55.1854
55.1841
55.1829
55.1817
55.1806
55.1795
55.1784
55.1774
55.1763
55.1754
55.1744
55.1735
55.1725
55.1717
55.1708
55.17
55.1693
55.1685
55.1678
55.1672
55.1665
55.1659
55.1654
55.1649
55.1644
55.164
55.1636
55.1633
55.1629
55.1626
55.1623
55.162
55.1618
55.1617
55.1616
55.1615
55.1614
55.1614
55.1614
55.1613
55.1613
55.1613
55.1615
55.1616
55.1619
55.1621
55.1625
55.1628
55.1631
55.1634
55.1637
55.1638
55.1639
55.164
55.1641
55.1644
55.1651
55.166
55.1671
55.1685
55.1701
55.1717
55.1733
55.1747
55.1759
55.177
55.1779
55.1788
55.1795
55.1801
55.1805
55.1809
55.1811
55.1811
55.1811
55.1808
55.1803
55.1798
55.1792
55.1788
55.1785
55.1784
55.1783
55.1783
55.1784
55.1786
55.1788
55.1789
55.1791
55.1793
55.1795
55.1797
55.1799
55.1801
55.1803
55.1805
55.1806
55.1808
55.181
55.1811
55.1812
55.1814
55.1815
55.1816
55.1817
55.1818
55.1819
55.182
55.182
55.1821
55.1821
55.1823
55.1822
55.1824
55.1823
55.1825
55.1823
55.1826
55.1823
55.1826
55.1823
55.1826
55.1823
55.1826
55.1823
55.1826
55.1822
55.1826
55.1822
55.1826
55.1822
55.1825
55.1822
55.1825
55.1821
55.1825
55.1821
55.1824
55.1821
55.3717
55.3674
55.3633
55.3592
55.3551
55.3509
55.3467
55.3426
55.3386
55.3348
55.331
55.3273
55.3237
55.3201
55.3166
55.3132
55.3098
55.3065
55.3032
55.3
55.2968
55.2936
55.2906
55.2875
55.2845
55.2816
55.2788
55.2759
55.2732
55.2705
55.2679
55.2653
55.2627
55.2602
55.2577
55.2553
55.2529
55.2506
55.2483
55.2461
55.2439
55.2417
55.2396
55.2376
55.2356
55.2336
55.2317
55.2298
55.228
55.2262
55.2245
55.2227
55.2211
55.2195
55.2179
55.2163
55.2148
55.2134
55.212
55.2106
55.2093
55.208
55.2067
55.2054
55.2043
55.2031
55.202
55.2009
55.1998
55.1988
55.1978
55.1968
55.1958
55.1949
55.1941
55.1932
55.1924
55.1917
55.1909
55.1902
55.1895
55.1888
55.1881
55.1875
55.1869
55.1864
55.1859
55.1854
55.1849
55.1844
55.184
55.1836
55.1832
55.1828
55.1825
55.1822
55.1819
55.1817
55.1814
55.1812
55.181
55.1808
55.1807
55.1805
55.1804
55.1803
55.1802
55.1802
55.1801
55.1801
55.1801
55.18
55.18
55.1801
55.1801
55.1802
55.1802
55.1803
55.1804
55.1806
55.1807
55.1808
55.1808
55.1808
55.1808
55.181
55.1812
55.1814
55.1814
55.181
55.1805
55.18
55.18
55.1805
55.1817
55.1838
55.1856
55.1864
55.1863
55.1854
55.184
55.1827
55.1816
55.1807
55.1801
55.1797
55.1795
55.1794
55.1794
55.1794
55.1795
55.1797
55.1798
55.18
55.1801
55.1803
55.1805
55.1806
55.1808
55.1809
55.1811
55.1812
55.1814
55.1815
55.1816
55.1817
55.1818
55.1819
55.182
55.182
55.1821
55.1821
55.1823
55.1822
55.1824
55.1823
55.1825
55.1823
55.1826
55.1823
55.1826
55.1823
55.1826
55.1823
55.1826
55.1823
55.1826
55.1822
55.1826
55.1822
55.1826
55.1822
55.1825
55.1822
55.1825
55.1822
55.1825
55.1823
55.1822
55.1822
55.373
55.3668
55.3604
55.3538
55.3474
55.3412
55.3353
55.3296
55.3242
55.319
55.3141
55.3094
55.305
55.3008
55.2969
55.2931
55.2894
55.2859
55.2824
55.2791
55.2757
55.2725
55.2693
55.2662
55.2632
55.2602
55.2572
55.2543
55.2515
55.2487
55.246
55.2434
55.2408
55.2382
55.2357
55.2332
55.2308
55.2284
55.2261
55.2239
55.2217
55.2196
55.2175
55.2155
55.2135
55.2116
55.2097
55.2079
55.2061
55.2044
55.2026
55.201
55.1994
55.1978
55.1963
55.1949
55.1935
55.1921
55.1907
55.1894
55.1881
55.1869
55.1857
55.1845
55.1834
55.1822
55.1812
55.1801
55.1791
55.1781
55.1771
55.1762
55.1752
55.1743
55.1734
55.1726
55.1717
55.1709
55.1701
55.1693
55.1686
55.1679
55.1673
55.1667
55.1662
55.1657
55.1653
55.1649
55.1645
55.1642
55.1639
55.1636
55.1634
55.1632
55.163