/*--------------------------------*- C++ -*----------------------------------*\
| =========                 |                                                 |
| \\      /  F ield         | OpenFOAM: The Open Source CFD Toolbox           |
|  \\    /   O peration     | Version:  3.0.x                                 |
|   \\  /    A nd           | Web:      www.OpenFOAM.org                      |
|    \\/     M anipulation  |                                                 |
\*---------------------------------------------------------------------------*/
FoamFile
{
    version     2.0;
    format      ascii;
    class       volScalarField;
    location    "0.600075";
    object      T;
}
// * * * * * * * * * * * * * * * * * * * * * * * * * * * * * * * * * * * * * //

dimensions      [0 0 0 1 0 0 0];

internalField   nonuniform List<scalar> 
13800
(
794.019
793.983
793.92
793.851
793.775
793.697
793.621
793.545
793.47
793.401
793.338
793.28
793.226
793.178
793.138
793.104
793.075
793.049
793.025
793.006
792.989
792.976
792.965
792.954
792.943
792.931
792.919
792.907
792.894
792.88
792.866
792.851
792.835
792.818
792.801
792.783
792.764
792.745
792.725
792.704
792.683
792.661
792.638
792.615
792.591
792.567
792.542
792.516
792.49
792.464
792.436
792.409
792.38
792.352
792.322
792.293
792.262
792.232
792.201
792.169
792.137
792.105
792.072
792.038
792.005
791.971
791.937
791.902
791.868
791.833
791.798
791.762
791.726
791.689
791.651
791.613
791.575
791.537
791.499
791.461
791.423
791.384
791.346
791.308
791.269
791.23
791.191
791.151
791.112
791.073
791.033
790.993
790.952
790.911
790.87
790.829
790.789
790.748
790.707
790.667
790.627
790.587
790.547
790.508
790.468
790.428
790.388
790.348
790.307
790.267
790.226
790.186
790.146
790.106
790.067
790.027
789.988
789.949
789.91
789.871
789.833
789.794
789.756
789.718
789.68
789.642
789.605
789.567
789.53
789.493
789.457
789.42
789.384
789.348
789.312
789.276
789.241
789.206
789.171
789.137
789.102
789.068
789.034
789.001
788.968
788.935
788.902
788.87
788.837
788.806
788.774
788.743
788.712
788.681
788.651
788.621
788.591
788.562
788.533
788.504
788.475
788.447
788.419
788.392
788.365
788.338
788.311
788.285
788.259
788.233
788.207
788.182
788.157
788.133
788.108
788.085
788.06
788.038
788.013
787.993
787.967
787.949
787.922
787.906
787.879
787.864
787.836
787.823
787.795
787.784
787.755
787.744
787.717
787.706
787.679
787.668
787.645
787.623
787.622
787.593
794.001
793.965
793.902
793.833
793.757
793.68
793.603
793.527
793.453
793.383
793.321
793.263
793.209
793.161
793.121
793.087
793.058
793.032
793.009
792.989
792.973
792.959
792.948
792.937
792.926
792.915
792.903
792.891
792.878
792.864
792.85
792.834
792.819
792.802
792.785
792.767
792.748
792.729
792.709
792.688
792.667
792.645
792.623
792.6
792.576
792.552
792.527
792.501
792.475
792.449
792.421
792.394
792.366
792.337
792.308
792.278
792.248
792.217
792.186
792.155
792.123
792.091
792.058
792.024
791.991
791.957
791.923
791.889
791.854
791.819
791.784
791.749
791.712
791.676
791.638
791.6
791.562
791.524
791.486
791.448
791.41
791.372
791.333
791.295
791.256
791.217
791.178
791.139
791.1
791.061
791.021
790.981
790.94
790.9
790.859
790.818
790.777
790.737
790.696
790.656
790.616
790.576
790.536
790.496
790.457
790.417
790.377
790.337
790.297
790.256
790.216
790.176
790.136
790.096
790.056
790.017
789.978
789.939
789.9
789.861
789.823
789.784
789.746
789.708
789.67
789.633
789.595
789.558
789.521
789.484
789.447
789.41
789.374
789.338
789.302
789.267
789.231
789.196
789.161
789.127
789.092
789.058
789.025
788.991
788.958
788.925
788.892
788.86
788.828
788.796
788.764
788.733
788.702
788.672
788.641
788.611
788.582
788.552
788.523
788.494
788.466
788.438
788.41
788.382
788.355
788.328
788.301
788.275
788.249
788.223
788.198
788.173
788.148
788.123
788.099
788.075
788.051
788.029
788.004
787.983
787.958
787.939
787.913
787.896
787.869
787.854
787.827
787.814
787.786
787.774
787.746
787.734
787.708
787.696
787.67
787.659
787.634
787.623
787.6
787.591
794.001
793.965
793.902
793.833
793.757
793.68
793.603
793.527
793.453
793.383
793.321
793.263
793.209
793.161
793.121
793.087
793.058
793.032
793.008
792.989
792.973
792.959
792.948
792.937
792.926
792.915
792.903
792.891
792.878
792.864
792.85
792.834
792.819
792.802
792.785
792.767
792.748
792.729
792.709
792.688
792.667
792.645
792.623
792.6
792.576
792.552
792.527
792.501
792.475
792.449
792.421
792.394
792.366
792.337
792.308
792.278
792.248
792.217
792.186
792.155
792.123
792.09
792.058
792.024
791.991
791.957
791.923
791.888
791.854
791.819
791.784
791.749
791.712
791.676
791.638
791.6
791.562
791.524
791.486
791.448
791.41
791.372
791.333
791.295
791.256
791.217
791.178
791.139
791.1
791.06
791.021
790.981
790.94
790.9
790.859
790.818
790.777
790.737
790.696
790.656
790.616
790.576
790.536
790.496
790.457
790.417
790.377
790.337
790.297
790.256
790.216
790.176
790.136
790.096
790.056
790.017
789.978
789.939
789.9
789.861
789.823
789.784
789.746
789.708
789.67
789.632
789.595
789.558
789.521
789.484
789.447
789.41
789.374
789.338
789.302
789.267
789.231
789.196
789.161
789.127
789.092
789.058
789.025
788.991
788.958
788.925
788.892
788.86
788.828
788.796
788.764
788.733
788.702
788.672
788.641
788.611
788.581
788.552
788.523
788.494
788.466
788.438
788.41
788.382
788.355
788.328
788.301
788.275
788.249
788.223
788.198
788.173
788.148
788.123
788.099
788.075
788.051
788.029
788.004
787.983
787.958
787.939
787.913
787.896
787.869
787.854
787.827
787.814
787.786
787.774
787.746
787.734
787.708
787.696
787.67
787.659
787.633
787.623
787.599
787.589
794.001
793.965
793.902
793.833
793.757
793.68
793.604
793.528
793.453
793.383
793.321
793.263
793.209
793.161
793.121
793.087
793.058
793.032
793.009
792.989
792.973
792.959
792.948
792.937
792.926
792.915
792.903
792.891
792.878
792.864
792.85
792.835
792.819
792.802
792.785
792.767
792.748
792.729
792.709
792.689
792.667
792.645
792.623
792.6
792.576
792.552
792.527
792.501
792.475
792.449
792.422
792.394
792.366
792.337
792.308
792.278
792.248
792.217
792.186
792.155
792.123
792.091
792.058
792.024
791.991
791.957
791.923
791.889
791.854
791.819
791.784
791.749
791.712
791.676
791.638
791.6
791.562
791.524
791.486
791.448
791.41
791.372
791.333
791.295
791.256
791.217
791.178
791.139
791.1
791.06
791.021
790.981
790.94
790.9
790.859
790.818
790.777
790.737
790.696
790.656
790.616
790.576
790.536
790.496
790.457
790.417
790.377
790.337
790.297
790.256
790.216
790.176
790.136
790.096
790.056
790.017
789.978
789.939
789.9
789.861
789.823
789.784
789.746
789.708
789.67
789.632
789.595
789.558
789.521
789.484
789.447
789.41
789.374
789.338
789.302
789.267
789.231
789.196
789.161
789.127
789.092
789.058
789.025
788.991
788.958
788.925
788.892
788.86
788.828
788.796
788.764
788.733
788.702
788.672
788.641
788.611
788.581
788.552
788.523
788.494
788.466
788.438
788.41
788.382
788.355
788.328
788.301
788.275
788.249
788.223
788.198
788.173
788.148
788.123
788.099
788.075
788.051
788.029
788.004
787.983
787.958
787.939
787.913
787.896
787.869
787.854
787.827
787.814
787.786
787.774
787.746
787.734
787.708
787.696
787.67
787.659
787.633
787.623
787.599
787.585
794.001
793.965
793.902
793.833
793.757
793.68
793.604
793.528
793.453
793.383
793.321
793.263
793.209
793.161
793.121
793.087
793.058
793.032
793.009
792.989
792.973
792.96
792.948
792.937
792.926
792.915
792.903
792.891
792.878
792.864
792.85
792.835
792.819
792.802
792.785
792.767
792.748
792.729
792.709
792.689
792.667
792.645
792.623
792.6
792.576
792.552
792.527
792.501
792.475
792.449
792.422
792.394
792.366
792.337
792.308
792.278
792.248
792.217
792.186
792.155
792.123
792.091
792.058
792.025
791.991
791.957
791.923
791.889
791.854
791.819
791.784
791.749
791.712
791.676
791.638
791.601
791.562
791.524
791.486
791.448
791.41
791.372
791.333
791.295
791.256
791.217
791.178
791.139
791.1
791.061
791.021
790.981
790.94
790.9
790.859
790.818
790.777
790.737
790.696
790.656
790.616
790.576
790.536
790.496
790.457
790.417
790.377
790.337
790.297
790.256
790.216
790.176
790.136
790.096
790.056
790.017
789.978
789.939
789.9
789.861
789.823
789.784
789.746
789.708
789.67
789.632
789.595
789.558
789.521
789.484
789.447
789.41
789.374
789.338
789.302
789.267
789.231
789.196
789.161
789.127
789.092
789.058
789.025
788.991
788.958
788.925
788.892
788.86
788.828
788.796
788.764
788.733
788.702
788.672
788.641
788.611
788.581
788.552
788.523
788.494
788.466
788.438
788.41
788.382
788.355
788.328
788.301
788.275
788.249
788.223
788.198
788.173
788.148
788.123
788.099
788.075
788.051
788.029
788.004
787.983
787.958
787.939
787.913
787.896
787.869
787.855
787.827
787.814
787.786
787.774
787.746
787.734
787.708
787.696
787.67
787.659
787.634
787.623
787.599
787.589
794.001
793.965
793.902
793.833
793.757
793.68
793.604
793.528
793.453
793.383
793.321
793.263
793.209
793.161
793.121
793.087
793.058
793.032
793.009
792.989
792.973
792.96
792.948
792.937
792.926
792.915
792.903
792.891
792.878
792.864
792.85
792.835
792.819
792.802
792.785
792.767
792.748
792.729
792.709
792.689
792.667
792.645
792.623
792.6
792.576
792.552
792.527
792.501
792.475
792.449
792.422
792.394
792.366
792.337
792.308
792.278
792.248
792.217
792.186
792.155
792.123
792.091
792.058
792.025
791.991
791.957
791.923
791.889
791.854
791.819
791.784
791.749
791.712
791.676
791.638
791.601
791.562
791.524
791.486
791.448
791.41
791.372
791.333
791.295
791.256
791.217
791.178
791.139
791.1
791.061
791.021
790.981
790.94
790.9
790.859
790.818
790.777
790.737
790.696
790.656
790.616
790.576
790.536
790.496
790.457
790.417
790.377
790.337
790.297
790.256
790.216
790.176
790.136
790.096
790.056
790.017
789.978
789.939
789.9
789.861
789.823
789.784
789.746
789.708
789.67
789.632
789.595
789.558
789.521
789.484
789.447
789.41
789.374
789.338
789.302
789.267
789.231
789.196
789.161
789.127
789.092
789.058
789.025
788.991
788.958
788.925
788.892
788.86
788.828
788.796
788.764
788.733
788.702
788.672
788.641
788.611
788.581
788.552
788.523
788.494
788.466
788.438
788.41
788.382
788.355
788.328
788.301
788.275
788.249
788.223
788.198
788.173
788.148
788.123
788.099
788.075
788.051
788.028
788.005
787.982
787.959
787.937
787.915
787.893
787.874
787.848
787.834
787.806
787.793
787.767
787.751
787.73
787.709
787.695
787.671
787.656
787.638
787.618
787.601
787.583
794.001
793.965
793.902
793.833
793.757
793.68
793.604
793.528
793.453
793.383
793.321
793.263
793.209
793.161
793.121
793.087
793.058
793.032
793.009
792.989
792.973
792.959
792.948
792.937
792.926
792.915
792.903
792.891
792.878
792.864
792.85
792.835
792.819
792.802
792.785
792.767
792.748
792.729
792.709
792.689
792.667
792.645
792.623
792.6
792.576
792.552
792.527
792.501
792.475
792.449
792.422
792.394
792.366
792.337
792.308
792.278
792.248
792.217
792.186
792.155
792.123
792.091
792.058
792.024
791.991
791.957
791.923
791.889
791.854
791.819
791.784
791.749
791.712
791.676
791.638
791.6
791.562
791.524
791.486
791.448
791.41
791.372
791.333
791.295
791.256
791.217
791.178
791.139
791.1
791.06
791.021
790.981
790.94
790.9
790.859
790.818
790.777
790.737
790.696
790.656
790.616
790.576
790.536
790.496
790.457
790.417
790.377
790.337
790.297
790.256
790.216
790.176
790.136
790.096
790.056
790.017
789.978
789.939
789.9
789.861
789.823
789.784
789.746
789.708
789.67
789.632
789.595
789.558
789.521
789.484
789.447
789.41
789.374
789.338
789.302
789.267
789.231
789.196
789.161
789.127
789.092
789.058
789.025
788.991
788.958
788.925
788.892
788.86
788.828
788.796
788.764
788.733
788.702
788.672
788.641
788.611
788.581
788.552
788.523
788.494
788.466
788.438
788.41
788.382
788.355
788.328
788.301
788.275
788.249
788.223
788.198
788.173
788.148
788.123
788.099
788.075
788.052
788.027
788.006
787.98
787.962
787.935
787.918
787.891
787.875
787.848
787.834
787.806
787.793
787.766
787.754
787.727
787.715
787.689
787.678
787.652
787.641
787.616
787.602
787.583
794.001
793.965
793.902
793.833
793.757
793.68
793.603
793.527
793.453
793.383
793.321
793.263
793.209
793.161
793.121
793.087
793.058
793.032
793.008
792.989
792.973
792.959
792.948
792.937
792.926
792.915
792.903
792.891
792.878
792.864
792.85
792.834
792.819
792.802
792.785
792.767
792.748
792.729
792.709
792.688
792.667
792.645
792.623
792.6
792.576
792.552
792.527
792.501
792.475
792.449
792.421
792.394
792.366
792.337
792.308
792.278
792.248
792.217
792.186
792.155
792.123
792.09
792.058
792.024
791.991
791.957
791.923
791.888
791.854
791.819
791.784
791.749
791.712
791.676
791.638
791.6
791.562
791.524
791.486
791.448
791.41
791.372
791.333
791.295
791.256
791.217
791.178
791.139
791.1
791.06
791.021
790.981
790.94
790.9
790.859
790.818
790.777
790.737
790.696
790.656
790.616
790.576
790.536
790.496
790.457
790.417
790.377
790.337
790.297
790.256
790.216
790.176
790.136
790.096
790.056
790.017
789.978
789.939
789.9
789.861
789.823
789.784
789.746
789.708
789.67
789.632
789.595
789.558
789.521
789.484
789.447
789.41
789.374
789.338
789.302
789.267
789.231
789.196
789.161
789.127
789.092
789.058
789.025
788.991
788.958
788.925
788.892
788.86
788.828
788.796
788.764
788.733
788.702
788.672
788.641
788.611
788.581
788.552
788.523
788.494
788.466
788.438
788.41
788.382
788.355
788.328
788.301
788.275
788.249
788.223
788.198
788.173
788.148
788.123
788.099
788.075
788.052
788.027
788.006
787.98
787.962
787.935
787.918
787.891
787.876
787.848
787.834
787.806
787.793
787.766
787.754
787.727
787.715
787.689
787.678
787.652
787.642
787.615
787.607
787.586
794.001
793.965
793.902
793.833
793.757
793.68
793.603
793.527
793.453
793.383
793.321
793.263
793.209
793.161
793.121
793.087
793.058
793.032
793.009
792.989
792.973
792.959
792.948
792.937
792.926
792.915
792.903
792.891
792.878
792.864
792.85
792.834
792.819
792.802
792.785
792.767
792.748
792.729
792.709
792.688
792.667
792.645
792.623
792.6
792.576
792.552
792.527
792.501
792.475
792.449
792.421
792.394
792.366
792.337
792.308
792.278
792.248
792.217
792.186
792.155
792.123
792.091
792.058
792.024
791.991
791.957
791.923
791.889
791.854
791.819
791.784
791.749
791.712
791.676
791.638
791.6
791.562
791.524
791.486
791.448
791.41
791.372
791.333
791.295
791.256
791.217
791.178
791.139
791.1
791.061
791.021
790.981
790.94
790.9
790.859
790.818
790.777
790.737
790.696
790.656
790.616
790.576
790.536
790.496
790.457
790.417
790.377
790.337
790.297
790.256
790.216
790.176
790.136
790.096
790.056
790.017
789.978
789.939
789.9
789.861
789.823
789.784
789.746
789.708
789.67
789.633
789.595
789.558
789.521
789.484
789.447
789.41
789.374
789.338
789.302
789.267
789.231
789.196
789.161
789.127
789.092
789.058
789.025
788.991
788.958
788.925
788.892
788.86
788.828
788.796
788.764
788.733
788.702
788.672
788.641
788.611
788.582
788.552
788.523
788.494
788.466
788.438
788.41
788.382
788.355
788.328
788.301
788.275
788.249
788.223
788.198
788.173
788.148
788.123
788.099
788.074
788.052
788.027
788.006
787.98
787.962
787.935
787.918
787.891
787.876
787.848
787.834
787.806
787.794
787.766
787.754
787.727
787.715
787.689
787.678
787.652
787.642
787.615
787.609
787.591
794.019
793.983
793.92
793.851
793.775
793.697
793.621
793.545
793.47
793.401
793.338
793.28
793.226
793.178
793.138
793.104
793.075
793.049
793.025
793.006
792.989
792.976
792.965
792.954
792.943
792.931
792.919
792.907
792.894
792.88
792.866
792.851
792.835
792.818
792.801
792.783
792.764
792.745
792.725
792.704
792.683
792.661
792.638
792.615
792.591
792.567
792.542
792.516
792.49
792.464
792.436
792.409
792.38
792.352
792.322
792.293
792.262
792.232
792.201
792.169
792.137
792.105
792.072
792.038
792.005
791.971
791.937
791.902
791.868
791.833
791.798
791.762
791.726
791.689
791.651
791.613
791.575
791.537
791.499
791.461
791.423
791.384
791.346
791.308
791.269
791.23
791.191
791.151
791.112
791.073
791.033
790.993
790.952
790.911
790.87
790.829
790.789
790.748
790.707
790.667
790.627
790.587
790.547
790.508
790.468
790.428
790.388
790.348
790.307
790.267
790.226
790.186
790.146
790.106
790.067
790.027
789.988
789.949
789.91
789.871
789.833
789.794
789.756
789.718
789.68
789.642
789.605
789.567
789.53
789.493
789.457
789.42
789.384
789.348
789.312
789.276
789.241
789.206
789.171
789.137
789.102
789.068
789.034
789.001
788.968
788.935
788.902
788.87
788.837
788.806
788.774
788.743
788.712
788.681
788.651
788.621
788.591
788.562
788.533
788.504
788.475
788.447
788.419
788.392
788.365
788.338
788.311
788.285
788.259
788.233
788.207
788.182
788.157
788.133
788.109
788.084
788.062
788.036
788.016
787.99
787.971
787.944
787.928
787.9
787.885
787.857
787.844
787.815
787.803
787.775
787.764
787.736
787.725
787.698
787.687
787.66
787.652
787.623
787.623
787.601
787.578
787.578
787.579
787.581
787.586
787.594
787.603
787.609
787.611
787.61
787.608
787.606
787.603
787.601
787.598
787.595
787.592
787.591
787.589
787.585
787.584
787.583
787.581
787.58
787.58
787.58
787.581
787.583
787.585
787.587
787.589
787.59
787.59
787.589
787.586
787.583
787.58
787.576
787.573
787.569
787.587
787.586
787.583
787.582
787.58
787.579
787.58
787.579
787.581
787.582
787.584
787.584
787.585
787.584
787.584
787.581
787.578
787.575
787.57
787.568
787.58
787.577
787.576
787.573
787.573
787.571
787.569
787.568
787.566
787.565
787.565
787.565
787.567
787.568
787.572
787.573
787.574
787.574
787.573
787.572
787.582
787.578
787.575
787.57
787.567
787.564
787.56
787.558
787.554
787.552
787.548
787.545
787.543
787.54
787.538
787.535
787.533
787.532
787.53
787.527
787.576
787.573
787.571
787.567
787.564
787.561
787.558
787.555
787.553
787.551
787.55
787.548
787.547
787.547
787.548
787.551
787.555
787.559
787.562
787.561
787.573
787.57
787.566
787.563
787.56
787.556
787.552
787.548
787.544
787.54
787.536
787.533
787.529
787.525
787.521
787.516
787.511
787.505
787.497
787.492
787.571
787.567
787.564
787.561
787.559
787.556
787.553
787.55
787.547
787.544
787.54
787.537
787.533
787.528
787.522
787.513
787.502
787.487
787.473
787.467
787.575
787.571
787.568
787.565
787.561
787.557
787.553
787.549
787.544
787.54
787.535
787.53
787.523
787.515
787.506
787.496
787.485
787.471
787.466
787.465
787.584
787.58
787.576
787.572
787.568
787.563
787.559
787.553
787.547
787.541
787.534
787.526
787.518
787.51
787.501
787.492
787.481
787.469
787.471
787.484
787.576
787.568
787.555
787.534
787.515
787.501
787.49
787.478
787.463
787.446
787.43
787.418
787.408
787.399
787.388
787.377
787.365
787.354
787.344
787.333
787.324
787.315
787.305
787.296
787.288
787.279
787.271
787.263
787.255
787.247
787.239
787.231
787.223
787.216
787.209
787.203
787.196
787.19
787.183
787.177
787.17
787.164
787.158
787.152
787.146
787.14
787.135
787.129
787.124
787.119
787.114
787.109
787.104
787.1
787.096
787.092
787.088
787.083
787.079
787.075
787.071
787.067
787.064
787.061
787.057
787.054
787.051
787.047
787.044
787.041
787.038
787.036
787.033
787.031
787.028
787.025
787.023
787.02
787.018
787.016
787.015
787.013
787.012
787.01
787.008
787.007
787.005
787.004
787.003
787.001
787
786.999
786.998
786.997
786.996
786.995
786.994
786.994
786.993
786.993
786.992
786.991
786.991
786.991
786.991
786.991
786.99
786.989
786.988
786.988
786.988
786.988
786.988
786.987
786.985
786.981
786.975
786.97
786.965
786.964
786.967
786.97
786.962
786.943
786.919
786.903
786.909
786.985
787.275
787.748
788.22
788.665
789.058
789.382
789.625
789.77
789.822
789.832
789.81
789.655
789.145
788.525
787.996
787.588
787.304
787.121
787.005
786.93
786.885
786.873
786.885
786.912
786.931
786.944
786.953
786.959
786.963
786.967
786.969
786.971
786.973
786.974
786.975
786.976
786.977
786.977
786.978
786.978
786.979
786.979
786.979
786.979
786.98
786.98
786.981
786.979
786.982
786.978
786.983
786.978
786.984
786.978
786.984
786.977
786.984
786.977
786.984
786.977
786.984
786.977
786.984
786.977
786.984
786.977
786.984
786.977
786.984
786.976
786.986
786.983
787.558
787.544
787.534
787.52
787.501
787.484
787.47
787.458
787.444
787.428
787.411
787.395
787.383
787.373
787.364
787.353
787.341
787.33
787.318
787.308
787.298
787.288
787.279
787.269
787.261
787.252
787.243
787.235
787.227
787.219
787.211
787.204
787.196
787.189
787.181
787.174
787.168
787.161
787.155
787.149
787.143
787.136
787.13
787.124
787.118
787.112
787.106
787.101
787.096
787.091
787.086
787.081
787.076
787.071
787.067
787.063
787.059
787.055
787.051
787.047
787.043
787.039
787.035
787.032
787.028
787.025
787.022
787.019
787.016
787.013
787.01
787.007
787.004
787.002
786.999
786.997
786.994
786.992
786.989
786.987
786.985
786.983
786.982
786.98
786.979
786.978
786.976
786.975
786.974
786.972
786.971
786.97
786.969
786.968
786.967
786.966
786.965
786.964
786.964
786.964
786.963
786.963
786.962
786.962
786.962
786.962
786.962
786.961
786.961
786.962
786.961
786.961
786.961
786.96
786.959
786.958
786.955
786.952
786.951
786.952
786.954
786.957
786.957
786.951
786.936
786.911
786.887
786.864
786.839
786.806
786.77
786.737
786.718
786.723
786.762
786.855
786.958
787.061
787.156
787.246
787.297
787.31
787.307
787.279
787.213
787.141
787.075
787.017
786.973
786.946
786.938
786.939
786.943
786.947
786.951
786.954
786.957
786.959
786.961
786.963
786.964
786.965
786.967
786.967
786.968
786.969
786.97
786.97
786.97
786.971
786.971
786.971
786.972
786.971
786.973
786.971
786.974
786.97
786.975
786.97
786.975
786.97
786.975
786.97
786.975
786.97
786.975
786.97
786.975
786.97
786.975
786.97
786.975
786.97
786.975
786.969
786.975
786.969
786.975
786.974
787.557
787.543
787.534
787.521
787.502
787.486
787.473
787.462
787.448
787.431
787.414
787.4
787.389
787.379
787.368
787.357
787.345
787.333
787.322
787.312
787.302
787.292
787.283
787.274
787.265
787.256
787.248
787.239
787.231
787.224
787.216
787.208
787.201
787.193
787.186
787.179
787.172
787.166
787.16
787.153
787.147
787.141
787.135
787.128
787.122
787.117
787.111
787.106
787.1
787.095
787.09
787.085
787.08
787.076
787.072
787.068
787.064
787.06
787.056
787.052
787.047
787.043
787.04
787.036
787.033
787.03
787.027
787.023
787.02
787.017
787.014
787.011
787.009
787.006
787.004
787.001
786.999
786.996
786.994
786.992
786.99
786.988
786.986
786.985
786.983
786.982
786.981
786.979
786.978
786.977
786.975
786.974
786.973
786.972
786.971
786.97
786.969
786.968
786.968
786.967
786.967
786.966
786.966
786.965
786.965
786.965
786.965
786.965
786.965
786.965
786.965
786.965
786.965
786.965
786.965
786.964
786.961
786.958
786.956
786.956
786.959
786.965
786.97
786.964
786.943
786.911
786.87
786.824
786.779
786.738
786.701
786.669
786.644
786.632
786.638
786.672
786.736
786.803
786.871
786.936
786.993
787.039
787.071
787.082
787.08
787.067
787.042
787.015
786.993
786.976
786.965
786.959
786.956
786.955
786.955
786.957
786.958
786.96
786.962
786.963
786.964
786.966
786.967
786.967
786.968
786.969
786.97
786.97
786.97
786.971
786.971
786.971
786.972
786.971
786.973
786.971
786.974
786.97
786.975
786.97
786.975
786.97
786.975
786.97
786.975
786.97
786.975
786.97
786.975
786.97
786.975
786.97
786.975
786.97
786.975
786.969
786.975
786.969
786.973
786.972
787.562
787.551
787.545
787.539
787.529
787.517
787.506
787.498
787.489
787.48
787.468
787.456
787.446
787.436
787.428
787.419
787.409
787.399
787.389
787.379
787.369
787.36
787.351
787.342
787.334
787.325
787.317
787.309
787.301
787.293
787.285
787.277
787.27
787.263
787.256
787.249
787.242
787.236
787.229
787.223
787.216
787.21
787.204
787.198
787.192
787.186
787.181
787.175
787.17
787.164
787.16
787.155
787.15
787.146
787.142
787.138
787.133
787.129
787.125
787.121
787.117
787.113
787.11
787.106
787.103
787.099
787.096
787.093
787.09
787.087
787.084
787.081
787.078
787.076
787.073
787.07
787.068
787.065
787.063
787.062
787.06
787.058
787.056
787.055
787.053
787.052
787.05
787.049
787.047
787.046
787.044
787.043
787.042
787.041
787.04
787.039
787.039
787.038
787.037
787.036
787.036
787.035
787.035
787.034
787.033
787.032
787.031
787.031
787.031
787.03
787.028
787.027
787.023
787.019
787.016
787.012
787.009
787.01
787.012
787.013
787.012
787.005
786.989
786.966
786.939
786.914
786.893
786.872
786.85
786.831
786.817
786.811
786.815
786.83
786.851
786.875
786.9
786.924
786.947
786.966
786.979
786.988
786.992
786.992
786.988
786.983
786.976
786.971
786.966
786.963
786.961
786.96
786.96
786.961
786.962
786.963
786.964
786.965
786.966
786.966
786.967
786.968
786.968
786.969
786.969
786.97
786.97
786.971
786.971
786.971
786.971
786.972
786.972
786.972
786.973
786.971
786.974
786.971
786.974
786.971
786.974
786.971
786.974
786.971
786.975
786.97
786.976
786.97
786.975
786.97
786.975
786.969
786.975
786.97
786.975
786.969
786.975
786.97
786.971
786.971
787.518
787.508
787.498
787.488
787.477
787.465
787.453
787.439
787.423
787.407
787.391
787.377
787.366
787.355
787.345
787.334
787.323
787.313
787.303
787.293
787.284
787.275
787.265
787.256
787.247
787.238
787.229
787.221
787.213
787.204
787.197
787.189
787.181
787.174
787.167
787.16
787.153
787.146
787.139
787.133
787.127
787.121
787.115
787.109
787.103
787.098
787.092
787.087
787.081
787.076
787.071
787.066
787.062
787.057
787.052
787.048
787.044
787.039
787.035
787.032
787.028
787.024
787.021
787.017
787.014
787.01
787.007
787.004
787.001
786.998
786.995
786.993
786.99
786.987
786.985
786.982
786.98
786.978
786.976
786.973
786.971
786.969
786.968
786.966
786.964
786.963
786.961
786.96
786.959
786.958
786.957
786.956
786.955
786.954
786.954
786.953
786.952
786.952
786.951
786.951
786.951
786.95
786.95
786.95
786.95
786.95
786.95
786.95
786.95
786.95
786.95
786.95
786.951
786.952
786.952
786.952
786.952
786.954
786.954
786.953
786.952
786.954
786.958
786.961
786.961
786.957
786.948
786.937
786.925
786.912
786.901
786.893
786.89
786.89
786.895
786.902
786.91
786.919
786.928
786.936
786.942
786.947
786.95
786.953
786.955
786.957
786.958
786.959
786.96
786.96
786.961
786.962
786.963
786.963
786.964
786.965
786.966
786.966
786.967
786.968
786.968
786.969
786.969
786.969
786.97
786.97
786.97
786.971
786.971
786.971
786.972
786.972
786.972
786.972
786.972
786.972
786.972
786.973
786.971
786.973
786.972
786.972
786.974
786.971
786.974
786.971
786.973
786.973
786.971
786.974
786.97
786.974
786.971
786.971
786.974
786.971
786.972
786.972
786.972
786.971
787.555
787.567
787.579
787.589
787.596
787.6
787.601
787.6
787.598
787.595
787.59
787.584
787.577
787.569
787.56
787.551
787.542
787.533
787.523
787.514
787.505
787.496
787.487
787.478
787.47
787.462
787.454
787.446
787.437
787.429
787.422
787.414
787.407
787.4
787.393
787.387
787.38
787.373
787.366
787.36
787.353
787.347
787.341
787.334
787.328
787.323
787.317
787.312
787.307
787.302
787.297
787.292
787.287
787.283
787.278
787.274
787.269
787.265
787.261
787.257
787.253
787.249
787.245
787.241
787.238
787.234
787.231
787.227
787.224
787.221
787.218
787.215
787.212
787.21
787.207
787.205
787.202
787.2
787.197
787.195
787.192
787.19
787.187
787.185
787.182
787.179
787.176
787.173
787.17
787.167
787.164
787.162
787.159
787.156
787.152
787.148
787.145
787.141
787.137
787.134
787.131
787.128
787.125
787.121
787.116
787.111
787.105
787.1
787.094
787.088
787.083
787.08
787.078
787.078
787.077
787.076
787.073
787.065
787.054
787.04
787.023
787.003
786.982
786.963
786.945
786.931
786.919
786.909
786.901
786.894
786.89
786.887
786.887
786.888
786.891
786.896
786.904
786.914
786.925
786.936
786.945
786.953
786.958
786.962
786.965
786.967
786.968
786.969
786.969
786.969
786.97
786.97
786.97
786.97
786.97
786.97
786.97
786.97
786.97
786.97
786.97
786.97
786.97
786.971
786.971
786.971
786.971
786.971
786.971
786.972
786.971
786.972
786.971
786.973
786.971
786.973
786.971
786.974
786.971
786.974
786.97
786.975
786.97
786.975
786.97
786.975
786.97
786.975
786.97
786.975
786.97
786.975
786.97
786.975
786.97
786.975
786.969
786.974
786.97
786.974
787.478
787.458
787.437
787.419
787.403
787.389
787.376
787.363
787.349
787.336
787.322
787.308
787.295
787.282
787.269
787.257
787.244
787.232
787.221
787.21
787.199
787.189
787.178
787.168
787.158
787.149
787.139
787.13
787.121
787.111
787.103
787.094
787.086
787.078
787.07
787.062
787.055
787.048
787.041
787.034
787.028
787.022
787.016
787.01
787.004
786.998
786.992
786.987
786.982
786.977
786.972
786.967
786.963
786.958
786.954
786.95
786.945
786.941
786.937
786.933
786.93
786.926
786.923
786.919
786.916
786.912
786.909
786.906
786.903
786.9
786.898
786.895
786.892
786.89
786.887
786.885
786.882
786.88
786.878
786.876
786.874
786.872
786.87
786.869
786.867
786.865
786.864
786.862
786.861
786.86
786.859
786.858
786.857
786.856
786.855
786.854
786.853
786.852
786.852
786.851
786.85
786.85
786.849
786.849
786.848
786.848
786.848
786.847
786.847
786.846
786.846
786.847
786.847
786.847
786.846
786.846
786.848
786.849
786.849
786.848
786.849
786.851
786.853
786.856
786.858
786.859
786.859
786.86
786.863
786.873
786.884
786.896
786.899
786.897
786.884
786.857
786.836
786.828
786.831
786.848
786.871
786.894
786.913
786.928
786.94
786.949
786.955
786.96
786.963
786.965
786.967
786.968
786.969
786.969
786.97
786.97
786.97
786.97
786.97
786.97
786.97
786.97
786.971
786.971
786.971
786.971
786.971
786.971
786.971
786.972
786.971
786.972
786.971
786.973
786.971
786.973
786.971
786.974
786.971
786.974
786.97
786.975
786.97
786.975
786.97
786.975
786.97
786.975
786.97
786.975
786.97
786.975
786.97
786.975
786.97
786.974
786.97
786.972
786.973
786.973
787.459
787.467
787.479
787.495
787.511
787.526
787.538
787.548
787.555
787.56
787.563
787.563
787.561
787.557
787.551
787.543
787.535
787.526
787.517
787.508
787.499
787.489
787.481
787.472
787.463
787.454
787.446
787.438
787.43
787.422
787.414
787.406
787.398
787.391
787.384
787.378
787.371
787.364
787.358
787.351
787.344
787.338
787.331
787.325
787.318
787.312
787.306
787.3
787.294
787.289
787.283
787.278
787.273
787.267
787.262
787.256
787.251
787.246
787.241
787.236
787.232
787.227
787.223
787.218
787.214
787.21
787.207
787.203
787.2
787.196
787.193
787.19
787.187
787.184
787.182
787.18
787.178
787.177
787.175
787.173
787.172
787.17
787.168
787.166
787.163
787.161
787.158
787.155
787.152
787.15
787.146
787.143
787.14
787.137
787.135
787.132