/*--------------------------------*- C++ -*----------------------------------*\
| =========                 |                                                 |
| \\      /  F ield         | OpenFOAM: The Open Source CFD Toolbox           |
|  \\    /   O peration     | Version:  3.0.x                                 |
|   \\  /    A nd           | Web:      www.OpenFOAM.org                      |
|    \\/     M anipulation  |                                                 |
\*---------------------------------------------------------------------------*/
FoamFile
{
    version     2.0;
    format      ascii;
    class       surfaceScalarField;
    location    "0.52005";
    object      phi;
}
// * * * * * * * * * * * * * * * * * * * * * * * * * * * * * * * * * * * * * //

dimensions      [1 0 -1 0 0 0 0];

internalField   nonuniform List<scalar> 
53800
(
1.98668
0.00102993
1.98064
0.000701139
1.9746
0.000695788
1.96853
0.000698284
1.96245
0.000698954
1.95637
0.000699503
1.95027
0.000699841
1.94416
0.000699962
1.93804
0.000700072
1.93191
0.000700118
1.92578
0.000700145
1.91963
0.000700163
1.91348
0.000700182
1.90732
0.000700206
1.90114
0.000700237
1.89496
0.000700277
1.88877
0.000700329
1.88256
0.000700392
1.87635
0.000700466
1.87012
0.000700549
1.86388
0.000700642
1.85763
0.000700746
1.85137
0.000700862
1.84509
0.00070099
1.8388
0.000701128
1.8325
0.000701276
1.82618
0.000701432
1.81985
0.0007016
1.81351
0.00070178
1.80715
0.000701972
1.80077
0.000702176
1.79438
0.00070239
1.78798
0.000702613
1.78156
0.000702841
1.77512
0.000703084
1.76867
0.000703333
1.7622
0.000703601
1.75571
0.00070388
1.74921
0.000704169
1.74269
0.00070447
1.73615
0.000704788
1.7296
0.000705123
1.72303
0.000705469
1.71643
0.000705819
1.70982
0.00070617
1.70319
0.000706534
1.69655
0.000706915
1.68988
0.000707323
1.68319
0.000707749
1.67649
0.000708189
1.66976
0.000708637
1.66301
0.000709087
1.65624
0.000709547
1.64945
0.000710019
1.64264
0.000710495
1.63581
0.000710957
1.62895
0.000711395
1.62208
0.000711802
1.61518
0.000712178
1.60826
0.000712509
1.60132
0.000712767
1.59435
0.00071292
1.58736
0.000712913
1.58035
0.000712675
1.57332
0.000712136
1.56626
0.000711217
1.55919
0.000709808
1.55208
0.000707769
1.54496
0.000704946
1.53782
0.000701181
1.53065
0.000696319
1.52347
0.000690198
1.51627
0.000682649
1.50906
0.000673496
1.50183
0.000662568
1.49459
0.000649714
1.48734
0.000634822
1.48007
0.000617822
1.4728
0.000598695
1.46553
0.000577474
1.45825
0.000554252
1.45097
0.000529172
1.44369
0.000502433
1.43641
0.000474281
1.42914
0.000445009
1.42186
0.000414944
1.41459
0.000384435
1.40732
0.000353842
1.40006
0.000323523
1.3928
0.000293821
1.38554
0.000265053
1.37828
0.000237501
1.37102
0.000211406
1.36375
0.000186959
1.35648
0.000164304
1.3492
0.000143534
1.34192
0.000124691
1.33462
0.000107774
1.32732
9.27428e-05
1.32
7.95208e-05
1.31266
6.80064e-05
1.30531
5.80772e-05
1.29794
4.95982e-05
1.29055
4.24267e-05
1.28313
3.64172e-05
1.2757
3.14268e-05
1.26825
2.73191e-05
1.26077
2.39661e-05
1.25328
2.12517e-05
1.24576
1.90696e-05
1.23821
1.7327e-05
1.23065
1.59425e-05
1.22306
1.48476e-05
1.21545
1.39839e-05
1.20781
1.33027e-05
1.20016
1.27629e-05
1.19248
1.23325e-05
1.18478
1.19845e-05
1.17706
1.16988e-05
1.16932
1.1459e-05
1.16155
1.12527e-05
1.15377
1.10696e-05
1.14597
1.09023e-05
1.13815
1.07447e-05
1.13031
1.05927e-05
1.12246
1.04433e-05
1.11458
1.02952e-05
1.10669
1.01466e-05
1.09879
9.99696e-06
1.09087
9.84487e-06
1.08293
9.6899e-06
1.07498
9.53064e-06
1.06702
9.36744e-06
1.05905
9.20034e-06
1.05106
9.03002e-06
1.04306
8.85618e-06
1.03505
8.67889e-06
1.02703
8.49797e-06
1.019
8.31351e-06
1.01097
8.12497e-06
1.00292
7.93227e-06
0.994869
7.73565e-06
0.986811
7.53562e-06
0.978746
7.33188e-06
0.970677
7.12445e-06
0.962604
6.91331e-06
0.954527
6.69878e-06
0.946448
6.48111e-06
0.938366
6.25979e-06
0.930284
6.03453e-06
0.922201
5.80604e-06
0.914118
5.57443e-06
0.906036
5.33966e-06
0.897957
5.10161e-06
0.889879
4.85994e-06
0.881805
4.61515e-06
0.873736
4.36713e-06
0.865671
4.11607e-06
0.857611
3.86153e-06
0.849558
3.60394e-06
0.841512
3.34349e-06
0.833474
3.08055e-06
0.825445
2.81463e-06
0.817425
2.54567e-06
0.809415
2.27312e-06
0.801416
1.99782e-06
0.793429
1.72047e-06
0.785454
1.44083e-06
0.777492
1.15837e-06
0.769544
8.72205e-07
0.761611
5.82811e-07
0.753693
2.91224e-07
0.745791
-2.88492e-09
0.737906
-2.98918e-07
0.730038
-5.97858e-07
0.722189
-8.98617e-07
0.714358
-1.20507e-06
0.706547
-1.50771e-06
0.698756
-1.82412e-06
0.690987
-2.12141e-06
0.683239
-2.45362e-06
0.675513
-2.74333e-06
0.66781
-3.08347e-06
0.660132
-3.39764e-06
0.652477
-3.67606e-06
0.644848
-4.12516e-06
0.637243
-4.20476e-06
0.629666
-4.91447e-06
0.622115
-4.71397e-06
0.614593
-5.68703e-06
0.607097
-5.07992e-06
0.599631
-5.94408e-06
0.59219
-2.58456e-06
0.58477
7.0246e-06
0.577323
6.3905e-05
0.569638
0.000331582
0.560704
0.00161479
0.546194
0.00721847
0.500461
0.0384817
0.0945254
0.398718
2.28341
0.000993956
2.27729
0.0006884
2.27116
0.000676778
2.26501
0.000681195
2.25885
0.000682202
2.25267
0.000683018
2.24649
0.000683717
2.24029
0.000684206
2.23408
0.000684674
2.22786
0.000685081
2.22163
0.000685468
2.21539
0.000685847
2.20914
0.000686227
2.20288
0.000686611
2.1966
0.000687002
2.19031
0.000687403
2.18402
0.000687814
2.1777
0.000688236
2.17138
0.000688668
2.16504
0.00068911
2.15869
0.000689562
2.15232
0.000690024
2.14594
0.000690498
2.13955
0.000690984
2.13314
0.000691478
2.12671
0.000691984
2.12027
0.000692497
2.11381
0.000693021
2.10733
0.000693558
2.10084
0.000694105
2.09433
0.000694665
2.08781
0.000695236
2.08126
0.000695815
2.0747
0.000696399
2.06812
0.000696998
2.06152
0.000697603
2.0549
0.000698227
2.04826
0.000698862
2.04161
0.000699507
2.03493
0.000700164
2.02823
0.000700839
2.02151
0.000701531
2.01478
0.000702233
2.00802
0.000702941
2.00124
0.00070365
1.99443
0.000704372
1.98761
0.000705111
1.98076
0.000705877
1.9739
0.000706661
1.967
0.00070746
1.96009
0.000708266
1.95315
0.000709073
1.94619
0.000709889
1.93921
0.000710716
1.9322
0.000711543
1.92516
0.000712351
1.9181
0.00071313
1.91102
0.000713866
1.90391
0.000714556
1.89677
0.000715181
1.88961
0.000715703
1.88243
0.00071608
1.87522
0.000716243
1.86798
0.000716108
1.86071
0.000715586
1.85342
0.000714576
1.8461
0.000712944
1.83875
0.000710527
1.83138
0.000707145
1.82398
0.000702615
1.81655
0.00069676
1.80909
0.000689399
1.8016
0.000680349
1.79409
0.00066943
1.78656
0.000656473
1.77899
0.000641347
1.7714
0.000623965
1.76378
0.000604299
1.75613
0.000582383
1.74846
0.000558313
1.74075
0.000532252
1.73302
0.000504421
1.72526
0.000475094
1.71748
0.000444597
1.70966
0.00041329
1.70181
0.000381561
1.69394
0.000349807
1.68603
0.000318422
1.67809
0.000287778
1.67013
0.000258217
1.66212
0.000230038
1.65409
0.00020349
1.64602
0.000178769
1.63792
0.000156011
1.62979
0.000135297
1.62162
0.000116654
1.61342
0.000100061
1.60519
8.54526e-05
1.59692
7.2731e-05
1.58862
6.17698e-05
1.58029
5.24245e-05
1.57192
4.45395e-05
1.56352
3.79548e-05
1.55509
3.25115e-05
1.54663
2.80556e-05
1.53813
2.44425e-05
1.52961
2.15396e-05
1.52105
1.92272e-05
1.51247
1.74005e-05
1.50385
1.59669e-05
1.49521
1.48482e-05
1.48654
1.3978e-05
1.47784
1.33026e-05
1.46911
1.27773e-05
1.46036
1.23663e-05
1.45158
1.20399e-05
1.44277
1.17763e-05
1.43394
1.15572e-05
1.42509
1.13702e-05
1.41621
1.1205e-05
1.4073
1.10546e-05
1.39838
1.09131e-05
1.38943
1.07765e-05
1.38046
1.06418e-05
1.37147
1.05067e-05
1.36245
1.037e-05
1.35342
1.02319e-05
1.34437
1.00912e-05
1.3353
9.94813e-06
1.32621
9.80169e-06
1.31711
9.65174e-06
1.30799
9.49718e-06
1.29885
9.33847e-06
1.2897
9.17579e-06
1.28054
9.00987e-06
1.27136
8.84042e-06
1.26217
8.66753e-06
1.25297
8.49104e-06
1.24375
8.31102e-06
1.23453
8.12697e-06
1.2253
7.93882e-06
1.21605
7.74681e-06
1.20681
7.55146e-06
1.19755
7.35245e-06
1.18829
7.14981e-06
1.17902
6.94353e-06
1.16975
6.73391e-06
1.16048
6.52119e-06
1.1512
6.30485e-06
1.14192
6.08467e-06
1.13265
5.8613e-06
1.12337
5.63488e-06
1.11409
5.40531e-06
1.10481
5.17253e-06
1.09554
4.93612e-06
1.08627
4.69672e-06
1.07701
4.45405e-06
1.06775
4.20848e-06
1.05849
3.95937e-06
1.04925
3.70737e-06
1.04001
3.45246e-06
1.03078
3.19522e-06
1.02156
2.93486e-06
1.01235
2.67162e-06
1.00315
2.40478e-06
0.99396
2.1353e-06
0.984787
1.86383e-06
0.975627
1.59002e-06
0.966482
1.31348e-06
0.957353
1.03323e-06
0.94824
7.49878e-07
0.939145
4.64373e-07
0.930067
1.76748e-07
0.921009
-1.12581e-07
0.91197
-4.04059e-07
0.902952
-6.98696e-07
0.893955
-9.96875e-07
0.88498
-1.29502e-06
0.876028
-1.5982e-06
0.8671
-1.90222e-06
0.858197
-2.19754e-06
0.849319
-2.53953e-06
0.840467
-2.76035e-06
0.831642
-3.26304e-06
0.822844
-3.21871e-06
0.814075
-4.12558e-06
0.805334
-3.57017e-06
0.796625
-5.05085e-06
0.787944
-3.92523e-06
0.779297
-5.91345e-06
0.770679
-3.95478e-06
0.762096
-5.68012e-06
0.75354
2.44693e-06
0.745006
2.4912e-05
0.736433
0.000156509
0.72755
0.000767959
0.717071
0.00368448
0.699184
0.0167315
0.646564
0.0827692
0.196999
0.535792
2.62295
0.000952667
2.61592
0.000671951
2.60888
0.000653623
2.60182
0.000659558
2.59475
0.000660577
2.58766
0.000661273
2.58055
0.000661959
2.57343
0.000662445
2.56631
0.000662899
2.55917
0.000663294
2.55201
0.00066367
2.54485
0.000664039
2.53768
0.00066441
2.53049
0.000664784
2.52329
0.000665165
2.51607
0.000665555
2.50885
0.000665955
2.5016
0.000666367
2.49435
0.000666789
2.48707
0.00066722
2.47979
0.00066766
2.47248
0.000668111
2.46516
0.000668574
2.45783
0.000669048
2.45047
0.00066953
2.4431
0.000670024
2.43571
0.000670525
2.42831
0.000671037
2.42088
0.000671561
2.41344
0.000672096
2.40597
0.000672643
2.39849
0.0006732
2.39099
0.000673767
2.38346
0.000674337
2.37592
0.000674922
2.36836
0.000675514
2.36077
0.000676124
2.35316
0.000676744
2.34553
0.000677375
2.33788
0.000678018
2.3302
0.000678678
2.3225
0.000679354
2.31478
0.000680041
2.30704
0.000680733
2.29927
0.000681427
2.29147
0.000682133
2.28365
0.000682857
2.27581
0.000683606
2.26794
0.000684373
2.26005
0.000685154
2.25213
0.000685942
2.24418
0.000686732
2.23621
0.000687531
2.22821
0.000688339
2.22018
0.000689148
2.21212
0.00068994
2.20404
0.000690702
2.19592
0.000691424
2.18778
0.000692101
2.17961
0.000692714
2.17141
0.000693228
2.16318
0.0006936
2.15493
0.000693764
2.14664
0.000693638
2.13832
0.000693136
2.12997
0.00069216
2.12158
0.000690578
2.11317
0.000688234
2.10472
0.000684951
2.09624
0.000680554
2.08773
0.000674869
2.07919
0.000667721
2.07061
0.000658934
2.062
0.000648333
2.05335
0.000635754
2.04467
0.000621072
2.03596
0.000604203
2.02721
0.000585122
2.01842
0.00056386
2.0096
0.000540516
2.00075
0.000515245
1.99186
0.000488264
1.98293
0.00045984
1.97396
0.000430288
1.96496
0.000399959
1.95592
0.000369227
1.94685
0.000338478
1.93773
0.000308091
1.92858
0.000278428
1.9194
0.000249817
1.91017
0.000222547
1.90091
0.00019686
1.89161
0.000172942
1.88228
0.000150925
1.87291
0.000130888
1.8635
0.000112855
1.85405
9.68046e-05
1.84457
8.26751e-05
1.83506
7.03702e-05
1.8255
5.9768e-05
1.81591
5.07287e-05
1.80629
4.31017e-05
1.79663
3.67321e-05
1.78693
3.14665e-05
1.7772
2.71558e-05
1.76744
2.36603e-05
1.75764
2.08517e-05
1.74781
1.86143e-05
1.73794
1.68467e-05
1.72804
1.54594e-05
1.71811
1.43767e-05
1.70815
1.35345e-05
1.69816
1.28807e-05
1.68813
1.23722e-05
1.67807
1.19743e-05
1.66799
1.16583e-05
1.65787
1.14031e-05
1.64773
1.11909e-05
1.63756
1.10098e-05
1.62736
1.08498e-05
1.61713
1.07042e-05
1.60688
1.05671e-05
1.5966
1.04349e-05
1.58629
1.03043e-05
1.57596
1.01736e-05
1.56561
1.00412e-05
1.55524
9.90746e-06
1.54484
9.77128e-06
1.53442
9.63271e-06
1.52398
9.4909e-06
1.51352
9.34572e-06
1.50305
9.19607e-06
1.49255
9.04241e-06
1.48204
8.88491e-06
1.47151
8.72427e-06
1.46097
8.5602e-06
1.45041
8.39281e-06
1.43984
8.22193e-06
1.42926
8.04765e-06
1.41867
7.86945e-06
1.40806
7.68728e-06
1.39745
7.50138e-06
1.38682
7.31224e-06
1.37619
7.11956e-06
1.36555
6.92336e-06
1.35491
6.72364e-06
1.34426
6.5207e-06
1.33361
6.31474e-06
1.32295
6.10529e-06
1.3123
5.89209e-06
1.30164
5.67582e-06
1.29098
5.45661e-06
1.28032
5.23432e-06
1.26967
5.00896e-06
1.25902
4.78005e-06
1.24837
4.5483e-06
1.23772
4.31333e-06
1.22709
4.07555e-06
1.21646
3.83438e-06
1.20584
3.59038e-06
1.19522
3.34358e-06
1.18462
3.09453e-06
1.17403
2.84245e-06
1.16345
2.58756e-06
1.15288
2.32922e-06
1.14233
2.0683e-06
1.13179
1.80547e-06
1.12127
1.54032e-06
1.11077
1.27265e-06
1.10028
1.00123e-06
1.08981
7.26959e-07
1.07937
4.50433e-07
1.06894
1.72e-07
1.05853
-1.08321e-07
1.04815
-3.89657e-07
1.03779
-6.76391e-07
1.02746
-9.6254e-07
1.01715
-1.25635e-06
1.00687
-1.53894e-06
0.996611
-1.85645e-06
0.986384
-2.09615e-06
0.976186
-2.5147e-06
0.966018
-2.57221e-06
0.955881
-3.32085e-06
0.945775
-2.86985e-06
0.935702
-4.33474e-06
0.925662
-3.0189e-06
0.915658
-5.40864e-06
0.905686
-3.19458e-06
0.895753
-6.3821e-06
0.885854
-2.84269e-06
0.875995
-5.70267e-06
0.866168
7.37074e-06
0.856369
4.14029e-05
0.84654
0.000243671
0.836429
0.00117667
0.824813
0.00564073
0.806331
0.0255951
0.752288
0.12724
0.305421
0.634332
3.01298
0.000906496
3.00491
0.00065228
2.99682
0.00062728
2.98871
0.000634661
2.98058
0.000635736
2.97244
0.000636297
2.96428
0.000636961
2.9561
0.000637441
2.94791
0.000637877
2.93971
0.000638257
2.93149
0.000638619
2.92327
0.000638974
2.91502
0.00063933
2.90677
0.000639691
2.8985
0.000640057
2.89021
0.000640432
2.88191
0.000640818
2.87359
0.000641214
2.86525
0.00064162
2.8569
0.000642034
2.84853
0.000642458
2.84014
0.000642892
2.83173
0.000643337
2.8233
0.000643793
2.81486
0.000644258
2.80639
0.000644733
2.7979
0.000645214
2.78939
0.000645707
2.78086
0.000646212
2.77231
0.000646727
2.76374
0.000647253
2.75514
0.000647789
2.74652
0.000648334
2.73788
0.000648883
2.72922
0.000649447
2.72053
0.000650015
2.71181
0.000650602
2.70307
0.000651199
2.69431
0.000651806
2.68552
0.000652426
2.6767
0.000653061
2.66786
0.000653711
2.65899
0.000654372
2.65009
0.000655037
2.64117
0.000655705
2.63221
0.000656385
2.62323
0.000657082
2.61422
0.000657803
2.60518
0.000658541
2.59612
0.000659293
2.58702
0.000660051
2.57789
0.000660811
2.56873
0.00066158
2.55954
0.000662358
2.55032
0.000663136
2.54107
0.000663898
2.53178
0.000664631
2.52246
0.000665327
2.51311
0.000665979
2.50372
0.00066657
2.49431
0.000667065
2.48485
0.000667424
2.47537
0.000667582
2.46585
0.000667463
2.45629
0.000666982
2.4467
0.000666045
2.43707
0.000664526
2.4274
0.000662274
2.4177
0.000659119
2.40796
0.000654894
2.39818
0.000649432
2.38837
0.000642563
2.37852
0.000634119
2.36862
0.000623929
2.35869
0.000611839
2.34872
0.000597726
2.33871
0.00058151
2.32866
0.000563166
2.31857
0.000542726
2.30844
0.00052028
2.29827
0.000495982
2.28805
0.000470037
2.27779
0.000442702
2.2675
0.00041428
2.25715
0.000385108
2.24677
0.000355546
2.23635
0.000325965
2.22588
0.00029673
2.21537
0.000268187
2.20481
0.000240654
2.19422
0.000214409
2.18358
0.000189683
2.1729
0.000166658
2.16218
0.000145459
2.15141
0.000126164
2.1406
0.000108796
2.12975
9.33349e-05
2.11886
7.97217e-05
2.10793
6.78643e-05
2.09695
5.76456e-05
2.08594
4.89313e-05
2.07488
4.15769e-05
2.06379
3.54337e-05
2.05265
3.03538e-05
2.04147
2.61941e-05
2.03026
2.28201e-05
2.019
2.01084e-05
2.00771
1.79476e-05
1.99637
1.624e-05
1.985
1.48993e-05
1.9736
1.38527e-05
1.96215
1.30384e-05
1.95067
1.24061e-05
1.93916
1.19142e-05
1.9276
1.15292e-05
1.91602
1.12236e-05
1.9044
1.09766e-05
1.89275
1.07715e-05
1.88106
1.05965e-05
1.86934
1.0442e-05
1.8576
1.03014e-05
1.84582
1.01692e-05
1.83401
1.00417e-05
1.82217
9.9159e-06
1.81031
9.78994e-06
1.79842
9.66252e-06
1.7865
9.53374e-06
1.77456
9.40265e-06
1.76259
9.26929e-06
1.7506
9.1328e-06
1.73859
8.99308e-06
1.72655
8.84908e-06
1.7145
8.70122e-06
1.70242
8.54966e-06
1.69033
8.39508e-06
1.67822
8.2372e-06
1.66609
8.07613e-06
1.65395
7.9117e-06
1.64179
7.74399e-06
1.62962
7.57252e-06
1.61744
7.39723e-06
1.60525
7.21835e-06
1.59304
7.03635e-06
1.58083
6.85095e-06
1.56861
6.66216e-06
1.55638
6.46996e-06
1.54415
6.27468e-06
1.53192
6.0765e-06
1.51968
5.87495e-06
1.50743
5.6698e-06
1.49519
5.4617e-06
1.48295
5.25077e-06
1.47071
5.03686e-06
1.45847
4.82003e-06
1.44623
4.59973e-06
1.434
4.37676e-06
1.42177
4.15063e-06
1.40956
3.92185e-06
1.39735
3.68978e-06
1.38514
3.455e-06
1.37295
3.2175e-06
1.36078
2.97787e-06
1.34861
2.7353e-06
1.33646
2.49002e-06
1.32432
2.24145e-06
1.3122
1.99038e-06
1.30009
1.73748e-06
1.28801
1.4823e-06
1.27594
1.22479e-06
1.26389
9.63533e-07
1.25187
6.99682e-07
1.23987
4.33425e-07
1.22789
1.65841e-07
1.21594
-1.04235e-07
1.20401
-3.74188e-07
1.19211
-6.51573e-07
1.18024
-9.24101e-07
1.1684
-1.21259e-06
1.15659
-1.47213e-06
1.14481
-1.80412e-06
1.13306
-1.98141e-06
1.12135
-2.48589e-06
1.10966
-2.35823e-06
1.09802
-3.38682e-06
1.08641
-2.47085e-06
1.07484
-4.57563e-06
1.06331
-2.38572e-06
1.05182
-5.82248e-06
1.04036
-2.3528e-06
1.02895
-6.92655e-06
1.01758
-1.56067e-06
1.00626
-5.74419e-06
0.994968
1.29973e-05
0.983713
6.01371e-05
0.972422
0.000342855
0.960813
0.00164146
0.947496
0.00786177
0.926567
0.0354743
0.866947
0.175865
0.423969
0.737449
3.461
0.000855073
3.45173
0.00062872
3.44244
0.000597329
3.43312
0.000606019
3.42378
0.000607194
3.41443
0.000607611
3.40506
0.000608247
3.39567
0.000608718
3.38626
0.000609134
3.37684
0.000609496
3.3674
0.000609842
3.35795
0.000610182
3.34848
0.000610522
3.339
0.000610866
3.3295
0.000611216
3.31998
0.000611574
3.31044
0.000611942
3.30088
0.00061232
3.29131
0.000612707
3.28171
0.000613103
3.2721
0.000613508
3.26246
0.000613923
3.2528
0.000614348
3.24312
0.000614783
3.23342
0.000615227
3.22369
0.00061568
3.21394
0.00061614
3.20417
0.000616611
3.19437
0.000617093
3.18455
0.000617584
3.1747
0.000618087
3.16483
0.000618599
3.15493
0.00061912
3.145
0.000619644
3.13505
0.000620182
3.12506
0.000620725
3.11505
0.000621285
3.10501
0.000621855
3.09495
0.000622435
3.08485
0.000623027
3.07472
0.000623633
3.06456
0.000624255
3.05437
0.000624886
3.04415
0.00062552
3.0339
0.000626158
3.02362
0.000626807
3.0133
0.000627473
3.00295
0.000628162
2.99257
0.000628867
2.98215
0.000629584
2.9717
0.000630309
2.96122
0.000631035
2.9507
0.000631769
2.94014
0.000632512
2.92955
0.000633255
2.91892
0.000633981
2.90825
0.000634682
2.89755
0.000635347
2.8868
0.000635971
2.87602
0.000636535
2.8652
0.000637009
2.85435
0.000637352
2.84345
0.000637505
2.83251
0.000637392
2.82154
0.000636934
2.81052
0.000636042
2.79946
0.000634595
2.78835
0.000632448
2.77721
0.000629441
2.76602
0.000625413
2.75479
0.000620205
2.74351
0.000613656
2.7322
0.000605603
2.72083
0.000595886
2.70943
0.000584355
2.69797
0.000570893
2.68647
0.000555426
2.67493
0.000537927
2.66334
0.000518427
2.6517
0.000497012
2.64001
0.000473828
2.62828
0.000449071
2.6165
0.000422985
2.60467
0.00039586
2.59279
0.000368015
2.58086
0.000339796
2.56889
0.000311556
2.55686
0.000283643
2.54479
0.000256387
2.53267
0.000230092
2.52049
0.000205025
2.50827
0.000181405
2.49601
0.000159406
2.48369
0.00013915
2.47132
0.000120709
2.45891
0.000104107
2.44644
8.9325e-05
2.43393
7.63072e-05
2.42137
6.49661e-05
2.40877
5.51901e-05
2.39611
4.68515e-05
2.38341
3.98124e-05
2.37067
3.3931e-05
2.35787
2.90662e-05
2.34503
2.50816e-05
2.33215
2.18486e-05
2.31922
1.92494e-05
2.30625
1.71775e-05
2.29323
1.55396e-05
2.28017
1.42532e-05
2.26707
1.32487e-05
2.25392
1.24668e-05
2.24073
1.18596e-05
2.2275
1.1387e-05
2.21424
1.10172e-05
2.20093
1.07236e-05
2.18758
1.04863e-05
2.17419
1.02894e-05
2.16077
1.01214e-05
2.14731
9.97328e-06
2.13382
9.83858e-06
2.12029
9.71194e-06
2.10672
9.58994e-06
2.09313
9.46964e-06
2.0795
9.34922e-06
2.06584
9.22745e-06
2.05215
9.10439e-06
2.03843
8.97918e-06
2.02468
8.85178e-06
2.01091
8.72142e-06
1.99711
8.58797e-06
1.98329
8.45045e-06
1.96944
8.30924e-06
1.95557
8.16453e-06
1.94168
8.0169e-06
1.92777
7.86614e-06
1.91384
7.71232e-06
1.89989
7.55531e-06
1.88592
7.39514e-06
1.87194
7.2314e-06
1.85795
7.06401e-06
1.84394
6.89319e-06
1.82993
6.71939e-06
1.8159
6.54235e-06
1.80186
6.36207e-06
1.78782
6.17853e-06
1.77377
5.99206e-06
1.75971
5.80279e-06
1.74565
5.61034e-06
1.73159
5.41443e-06
1.71752
5.21571e-06
1.70346
5.0143e-06
1.6894
4.81e-06
1.67534
4.60297e-06
1.66128
4.39256e-06
1.64723
4.17968e-06
1.63319
3.9637e-06
1.61915
3.74526e-06
1.60513
3.52364e-06
1.59111
3.29943e-06
1.57711
3.07264e-06
1.56312
2.84383e-06
1.54914
2.61217e-06
1.53519
2.37794e-06
1.52124
2.1406e-06
1.50732
1.90081e-06
1.49341
1.65934e-06
1.47953
1.4156e-06
1.46567
1.16979e-06
1.45183
9.20201e-07
1.43802
6.68346e-07
1.42424
4.13942e-07
1.41048
1.58625e-07
1.39675
-9.96388e-08
1.38305
-3.56693e-07
1.36938
-6.23058e-07
1.35574
-8.80118e-07
1.34214
-1.16216e-06
1.32857
-1.39583e-06
1.31504
-1.7435e-06
1.30154
-1.85053e-06
1.28809
-2.45187e-06
1.27467
-2.11353e-06
1.26129
-3.46206e-06
1.24796
-2.01237e-06
1.23467
-4.85412e-06
1.22142
-1.65485e-06
1.20822
-6.30378e-06
1.19506
-1.37735e-06
1.18196
-7.56488e-06
1.16889
-7.3107e-08
1.15588
-5.82778e-06
1.14292
1.94358e-05
1.12999
8.13789e-05
1.11702
0.000455617
1.10369
0.00216974
1.08842
0.0103883
1.06455
0.0466552
0.997781
0.229999
0.555082
0.854089
3.97565
0.000797965
3.965
0.000600484
3.95433
0.000563271
3.94362
0.000573077
3.93289
0.000574396
3.92215
0.000574664
3.91138
0.000575266
3.90059
0.000575725
3.88979
0.000576117
3.87897
0.00057646
3.86813
0.000576787
3.85727
0.000577109
3.8464
0.00057743
3.8355
0.000577755
3.82459
0.000578086
3.81365
0.000578425
3.8027
0.000578773
3.79172
0.00057913
3.78072
0.000579497
3.7697
0.000579871
3.75865
0.000580254
3.74758
0.000580646
3.73649
0.000581048
3.72537
0.00058146
3.71422
0.000581879
3.70305
0.000582309
3.69185
0.000582744
3.68062
0.000583188
3.66937
0.000583644
3.65809
0.000584109
3.64677
0.000584585
3.63543
0.000585069
3.62406
0.000585561
3.61266
0.000586058
3.60122
0.000586566
3.58975
0.00058708
3.57826
0.000587609
3.56672
0.000588149
3.55516
0.000588697
3.54356
0.000589257
3.53193
0.000589831
3.52026
0.000590418
3.50855
0.000591015
3.49681
0.000591615
3.48504
0.000592218
3.47322
0.000592832
3.46137
0.000593462
3.44949
0.000594113
3.43756
0.00059478
3.4256
0.000595459
3.41359
0.000596144
3.40155
0.00059683
3.38946
0.000597525
3.37733
0.000598227
3.36516
0.00059893
3.35295
0.000599617
3.3407
0.00060028
3.3284
0.000600909
3.31606
0.0006015
3.30368
0.000602035
3.29125
0.000602483
3.27878
0.000602809
3.26627
0.000602954
3.2537
0.000602849
3.24109
0.000602418
3.22844
0.000601577
3.21573
0.000600211
3.20298
0.000598185
3.19018
0.000595346
3.17732
0.000591543
3.16442
0.000586626
3.15147
0.000580442
3.13847
0.000572838
3.12542
0.000563661
3.11231
0.00055277
3.09916
0.000540055
3.08595
0.000525444
3.07269
0.000508913
3.05937
0.000490489
3.046
0.000470256
3.03258
0.000448348
3.0191
0.000424952
3.00557
0.000400298
2.99198
0.000374659
2.97833
0.000348337
2.96463
0.000321659
2.95088
0.000294957
2.93706
0.000268561
2.92319
0.000242784
2.90927
0.000217912
2.89529
0.000194197
2.88125
0.000171849
2.86716
0.000151031
2.85301
0.000131859
2.8388
0.000114401
2.82454
9.8682e-05
2.81023
8.46834e-05
2.79585
7.23526e-05
2.78143
6.16075e-05
2.76695
5.23432e-05
2.75241
4.4439e-05
2.73782
3.77649e-05
2.72318
3.21869e-05
2.70849
2.75717e-05
2.69374
2.37904e-05
2.67894
2.07214e-05
2.66409
1.82532e-05
2.64918
1.62851e-05
2.63423
1.47287e-05
2.61923
1.35059e-05
2.60418
1.25506e-05
2.58907
1.18069e-05
2.57393
1.12291e-05
2.55873
1.07794e-05
2.54349
1.04274e-05
2.5282
1.01479e-05
2.51287
9.92217e-06
2.49749
9.73486e-06
2.48207
9.57516e-06
2.46661
9.43444e-06
2.45111
9.30658e-06
2.43557
9.18646e-06
2.41999
9.07082e-06
2.40437
8.95686e-06
2.38872
8.84283e-06
2.37303
8.72758e-06
2.3573
8.61112e-06
2.34154
8.49265e-06
2.32575
8.37213e-06
2.30993
8.24881e-06
2.29408
8.12257e-06
2.2782
7.99249e-06
2.26229
7.85893e-06
2.24636
7.72206e-06
2.2304
7.58244e-06
2.21442
7.43984e-06
2.19842
7.29436e-06
2.1824
7.14586e-06
2.16636
6.99437e-06
2.1503
6.8395e-06
2.13422
6.68119e-06
2.11814
6.51963e-06
2.10203
6.35524e-06
2.08592
6.18781e-06
2.06979
6.01729e-06
2.05366
5.84371e-06
2.03752
5.66735e-06
2.02137
5.48833e-06
2.00522
5.30631e-06
1.98907
5.12102e-06
1.97292
4.93307e-06
1.95676
4.74259e-06
1.94061
4.54934e-06
1.92446
4.35356e-06
1.90831
4.15452e-06
1.89217
3.95322e-06
1.87604
3.7489e-06
1.85992
3.54234e-06
1.84381
3.33271e-06
1.82771
3.12067e-06
1.81162
2.90615e-06
1.79555
2.68978e-06
1.7795
2.47065e-06
1.76346
2.24912e-06
1.74745
2.02466e-06
1.73145
1.79783e-06
1.71548
1.5695e-06
1.69954
1.33888e-06
1.68361
1.1065e-06
1.66772
8.70306e-07
1.65185
6.32189e-07
1.63602
3.91355e-07
1.62021
1.50187e-07
1.60444
-9.44174e-08
1.5887
-3.36317e-07
1.573
-5.90321e-07
1.55734
-8.29828e-07
1.54171
-1.10406e-06
1.52613
-1.3086e-06
1.51058
-1.67355e-06
1.49508
-1.70054e-06
1.47962
-2.41287e-06
1.46421
-1.83161e-06
1.44885
-3.55092e-06
1.43353
-1.48115e-06
1.41826
-5.18152e-06
1.40304
-8.04604e-07
1.38788
-6.87158e-06
1.37277
-2.37598e-07
1.35771
-8.32387e-06
1.34271
1.66206e-06
1.32776
-5.97437e-06
1.31287
2.67836e-05
1.29802
0.000105289
1.28312
0.000583103
1.26782
0.00276659
1.25032
0.0132451
1.22313
0.0592643
1.14841
0.290217
0.699651
0.989389
17.3438
0.000571306
17.2973
0.000464274
17.2508
0.000418675
17.2041
0.000429186
17.1573
0.000431198
17.1104
0.000431021
17.0634
0.000431423
17.0164
0.000431797
16.9692
0.000432088
16.922
0.000432342
16.8747
0.000432585
16.8274
0.000432825
16.7799
0.000433065
16.7324
0.000433308
16.6848
0.000433555
16.6371
0.000433809
16.5893
0.000434069
16.5414
0.000434337
16.4934
0.000434613
16.4453
0.000434893
16.3971
0.00043518
16.3489
0.000435475
16.3005
0.000435777
16.2519
0.000436085
16.2033
0.0004364
16.1546
0.000436722
16.1057
0.000437049
16.0568
0.000437382
16.0077
0.000437725
15.9584
0.000438074
15.9091
0.00043843
15.8596
0.000438793
15.81
0.000439163
15.7602
0.000439536
15.7104
0.000439917
15.6603
0.000440302
15.6102
0.000440699
15.5599
0.000441103
15.5094
0.000441515
15.4588
0.000441935
15.4081
0.000442366
15.3572
0.000442807
15.3061
0.000443254
15.2549
0.000443703
15.2035
0.000444156
15.152
0.000444616
15.1003
0.00044509
15.0484
0.000445579
14.9964
0.000446079
14.9442
0.000446588
14.8918
0.000447101
14.8393
0.000447616
14.7865
0.000448138
14.7336
0.000448664
14.6806
0.000449191
14.6273
0.000449706
14.5738
0.000450203
14.5202
0.000450676
14.4664
0.000451121
14.4123
0.000451524
14.3581
0.000451862
14.3037
0.000452108
14.2491
0.000452219
14.1943
0.000452144
14.1393
0.000451826
14.0841
0.000451201
14.0287
0.000450185
13.973
0.000448676
13.9172
0.000446559
13.8611
0.000443724
13.8048
0.000440058
13.7483
0.000435446
13.6916
0.000429773
13.6346
0.000422924
13.5775
0.000414794
13.5201
0.0004053
13.4625
0.000394388
13.4046
0.000382039
13.3465
0.000368274
13.2882
0.000353151
13.2296
0.000336773
13.1708
0.000319277
13.1118
0.000300834
13.0525
0.000281648
12.993
0.000261945
12.9332
0.000241967
12.8732
0.000221964
12.813
0.000202182
12.7525
0.000182855
12.6917
0.000164198
12.6307
0.0001464
12.5695
0.00012962
12.508
0.000113979
12.4463
9.9566e-05
12.3843
8.64338e-05
12.3221
7.46012e-05
12.2596
6.40561e-05
12.1969
5.47603e-05
12.134
4.66532e-05
12.0708
3.96572e-05
12.0074
3.36828e-05
11.9438
2.8633e-05
11.8799
2.44082e-05
11.8158
2.09088e-05
11.7515
1.80382e-05
11.6869
1.57054e-05
11.6221
1.38268e-05
11.5571
1.23268e-05
11.4919
1.11388e-05
11.4264
1.02042e-05
11.3607
9.47293e-06
11.2949
8.90286e-06
11.2288
8.45936e-06
11.1625
8.11385e-06
11.096
7.84316e-06
11.0293
7.62828e-06
10.9624
7.45479e-06
10.8953
7.31107e-06
10.8281
7.18877e-06
10.7606
7.08132e-06
10.693
6.98395e-06
10.6252
6.89276e-06
10.5572
6.8052e-06
10.4891
6.71913e-06
10.4208
6.63316e-06
10.3524
6.54642e-06
10.2837
6.45885e-06
10.215
6.36984e-06
10.1461
6.27932e-06
10.0771
6.18676e-06
10.0079
6.092e-06
9.93867
5.99442e-06
9.86927
5.89423e-06
9.79977
5.79157e-06
9.73016
5.68683e-06
9.66044
5.57989e-06
9.59063
5.47076e-06
9.52074
5.35939e-06
9.45076
5.24576e-06
9.38071
5.1296e-06
9.31058
5.01087e-06
9.24039
4.88972e-06
9.17014
4.76641e-06
9.09985
4.64085e-06
9.0295
4.51295e-06
8.95912
4.38276e-06
8.88871
4.25052e-06
8.81827
4.11621e-06
8.74781
3.97974e-06
8.67734
3.84073e-06
8.60687
3.6998e-06
8.53639
3.55696e-06
8.46593
3.41195e-06
8.39547
3.26524e-06
8.32504
3.11577e-06
8.25463
2.96503e-06
8.18426
2.81158e-06
8.11393
2.65682e-06
8.04364
2.49951e-06
7.97341
2.34056e-06
7.90323
2.17952e-06
7.83312
2.01746e-06
7.76309
1.85296e-06
7.69314
1.68681e-06
7.62327
1.51864e-06
7.55349
1.3483e-06
7.48382
1.17736e-06
7.41424
1.00399e-06
7.34479
8.30444e-07
7.27545
6.5272e-07
7.20623
4.75174e-07
7.13715
2.93714e-07
7.0682
1.13185e-07
6.99939
-7.23558e-08
6.93074
-2.52036e-07
6.86224
-4.47468e-07
6.79391
-6.11567e-07
6.72574
-8.49856e-07
6.65775
-9.31022e-07
6.58994
-1.36629e-06
6.52231
-1.0496e-06
6.45488
-2.2461e-06
6.38764
-5.90145e-07
6.32061
-3.9718e-06
6.25379
8.97154e-07
6.18719
-6.71219e-06
6.1208
3.05634e-06
6.05464
-9.56303e-06
5.98871
5.02889e-06
5.92303
-1.2063e-05
5.85757
9.73387e-06
5.79238
-7.65847e-06
5.7274
5.82056e-05
5.66263
0.000201748
5.59768
0.00110583
5.53109
0.0052021
5.45564
0.0248312
5.34013
0.111171
5.05028
0.516767
1.25875
4.42814
17.3438
0.000368561
17.2973
0.000315363
17.2508
0.000277793
17.2041
0.000285644
17.1573
0.000287643
17.1104
0.000287337
17.0634
0.000287575
17.0164
0.000287847
16.9692
0.000288045
16.922
0.000288217
16.8747
0.000288382
16.8274
0.000288544
16.7799
0.000288706
16.7324
0.000288869
16.6848
0.000289035
16.6371
0.000289205
16.5893
0.000289379
16.5414
0.000289558
16.4934
0.000289742
16.4453
0.000289929
16.3971
0.00029012
16.3488
0.000290317
16.3004
0.000290518
16.2519
0.000290724
16.2033
0.000290933
16.1546
0.000291148
16.1057
0.000291366
16.0567
0.000291588
16.0076
0.000291816
15.9584
0.000292049
15.9091
0.000292286
15.8596
0.000292528
15.81
0.000292775
15.7602
0.000293023
15.7103
0.000293277
15.6603
0.000293534
15.6102
0.000293798
15.5598
0.000294068
15.5094
0.000294342
15.4588
0.000294622
15.408
0.00029491
15.3571
0.000295203
15.3061
0.000295501
15.2549
0.0002958
15.2035
0.000296102
15.1519
0.000296409
15.1003
0.000296725
15.0484
0.000297051
14.9964
0.000297385
14.9442
0.000297724
14.8918
0.000298066
14.8393
0.000298409
14.7865
0.000298757
14.7336
0.000299108
14.6805
0.000299458
14.6273
0.000299801
14.5738
0.000300133
14.5202
0.000300449
14.4663
0.000300747
14.4123
0.000301016
14.3581
0.000301243
14.3037
0.000301408
14.2491