/*--------------------------------*- C++ -*----------------------------------*\
| =========                 |                                                 |
| \\      /  F ield         | OpenFOAM: The Open Source CFD Toolbox           |
|  \\    /   O peration     | Version:  3.0.x                                 |
|   \\  /    A nd           | Web:      www.OpenFOAM.org                      |
|    \\/     M anipulation  |                                                 |
\*---------------------------------------------------------------------------*/
FoamFile
{
    version     2.0;
    format      ascii;
    class       volVectorField;
    location    "0.05";
    object      U;
}
// * * * * * * * * * * * * * * * * * * * * * * * * * * * * * * * * * * * * * //

dimensions      [0 1 -1 0 0 0 0];

internalField   nonuniform List<vector> 
13800
(
(42.6962 0.000141818 0)
(42.6926 0.000122901 0)
(42.6889 0.000120003 0)
(42.6853 0.000118109 0)
(42.6818 0.000112504 0)
(42.6786 0.000102651 0)
(42.6758 8.90064e-05 0)
(42.6734 7.2942e-05 0)
(42.6715 5.63397e-05 0)
(42.6701 4.09812e-05 0)
(42.6692 2.80923e-05 0)
(42.6685 1.81777e-05 0)
(42.6681 1.11335e-05 0)
(42.6679 6.4781e-06 0)
(42.6678 3.60086e-06 0)
(42.6677 1.93092e-06 0)
(42.6676 1.01508e-06 0)
(42.6676 5.39986e-07 0)
(42.6676 3.05781e-07 0)
(42.6676 1.95764e-07 0)
(42.6676 1.46401e-07 0)
(42.6675 1.25188e-07 0)
(42.6675 1.16437e-07 0)
(42.6675 1.12969e-07 0)
(42.6675 1.11651e-07 0)
(42.6675 1.11167e-07 0)
(42.6675 1.10994e-07 0)
(42.6675 1.10933e-07 0)
(42.6675 1.10912e-07 0)
(42.6675 1.1091e-07 0)
(42.6674 1.1091e-07 0)
(42.6674 1.10917e-07 0)
(42.6674 1.10919e-07 0)
(42.6674 1.10917e-07 0)
(42.6674 1.10927e-07 0)
(42.6673 1.10938e-07 0)
(42.6673 1.10951e-07 0)
(42.6673 1.10969e-07 0)
(42.6672 1.10988e-07 0)
(42.6671 1.1102e-07 0)
(42.667 1.11059e-07 0)
(42.6669 1.11106e-07 0)
(42.6667 1.11169e-07 0)
(42.6664 1.11257e-07 0)
(42.6661 1.11363e-07 0)
(42.6656 1.11502e-07 0)
(42.665 1.11677e-07 0)
(42.6643 1.11887e-07 0)
(42.6633 1.12155e-07 0)
(42.662 1.12482e-07 0)
(42.6604 1.12882e-07 0)
(42.6583 1.13354e-07 0)
(42.6558 1.1391e-07 0)
(42.6526 1.14559e-07 0)
(42.6487 1.15307e-07 0)
(42.6439 1.16142e-07 0)
(42.6382 1.17069e-07 0)
(42.6314 1.18063e-07 0)
(42.6234 1.19103e-07 0)
(42.614 1.20156e-07 0)
(42.6032 1.21184e-07 0)
(42.5908 1.22108e-07 0)
(42.577 1.22854e-07 0)
(42.5615 1.23334e-07 0)
(42.5446 1.23455e-07 0)
(42.5263 1.23087e-07 0)
(42.5069 1.22122e-07 0)
(42.4865 1.2045e-07 0)
(42.4655 1.1796e-07 0)
(42.4443 1.14576e-07 0)
(42.4235 1.10255e-07 0)
(42.4034 1.04994e-07 0)
(42.3846 9.88303e-08 0)
(42.3678 9.188e-08 0)
(42.3533 8.43411e-08 0)
(42.3417 7.62678e-08 0)
(42.3335 6.76252e-08 0)
(42.3288 5.83074e-08 0)
(42.3279 5.0564e-08 0)
(42.3307 3.9176e-08 0)
(42.3371 2.553e-08 0)
(42.3473 1.26551e-08 0)
(42.3607 4.78924e-09 0)
(42.3769 -3.63087e-10 0)
(42.3953 -2.67632e-09 0)
(42.4154 -2.90002e-09 0)
(42.4365 -2.41621e-09 0)
(42.4579 5.82134e-10 0)
(42.4789 4.4256e-09 0)
(42.4991 9.17498e-09 0)
(42.518 1.53245e-08 0)
(42.5352 2.18918e-08 0)
(42.5503 2.92932e-08 0)
(42.5634 3.68246e-08 0)
(42.5743 4.40245e-08 0)
(42.583 5.14507e-08 0)
(42.5897 5.78889e-08 0)
(42.5946 6.38759e-08 0)
(42.5979 6.94128e-08 0)
(42.5999 7.35307e-08 0)
(42.6008 7.74263e-08 0)
(42.6008 7.99439e-08 0)
(42.6002 8.26353e-08 0)
(42.5992 8.45873e-08 0)
(42.5978 8.57915e-08 0)
(42.5963 8.66682e-08 0)
(42.5948 8.74065e-08 0)
(42.5932 8.7649e-08 0)
(42.5918 8.79374e-08 0)
(42.5904 8.80062e-08 0)
(42.5892 8.78988e-08 0)
(42.5881 8.79662e-08 0)
(42.5871 8.78035e-08 0)
(42.5863 8.77408e-08 0)
(42.5856 8.76977e-08 0)
(42.585 8.75228e-08 0)
(42.5845 8.75456e-08 0)
(42.5841 8.74826e-08 0)
(42.5838 8.74213e-08 0)
(42.5835 8.74651e-08 0)
(42.5834 8.73651e-08 0)
(42.5833 8.74332e-08 0)
(42.5833 8.75074e-08 0)
(42.5834 8.74832e-08 0)
(42.5835 8.759e-08 0)
(42.5836 8.75608e-08 0)
(42.5838 8.76595e-08 0)
(42.584 8.77816e-08 0)
(42.5843 8.78608e-08 0)
(42.5846 8.79869e-08 0)
(42.5849 8.8079e-08 0)
(42.5853 8.82008e-08 0)
(42.5856 8.83779e-08 0)
(42.586 8.85094e-08 0)
(42.5864 8.86706e-08 0)
(42.5868 8.88187e-08 0)
(42.5872 8.89728e-08 0)
(42.5875 8.91866e-08 0)
(42.5879 8.93558e-08 0)
(42.5883 8.95382e-08 0)
(42.5887 8.97224e-08 0)
(42.589 8.98771e-08 0)
(42.5894 9.00694e-08 0)
(42.5897 9.0258e-08 0)
(42.59 9.04339e-08 0)
(42.5903 9.06195e-08 0)
(42.5906 9.07715e-08 0)
(42.5908 9.09306e-08 0)
(42.5911 9.10887e-08 0)
(42.5913 9.12454e-08 0)
(42.5916 9.14184e-08 0)
(42.5918 9.1582e-08 0)
(42.592 9.17302e-08 0)
(42.5921 9.18689e-08 0)
(42.5923 9.20042e-08 0)
(42.5924 9.21456e-08 0)
(42.5926 9.22828e-08 0)
(42.5927 9.2407e-08 0)
(42.5928 9.252e-08 0)
(42.5929 9.26558e-08 0)
(42.593 9.26642e-08 0)
(42.5931 9.27715e-08 0)
(42.5932 9.28812e-08 0)
(42.5933 9.29612e-08 0)
(42.5934 9.30587e-08 0)
(42.5935 9.31125e-08 0)
(42.5935 9.3185e-08 0)
(42.5936 9.3242e-08 0)
(42.5937 9.33094e-08 0)
(42.5938 9.3357e-08 0)
(42.5938 9.34499e-08 0)
(42.5939 9.34933e-08 0)
(42.594 9.356e-08 0)
(42.5941 9.36031e-08 0)
(42.5942 9.36582e-08 0)
(42.5942 9.37003e-08 0)
(42.5943 9.37493e-08 0)
(42.5944 9.38073e-08 0)
(42.5944 9.38833e-08 0)
(42.5945 9.38985e-08 0)
(42.5945 9.39463e-08 0)
(42.5946 9.39797e-08 0)
(42.5946 9.4004e-08 0)
(42.5947 9.40322e-08 0)
(42.5947 9.40298e-08 0)
(42.5948 9.40765e-08 0)
(42.5949 9.43463e-08 0)
(42.5949 9.41785e-08 0)
(42.595 9.8597e-08 0)
(42.5951 1.1251e-07 0)
(42.5951 1.85148e-07 0)
(42.5952 5.35879e-07 0)
(42.5952 2.22335e-06 0)
(42.5949 1.04048e-05 0)
(42.5935 4.99551e-05 0)
(42.587 0.000235512 0)
(42.5564 0.00110539 0)
(42.4129 0.00517627 0)
(41.951 0.0266796 0)
(37.5589 0.105388 0)
(42.7001 0.000222509 0)
(42.7004 0.000161289 0)
(42.7005 0.0001472 0)
(42.7007 0.000140635 0)
(42.7009 0.000130656 0)
(42.701 0.000116888 0)
(42.7011 9.98216e-05 0)
(42.7012 8.08198e-05 0)
(42.7013 6.18083e-05 0)
(42.7013 4.45894e-05 0)
(42.7014 3.03532e-05 0)
(42.7014 1.95233e-05 0)
(42.7014 1.18971e-05 0)
(42.7014 6.89247e-06 0)
(42.7014 3.81759e-06 0)
(42.7014 2.04263e-06 0)
(42.7013 1.07268e-06 0)
(42.7013 5.71523e-07 0)
(42.7013 3.25226e-07 0)
(42.7013 2.09811e-07 0)
(42.7013 1.58111e-07 0)
(42.7013 1.35929e-07 0)
(42.7013 1.26797e-07 0)
(42.7013 1.23178e-07 0)
(42.7013 1.21799e-07 0)
(42.7012 1.21294e-07 0)
(42.7012 1.21111e-07 0)
(42.7012 1.21058e-07 0)
(42.7012 1.21038e-07 0)
(42.7012 1.21031e-07 0)
(42.7012 1.21035e-07 0)
(42.7012 1.21039e-07 0)
(42.7012 1.21049e-07 0)
(42.7011 1.21058e-07 0)
(42.7011 1.21069e-07 0)
(42.7011 1.21093e-07 0)
(42.701 1.21119e-07 0)
(42.701 1.21155e-07 0)
(42.7009 1.21197e-07 0)
(42.7009 1.21266e-07 0)
(42.7007 1.21348e-07 0)
(42.7006 1.21462e-07 0)
(42.7004 1.21619e-07 0)
(42.7002 1.21804e-07 0)
(42.6998 1.22059e-07 0)
(42.6994 1.22389e-07 0)
(42.6988 1.22808e-07 0)
(42.698 1.23334e-07 0)
(42.697 1.23997e-07 0)
(42.6957 1.24811e-07 0)
(42.6941 1.25807e-07 0)
(42.6921 1.27019e-07 0)
(42.6895 1.28465e-07 0)
(42.6863 1.30168e-07 0)
(42.6824 1.32145e-07 0)
(42.6777 1.34417e-07 0)
(42.672 1.36971e-07 0)
(42.6652 1.39804e-07 0)
(42.6571 1.42882e-07 0)
(42.6477 1.4614e-07 0)
(42.6369 1.49495e-07 0)
(42.6246 1.52843e-07 0)
(42.6107 1.56033e-07 0)
(42.5953 1.58887e-07 0)
(42.5784 1.61205e-07 0)
(42.5601 1.62762e-07 0)
(42.5406 1.63319e-07 0)
(42.5202 1.62632e-07 0)
(42.4992 1.60492e-07 0)
(42.4781 1.56699e-07 0)
(42.4572 1.51097e-07 0)
(42.4371 1.43622e-07 0)
(42.4184 1.34283e-07 0)
(42.4015 1.23213e-07 0)
(42.387 1.10639e-07 0)
(42.3755 9.67181e-08 0)
(42.3672 8.15635e-08 0)
(42.3626 6.53363e-08 0)
(42.3616 5.26449e-08 0)
(42.3644 3.3288e-08 0)
(42.3709 1.24635e-08 0)
(42.381 -4.38693e-09 0)
(42.3944 -1.41789e-08 0)
(42.4106 -2.26569e-08 0)
(42.429 -2.69201e-08 0)
(42.4491 -2.80903e-08 0)
(42.4702 -2.79084e-08 0)
(42.4916 -2.29397e-08 0)
(42.5126 -1.61572e-08 0)
(42.5329 -6.29668e-09 0)
(42.5517 5.14549e-09 0)
(42.5689 1.53538e-08 0)
(42.5841 2.67149e-08 0)
(42.5971 3.84574e-08 0)
(42.608 4.94299e-08 0)
(42.6167 6.07079e-08 0)
(42.6234 7.06448e-08 0)
(42.6283 7.96844e-08 0)
(42.6316 8.79199e-08 0)
(42.6336 9.41363e-08 0)
(42.6344 9.97878e-08 0)
(42.6345 1.03056e-07 0)
(42.6339 1.06978e-07 0)
(42.6329 1.09451e-07 0)
(42.6315 1.1068e-07 0)
(42.63 1.11441e-07 0)
(42.6285 1.11892e-07 0)
(42.6269 1.11618e-07 0)
(42.6255 1.11412e-07 0)
(42.6241 1.10802e-07 0)
(42.6229 1.10027e-07 0)
(42.6218 1.09539e-07 0)
(42.6208 1.08703e-07 0)
(42.62 1.08063e-07 0)
(42.6193 1.07457e-07 0)
(42.6186 1.06681e-07 0)
(42.6182 1.06254e-07 0)
(42.6178 1.05687e-07 0)
(42.6175 1.05172e-07 0)
(42.6172 1.04811e-07 0)
(42.6171 1.04226e-07 0)
(42.617 1.03955e-07 0)
(42.617 1.03719e-07 0)
(42.617 1.03298e-07 0)
(42.6171 1.0312e-07 0)
(42.6173 1.02725e-07 0)
(42.6175 1.02564e-07 0)
(42.6177 1.02423e-07 0)
(42.618 1.02237e-07 0)
(42.6183 1.02135e-07 0)
(42.6186 1.01977e-07 0)
(42.6189 1.01904e-07 0)
(42.6193 1.01902e-07 0)
(42.6197 1.01834e-07 0)
(42.6201 1.01828e-07 0)
(42.6204 1.018e-07 0)
(42.6208 1.01796e-07 0)
(42.6212 1.01877e-07 0)
(42.6216 1.01911e-07 0)
(42.622 1.0196e-07 0)
(42.6223 1.02024e-07 0)
(42.6227 1.02051e-07 0)
(42.623 1.02137e-07 0)
(42.6233 1.02213e-07 0)
(42.6237 1.02285e-07 0)
(42.624 1.02383e-07 0)
(42.6242 1.02443e-07 0)
(42.6245 1.02504e-07 0)
(42.6248 1.02568e-07 0)
(42.625 1.02637e-07 0)
(42.6252 1.02732e-07 0)
(42.6254 1.02787e-07 0)
(42.6256 1.02837e-07 0)
(42.6258 1.02882e-07 0)
(42.626 1.02918e-07 0)
(42.6261 1.02976e-07 0)
(42.6263 1.03017e-07 0)
(42.6264 1.03067e-07 0)
(42.6265 1.0311e-07 0)
(42.6266 1.0321e-07 0)
(42.6267 1.03059e-07 0)
(42.6268 1.0312e-07 0)
(42.6269 1.03188e-07 0)
(42.627 1.03195e-07 0)
(42.627 1.03224e-07 0)
(42.6271 1.03184e-07 0)
(42.6272 1.03187e-07 0)
(42.6273 1.03166e-07 0)
(42.6274 1.03165e-07 0)
(42.6274 1.03129e-07 0)
(42.6275 1.0318e-07 0)
(42.6276 1.03156e-07 0)
(42.6277 1.0317e-07 0)
(42.6277 1.0314e-07 0)
(42.6278 1.03149e-07 0)
(42.6279 1.03132e-07 0)
(42.6279 1.03134e-07 0)
(42.628 1.03139e-07 0)
(42.6281 1.03188e-07 0)
(42.6281 1.03129e-07 0)
(42.6282 1.03154e-07 0)
(42.6282 1.03158e-07 0)
(42.6283 1.03144e-07 0)
(42.6283 1.03137e-07 0)
(42.6284 1.03106e-07 0)
(42.6284 1.03193e-07 0)
(42.6285 1.03828e-07 0)
(42.6286 1.04507e-07 0)
(42.6286 1.17393e-07 0)
(42.6287 1.66905e-07 0)
(42.6288 4.14143e-07 0)
(42.6288 1.60666e-06 0)
(42.6288 7.36148e-06 0)
(42.6286 3.52424e-05 0)
(42.6272 0.000170016 0)
(42.6207 0.000802376 0)
(42.5903 0.00376746 0)
(42.4476 0.0176104 0)
(41.9884 0.0890329 0)
(37.8334 0.332818 0)
(42.7001 0.000163828 0)
(42.7003 0.000112444 0)
(42.7005 0.000105363 0)
(42.7007 0.000105012 0)
(42.7009 9.96865e-05 0)
(42.701 9.04444e-05 0)
(42.7011 7.81344e-05 0)
(42.7012 6.38907e-05 0)
(42.7013 4.92929e-05 0)
(42.7013 3.58506e-05 0)
(42.7014 2.45914e-05 0)
(42.7014 1.5933e-05 0)
(42.7014 9.77734e-06 0)
(42.7014 5.70235e-06 0)
(42.7014 3.17768e-06 0)
(42.7014 1.70894e-06 0)
(42.7013 9.00127e-07 0)
(42.7013 4.79155e-07 0)
(42.7013 2.70762e-07 0)
(42.7013 1.72416e-07 0)
(42.7013 1.28067e-07 0)
(42.7013 1.0891e-07 0)
(42.7013 1.00965e-07 0)
(42.7013 9.77995e-08 0)
(42.7013 9.65882e-08 0)
(42.7013 9.61349e-08 0)
(42.7012 9.59753e-08 0)
(42.7012 9.5924e-08 0)
(42.7012 9.59074e-08 0)
(42.7012 9.59032e-08 0)
(42.7012 9.59073e-08 0)
(42.7012 9.59124e-08 0)
(42.7012 9.59184e-08 0)
(42.7011 9.59236e-08 0)
(42.7011 9.59348e-08 0)
(42.7011 9.59474e-08 0)
(42.701 9.5977e-08 0)
(42.701 9.60033e-08 0)
(42.7009 9.60488e-08 0)
(42.7009 9.61019e-08 0)
(42.7008 9.61766e-08 0)
(42.7006 9.62698e-08 0)
(42.7004 9.63971e-08 0)
(42.7002 9.6563e-08 0)
(42.6998 9.67811e-08 0)
(42.6994 9.70518e-08 0)
(42.6988 9.74044e-08 0)
(42.698 9.78473e-08 0)
(42.697 9.83918e-08 0)
(42.6957 9.90673e-08 0)
(42.6941 9.98813e-08 0)
(42.6921 1.00866e-07 0)
(42.6895 1.0203e-07 0)
(42.6863 1.03388e-07 0)
(42.6824 1.0495e-07 0)
(42.6777 1.06711e-07 0)
(42.672 1.0867e-07 0)
(42.6652 1.10798e-07 0)
(42.6571 1.13048e-07 0)
(42.6477 1.15365e-07 0)
(42.6369 1.17664e-07 0)
(42.6246 1.19842e-07 0)
(42.6107 1.21763e-07 0)
(42.5953 1.23276e-07 0)
(42.5784 1.24216e-07 0)
(42.5601 1.24395e-07 0)
(42.5406 1.23625e-07 0)
(42.5202 1.21729e-07 0)
(42.4992 1.1855e-07 0)
(42.4781 1.13954e-07 0)
(42.4572 1.0786e-07 0)
(42.4371 1.00251e-07 0)
(42.4184 9.11665e-08 0)
(42.4015 8.07367e-08 0)
(42.387 6.91662e-08 0)
(42.3755 5.67384e-08 0)
(42.3672 4.38348e-08 0)
(42.3626 3.10284e-08 0)
(42.3616 2.25515e-08 0)
(42.3644 9.26463e-09 0)
(42.3709 -1.9179e-09 0)
(42.381 -7.41099e-09 0)
(42.3944 -1.07268e-08 0)
(42.4106 -1.56987e-08 0)
(42.429 -1.77125e-08 0)
(42.4491 -1.7165e-08 0)
(42.4702 -1.54262e-08 0)
(42.4916 -1.02842e-08 0)
(42.5126 -4.06869e-09 0)
(42.5329 3.41869e-09 0)
(42.5517 1.18617e-08 0)
(42.5689 2.06986e-08 0)
(42.5841 3.07104e-08 0)
(42.5971 4.06374e-08 0)
(42.608 4.96611e-08 0)
(42.6167 5.86447e-08 0)
(42.6234 6.62746e-08 0)
(42.6283 7.29726e-08 0)
(42.6316 7.88599e-08 0)
(42.6336 8.30091e-08 0)
(42.6345 8.65641e-08 0)
(42.6345 8.81777e-08 0)
(42.6339 9.0428e-08 0)
(42.6329 9.14351e-08 0)
(42.6315 9.1512e-08 0)
(42.63 9.12278e-08 0)
(42.6285 9.07407e-08 0)
(42.6269 8.98118e-08 0)
(42.6255 8.89424e-08 0)
(42.6241 8.78469e-08 0)
(42.6229 8.67101e-08 0)
(42.6218 8.58198e-08 0)
(42.6208 8.47499e-08 0)
(42.62 8.38717e-08 0)
(42.6193 8.30739e-08 0)
(42.6187 8.2218e-08 0)
(42.6182 8.16497e-08 0)
(42.6178 8.10257e-08 0)
(42.6175 8.04756e-08 0)
(42.6172 8.00661e-08 0)
(42.6171 7.95425e-08 0)
(42.617 7.92645e-08 0)
(42.617 7.90381e-08 0)
(42.617 7.86825e-08 0)
(42.6171 7.85216e-08 0)
(42.6173 7.82195e-08 0)
(42.6175 7.81207e-08 0)
(42.6177 7.80371e-08 0)
(42.618 7.79331e-08 0)
(42.6183 7.78884e-08 0)
(42.6186 7.78188e-08 0)
(42.6189 7.78206e-08 0)
(42.6193 7.78751e-08 0)
(42.6197 7.78908e-08 0)
(42.6201 7.79569e-08 0)
(42.6204 7.79963e-08 0)
(42.6208 7.8073e-08 0)
(42.6212 7.82105e-08 0)
(42.6216 7.83087e-08 0)
(42.622 7.84221e-08 0)
(42.6223 7.85433e-08 0)
(42.6227 7.86366e-08 0)
(42.623 7.87781e-08 0)
(42.6234 7.89031e-08 0)
(42.6237 7.90315e-08 0)
(42.624 7.91694e-08 0)
(42.6242 7.9275e-08 0)
(42.6245 7.93819e-08 0)
(42.6248 7.94918e-08 0)
(42.625 7.96005e-08 0)
(42.6252 7.97293e-08 0)
(42.6254 7.9835e-08 0)
(42.6256 7.99283e-08 0)
(42.6258 8.00127e-08 0)
(42.626 8.00947e-08 0)
(42.6261 8.01926e-08 0)
(42.6263 8.02724e-08 0)
(42.6264 8.03487e-08 0)
(42.6265 8.04159e-08 0)
(42.6266 8.05363e-08 0)
(42.6267 8.04228e-08 0)
(42.6268 8.05092e-08 0)
(42.6269 8.05885e-08 0)
(42.627 8.06174e-08 0)
(42.627 8.06652e-08 0)
(42.6271 8.06574e-08 0)
(42.6272 8.06916e-08 0)
(42.6273 8.0701e-08 0)
(42.6274 8.07147e-08 0)
(42.6274 8.07023e-08 0)
(42.6275 8.07724e-08 0)
(42.6276 8.07707e-08 0)
(42.6277 8.07969e-08 0)
(42.6277 8.07961e-08 0)
(42.6278 8.08194e-08 0)
(42.6279 8.0829e-08 0)
(42.628 8.08549e-08 0)
(42.628 8.0889e-08 0)
(42.6281 8.09395e-08 0)
(42.6281 8.08954e-08 0)
(42.6282 8.09475e-08 0)
(42.6282 8.09606e-08 0)
(42.6283 8.0961e-08 0)
(42.6283 8.09635e-08 0)
(42.6284 8.09612e-08 0)
(42.6284 8.11557e-08 0)
(42.6285 8.21471e-08 0)
(42.6286 8.51921e-08 0)
(42.6287 1.079e-07 0)
(42.6287 2.08109e-07 0)
(42.6288 6.96783e-07 0)
(42.6288 3.06093e-06 0)
(42.6288 1.44904e-05 0)
(42.6286 6.98383e-05 0)
(42.6272 0.000337399 0)
(42.6209 0.00159331 0)
(42.5911 0.0074862 0)
(42.4516 0.0349928 0)
(42.0033 0.176146 0)
(38.0645 0.643709 0)
(42.7001 0.000119147 0)
(42.7003 0.000101866 0)
(42.7005 9.78871e-05 0)
(42.7007 9.87878e-05 0)
(42.7008 9.48951e-05 0)
(42.701 8.68293e-05 0)
(42.7011 7.5565e-05 0)
(42.7012 6.22045e-05 0)
(42.7013 4.8281e-05 0)
(42.7013 3.53081e-05 0)
(42.7013 2.4339e-05 0)
(42.7014 1.58408e-05 0)
(42.7014 9.7605e-06 0)
(42.7014 5.71342e-06 0)
(42.7014 3.19395e-06 0)
(42.7014 1.72129e-06 0)
(42.7013 9.07559e-07 0)
(42.7013 4.82341e-07 0)
(42.7013 2.71143e-07 0)
(42.7013 1.7117e-07 0)
(42.7013 1.25959e-07 0)
(42.7013 1.0638e-07 0)
(42.7013 9.82396e-08 0)
(42.7013 9.49841e-08 0)
(42.7013 9.37317e-08 0)
(42.7013 9.32688e-08 0)
(42.7012 9.31033e-08 0)
(42.7012 9.30493e-08 0)
(42.7012 9.30294e-08 0)
(42.7012 9.30244e-08 0)
(42.7012 9.30261e-08 0)
(42.7012 9.30255e-08 0)
(42.7012 9.30283e-08 0)
(42.7011 9.30344e-08 0)
(42.7011 9.30461e-08 0)
(42.7011 9.30563e-08 0)
(42.701 9.30752e-08 0)
(42.701 9.30969e-08 0)
(42.7009 9.31248e-08 0)
(42.7009 9.31653e-08 0)
(42.7008 9.32165e-08 0)
(42.7006 9.32836e-08 0)
(42.7004 9.33771e-08 0)
(42.7002 9.34932e-08 0)
(42.6998 9.36458e-08 0)
(42.6994 9.38439e-08 0)
(42.6988 9.4095e-08 0)
(42.698 9.44121e-08 0)
(42.697 9.48032e-08 0)
(42.6957 9.52879e-08 0)
(42.6941 9.58745e-08 0)
(42.6921 9.65813e-08 0)
(42.6895 9.74183e-08 0)
(42.6863 9.83988e-08 0)
(42.6824 9.9527e-08 0)
(42.6777 1.00805e-07 0)
(42.672 1.02225e-07 0)
(42.6652 1.03775e-07 0)
(42.6571 1.0543e-07 0)
(42.6477 1.07148e-07 0)
(42.6369 1.08866e-07 0)
(42.6246 1.10519e-07 0)
(42.6107 1.12015e-07 0)
(42.5953 1.1325e-07 0)
(42.5784 1.14108e-07 0)
(42.5601 1.1446e-07 0)
(42.5406 1.14183e-07 0)
(42.5202 1.13144e-07 0)
(42.4992 1.1124e-07 0)
(42.4781 1.08377e-07 0)
(42.4572 1.04488e-07 0)
(42.4371 9.95569e-08 0)
(42.4184 9.36076e-08 0)
(42.4015 8.67255e-08 0)
(42.387 7.90542e-08 0)
(42.3755 7.07832e-08 0)
(42.3672 6.21719e-08 0)
(42.3626 5.36264e-08 0)
(42.3616 4.7731e-08 0)
(42.3644 3.8699e-08 0)
(42.3709 3.02273e-08 0)
(42.381 2.37132e-08 0)
(42.3944 1.80773e-08 0)
(42.4106 1.31324e-08 0)
(42.429 1.0471e-08 0)
(42.4491 9.67787e-09 0)
(42.4702 9.73614e-09 0)
(42.4916 1.17302e-08 0)
(42.5126 1.43261e-08 0)
(42.5329 1.73605e-08 0)
(42.5517 2.21944e-08 0)
(42.5689 2.82848e-08 0)
(42.5841 3.53225e-08 0)
(42.5971 4.22441e-08 0)
(42.608 4.86445e-08 0)
(42.6167 5.50374e-08 0)
(42.6234 6.04499e-08 0)
(42.6283 6.52799e-08 0)
(42.6316 6.95676e-08 0)
(42.6336 7.25997e-08 0)
(42.6345 7.52445e-08 0)
(42.6345 7.66598e-08 0)
(42.6339 7.83918e-08 0)
(42.6329 7.94032e-08 0)
(42.6315 7.97665e-08 0)
(42.63 7.98502e-08 0)
(42.6285 7.98508e-08 0)
(42.6269 7.95504e-08 0)
(42.6255 7.92512e-08 0)
(42.6241 7.88411e-08 0)
(42.6229 7.83738e-08 0)
(42.6218 7.80594e-08 0)
(42.6208 7.76463e-08 0)
(42.62 7.73288e-08 0)
(42.6193 7.70743e-08 0)
(42.6187 7.67744e-08 0)
(42.6182 7.66418e-08 0)
(42.6178 7.6486e-08 0)
(42.6175 7.63544e-08 0)
(42.6172 7.6313e-08 0)
(42.6171 7.62002e-08 0)
(42.617 7.62127e-08 0)
(42.617 7.62767e-08 0)
(42.617 7.62464e-08 0)
(42.6171 7.63298e-08 0)
(42.6173 7.63239e-08 0)
(42.6175 7.64241e-08 0)
(42.6177 7.65444e-08 0)
(42.618 7.66512e-08 0)
(42.6183 7.67834e-08 0)
(42.6186 7.68996e-08 0)
(42.6189 7.70422e-08 0)
(42.6193 7.72235e-08 0)
(42.6197 7.73782e-08 0)
(42.6201 7.75472e-08 0)
(42.6204 7.7703e-08 0)
(42.6208 7.78744e-08 0)
(42.6212 7.80767e-08 0)
(42.6216 7.82629e-08 0)
(42.622 7.84461e-08 0)
(42.6223 7.86299e-08 0)
(42.6227 7.87918e-08 0)
(42.623 7.89738e-08 0)
(42.6234 7.9151e-08 0)
(42.6237 7.93209e-08 0)
(42.624 7.94938e-08 0)
(42.6242 7.96485e-08 0)
(42.6245 7.97926e-08 0)
(42.6248 7.99369e-08 0)
(42.625 8.00866e-08 0)
(42.6252 8.02448e-08 0)
(42.6254 8.03879e-08 0)
(42.6256 8.05168e-08 0)
(42.6258 8.06348e-08 0)
(42.626 8.07535e-08 0)
(42.6261 8.08739e-08 0)
(42.6263 8.09878e-08 0)
(42.6264 8.10957e-08 0)
(42.6265 8.11928e-08 0)
(42.6266 8.1324e-08 0)
(42.6267 8.12879e-08 0)
(42.6268 8.13876e-08 0)
(42.6269 8.14857e-08 0)
(42.627 8.1545e-08 0)
(42.627 8.16175e-08 0)
(42.6271 8.16541e-08 0)
(42.6272 8.17126e-08 0)
(42.6273 8.17537e-08 0)
(42.6274 8.17966e-08 0)
(42.6274 8.18232e-08 0)
(42.6275 8.19057e-08 0)
(42.6276 8.1935e-08 0)
(42.6277 8.19834e-08 0)
(42.6277 8.20194e-08 0)
(42.6278 8.20629e-08 0)
(42.6279 8.20936e-08 0)
(42.628 8.21376e-08 0)
(42.628 8.21824e-08 0)
(42.6281 8.2239e-08 0)
(42.6281 8.22412e-08 0)
(42.6282 8.22918e-08 0)
(42.6282 8.23238e-08 0)
(42.6283 8.23475e-08 0)
(42.6283 8.23751e-08 0)
(42.6284 8.24731e-08 0)
(42.6284 8.29674e-08 0)
(42.6285 8.52835e-08 0)
(42.6286 9.5142e-08 0)
(42.6287 1.49035e-07 0)
(42.6287 4.05132e-07 0)
(42.6288 1.64258e-06 0)
(42.6288 7.64206e-06 0)
(42.6288 3.66574e-05 0)
(42.6286 0.000177128 0)
(42.6274 0.000856298 0)
(42.6218 0.00404623 0)
(42.5954 0.0189488 0)
(42.4735 0.0874781 0)
(42.0846 0.405489 0)
(39.093 1.45717 0)
(42.7001 3.60099e-05 0)
(42.7003 2.77964e-05 0)
(42.7005 1.9696e-05 0)
(42.7006 1.62625e-05 0)
(42.7008 1.33071e-05 0)
(42.7009 1.05543e-05 0)
(42.7011 8.16682e-06 0)
(42.7012 6.10748e-06 0)
(42.7012 4.37482e-06 0)
(42.7013 2.9927e-06 0)
(42.7013 1.94871e-06 0)
(42.7014 1.20828e-06 0)
(42.7014 7.14904e-07 0)
(42.7014 4.04615e-07 0)
(42.7014 2.20154e-07 0)
(42.7014 1.16565e-07 0)
(42.7013 6.08687e-08 0)
(42.7013 3.24814e-08 0)
(42.7013 1.86229e-08 0)
(42.7013 1.21229e-08 0)
(42.7013 9.18876e-09 0)
(42.7013 7.91185e-09 0)
(42.7013 7.37766e-09 0)
(42.7013 7.16153e-09 0)
(42.7013 7.07869e-09 0)
(42.7013 7.04783e-09 0)
(42.7012 7.03613e-09 0)
(42.7012 7.03238e-09 0)
(42.7012 7.03036e-09 0)
(42.7012 7.03035e-09 0)
(42.7012 7.03435e-09 0)
(42.7012 7.03533e-09 0)
(42.7012 7.03691e-09 0)
(42.7011 7.03989e-09 0)
(42.7011 7.0424e-09 0)
(42.7011 7.0448e-09 0)
(42.701 7.05062e-09 0)
(42.701 7.05728e-09 0)
(42.7009 7.06831e-09 0)
(42.7009 7.08015e-09 0)
(42.7008 7.09722e-09 0)
(42.7006 7.12083e-09 0)
(42.7004 7.15077e-09 0)
(42.7002 7.18911e-09 0)
(42.6998 7.24093e-09 0)
(42.6994 7.30783e-09 0)
(42.6988 7.3927e-09 0)
(42.698 7.49817e-09 0)
(42.697 7.6277e-09 0)
(42.6957 7.78925e-09 0)
(42.6941 7.9834e-09 0)
(42.6921 8.21989e-09 0)
(42.6895 8.50075e-09 0)
(42.6863 8.82877e-09 0)
(42.6824 9.20584e-09 0)
(42.6777 9.63252e-09 0)
(42.672 1.01073e-08 0)
(42.6652 1.06239e-08 0)
(42.6571 1.11751e-08 0)
(42.6477 1.17461e-08 0)
(42.6369 1.23171e-08 0)
(42.6246 1.28628e-08 0)
(42.6107 1.3355e-08 0)
(42.5953 1.37585e-08 0)
(42.5784 1.40309e-08 0)
(42.5601 1.41343e-08 0)
(42.5406 1.40191e-08 0)
(42.5202 1.36466e-08 0)
(42.4992 1.29744e-08 0)
(42.4781 1.19723e-08 0)
(42.4572 1.06127e-08 0)
(42.4371 8.89207e-09 0)
(42.4184 6.81245e-09 0)
(42.4015 4.3965e-09 0)
(42.387 1.68706e-09 0)
(42.3755 -1.26327e-09 0)
(42.3672 -4.37861e-09 0)
(42.3626 -7.53041e-09 0)
(42.3616 -1.00079e-08 0)
(42.3644 -1.34233e-08 0)
(42.3709 -1.71725e-08 0)
(42.381 -2.10519e-08 0)
(42.3944 -2.3834e-08 0)
(42.4106 -2.53493e-08 0)
(42.429 -2.59211e-08 0)
(42.4491 -2.60255e-08 0)
(42.4702 -2.56983e-08 0)
(42.4916 -2.45397e-08 0)
(42.5126 -2.29138e-08 0)
(42.5329 -2.00385e-08 0)
(42.5517 -1.62939e-08 0)
(42.5689 -1.3515e-08 0)
(42.5841 -1.08639e-08 0)
(42.5971 -8.23123e-09 0)
(42.608 -5.88408e-09 0)
(42.6167 -3.65886e-09 0)
(42.6234 -1.6254e-09 0)
(42.6283 9.9667e-11 0)
(42.6316 1.56903e-09 0)
(42.6336 2.76365e-09 0)
(42.6345 3.7065e-09 0)
(42.6345 4.24732e-09 0)
(42.6339 4.91235e-09 0)
(42.6329 5.31654e-09 0)
(42.6315 5.48689e-09 0)
(42.63 5.58243e-09 0)
(42.6285 5.61697e-09 0)
(42.6269 5.55761e-09 0)
(42.6255 5.4834e-09 0)
(42.6241 5.37607e-09 0)
(42.6229 5.24544e-09 0)
(42.6218 5.14296e-09 0)
(42.6208 5.02162e-09 0)
(42.62 4.91081e-09 0)
(42.6193 4.81379e-09 0)
(42.6187 4.70698e-09 0)
(42.6182 4.63231e-09 0)
(42.6178 4.55128e-09 0)
(42.6175 4.47669e-09 0)
(42.6172 4.41941e-09 0)
(42.6171 4.34036e-09 0)
(42.617 4.29268e-09 0)
(42.617 4.26548e-09 0)
(42.617 4.20301e-09 0)
(42.6171 4.16392e-09 0)
(42.6173 4.10709e-09 0)
(42.6175 4.07816e-09 0)
(42.6177 4.05542e-09 0)
(42.618 4.03046e-09 0)
(42.6183 4.00555e-09 0)
(42.6186 3.97538e-09 0)
(42.6189 3.96033e-09 0)
(42.6193 3.95126e-09 0)
(42.6197 3.93409e-09 0)
(42.6201 3.92198e-09 0)
(42.6204 3.90354e-09 0)
(42.6208 3.88338e-09 0)
(42.6212 3.87414e-09 0)
(42.6216 3.8602e-09 0)
(42.622 3.8387e-09 0)
(42.6223 3.81728e-09 0)
(42.6227 3.7955e-09 0)
(42.623 3.7742e-09 0)
(42.6234 3.75315e-09 0)
(42.6237 3.73064e-09 0)
(42.624 3.71301e-09 0)
(42.6242 3.68805e-09 0)
(42.6245 3.65756e-09 0)
(42.6248 3.62739e-09 0)
(42.625 3.59778e-09 0)
(42.6252 3.56232e-09 0)
(42.6254 3.52458e-09 0)
(42.6256 3.48164e-09 0)
(42.6258 3.43625e-09 0)
(42.626 3.39402e-09 0)
(42.6261 3.35555e-09 0)
(42.6263 3.31868e-09 0)
(42.6264 3.28247e-09 0)
(42.6265 3.24842e-09 0)
(42.6266 3.22999e-09 0)
(42.6267 3.16075e-09 0)
(42.6268 3.13773e-09 0)
(42.6269 3.1153e-09 0)
(42.627 3.08318e-09 0)
(42.627 3.05189e-09 0)
(42.6271 3.00908e-09 0)
(42.6272 2.97478e-09 0)
(42.6273 2.9371e-09 0)
(42.6274 2.90255e-09 0)
(42.6274 2.86613e-09 0)
(42.6275 2.84541e-09 0)
(42.6276 2.80912e-09 0)
(42.6277 2.78002e-09 0)
(42.6277 2.74644e-09 0)
(42.6278 2.71498e-09 0)
(42.6279 2.68349e-09 0)
(42.628 2.65721e-09 0)
(42.628 2.63754e-09 0)
(42.6281 2.61804e-09 0)
(42.6281 2.58636e-09 0)
(42.6282 2.56817e-09 0)
(42.6282 2.55053e-09 0)
(42.6283 2.53616e-09 0)
(42.6283 2.54151e-09 0)
(42.6284 2.68787e-09 0)
(42.6284 3.46034e-09 0)
(42.6285 7.171e-09 0)
(42.6286 2.45797e-08 0)
(42.6287 1.12692e-07 0)
(42.6287 5.38928e-07 0)
(42.6288 2.59501e-06 0)
(42.6288 1.25573e-05 0)
(42.6289 6.07578e-05 0)
(42.6288 0.000293877 0)
(42.6284 0.00141901 0)
(42.6262 0.00675187 0)
(42.6154 0.0317541 0)
(42.5629 0.146929 0)
(42.3921 0.661216 0)
(40.6075 2.3519 0)
(42.7001 -3.60099e-05 0)
(42.7003 -2.77964e-05 0)
(42.7005 -1.9696e-05 0)
(42.7006 -1.62625e-05 0)
(42.7008 -1.33071e-05 0)
(42.7009 -1.05543e-05 0)
(42.7011 -8.16682e-06 0)
(42.7012 -6.10748e-06 0)
(42.7012 -4.37482e-06 0)
(42.7013 -2.9927e-06 0)
(42.7013 -1.94871e-06 0)
(42.7014 -1.20828e-06 0)
(42.7014 -7.14904e-07 0)
(42.7014 -4.04614e-07 0)
(42.7014 -2.20154e-07 0)
(42.7014 -1.16566e-07 0)
(42.7013 -6.08724e-08 0)
(42.7013 -3.24837e-08 0)
(42.7013 -1.86236e-08 0)
(42.7013 -1.21243e-08 0)
(42.7013 -9.18983e-09 0)
(42.7013 -7.91173e-09 0)
(42.7013 -7.37617e-09 0)
(42.7013 -7.16182e-09 0)
(42.7013 -7.07742e-09 0)
(42.7013 -7.04744e-09 0)
(42.7012 -7.03595e-09 0)
(42.7012 -7.03224e-09 0)
(42.7012 -7.03091e-09 0)
(42.7012 -7.03166e-09 0)
(42.7012 -7.03305e-09 0)
(42.7012 -7.03626e-09 0)
(42.7012 -7.0393e-09 0)
(42.7011 -7.04106e-09 0)
(42.7011 -7.04224e-09 0)
(42.7011 -7.04844e-09 0)
(42.701 -7.05425e-09 0)
(42.701 -7.05996e-09 0)
(42.7009 -7.06885e-09 0)
(42.7009 -7.07991e-09 0)
(42.7008 -7.09777e-09 0)
(42.7006 -7.12165e-09 0)
(42.7004 -7.15122e-09 0)
(42.7002 -7.19244e-09 0)
(42.6998 -7.24378e-09 0)
(42.6994 -7.31007e-09 0)
(42.6988 -7.39281e-09 0)
(42.698 -7.49779e-09 0)
(42.697 -7.62775e-09 0)
(42.6957 -7.78755e-09 0)
(42.6941 -7.98368e-09 0)
(42.6921 -8.22121e-09 0)
(42.6895 -8.50025e-09 0)
(42.6863 -8.82725e-09 0)
(42.6824 -9.20426e-09 0)
(42.6777 -9.63264e-09 0)
(42.672 -1.01094e-08 0)
(42.6652 -1.06251e-08 0)
(42.6571 -1.11759e-08 0)
(42.6477 -1.17448e-08 0)
(42.6369 -1.23157e-08 0)
(42.6246 -1.28618e-08 0)
(42.6107 -1.33553e-08 0)
(42.5953 -1.376e-08 0)
(42.5784 -1.40311e-08 0)
(42.5601 -1.4135e-08 0)
(42.5406 -1.40203e-08 0)
(42.5202 -1.36472e-08 0)
(42.4992 -1.29753e-08 0)
(42.4781 -1.19733e-08 0)
(42.4572 -1.06152e-08 0)
(42.4371 -8.89166e-09 0)
(42.4184 -6.81177e-09 0)
(42.4015 -4.39688e-09 0)
(42.387 -1.68672e-09 0)
(42.3755 1.26296e-09 0)
(42.3672 4.37848e-09 0)
(42.3626 7.53206e-09 0)
(42.3616 1.00094e-08 0)
(42.3644 1.34242e-08 0)
(42.3709 1.71734e-08 0)
(42.381 2.10522e-08 0)
(42.3944 2.38324e-08 0)
(42.4106 2.53499e-08 0)
(42.429 2.59225e-08 0)
(42.4491 2.60241e-08 0)
(42.4702 2.56968e-08 0)
(42.4916 2.45377e-08 0)
(42.5126 2.29123e-08 0)
(42.5329 2.00364e-08 0)
(42.5517 1.62915e-08 0)
(42.5689 1.35159e-08 0)
(42.5841 1.08654e-08 0)
(42.5971 8.23094e-09 0)
(42.608 5.88581e-09 0)
(42.6167 3.66185e-09 0)
(42.6234 1.62655e-09 0)
(42.6283 -9.85232e-11 0)
(42.6316 -1.56998e-09 0)
(42.6336 -2.76247e-09 0)
(42.6345 -3.70718e-09 0)
(42.6345 -4.24857e-09 0)
(42.6339 -4.91192e-09 0)
(42.6329 -5.31655e-09 0)
(42.6315 -5.48873e-09 0)
(42.63 -5.58428e-09 0)
(42.6285 -5.61872e-09 0)
(42.6269 -5.55733e-09 0)
(42.6255 -5.48421e-09 0)
(42.6241 -5.37802e-09 0)
(42.6229 -5.24583e-09 0)
(42.6218 -5.14335e-09 0)
(42.6208 -5.01861e-09 0)
(42.62 -4.90908e-09 0)
(42.6193 -4.8111e-09 0)
(42.6187 -4.70493e-09 0)
(42.6182 -4.63199e-09 0)
(42.6178 -4.54988e-09 0)
(42.6175 -4.47719e-09 0)
(42.6172 -4.41845e-09 0)
(42.6171 -4.33878e-09 0)
(42.617 -4.29447e-09 0)
(42.617 -4.26606e-09 0)
(42.617 -4.20394e-09 0)
(42.6171 -4.16499e-09 0)
(42.6173 -4.10648e-09 0)
(42.6175 -4.07881e-09 0)
(42.6177 -4.05584e-09 0)
(42.618 -4.03122e-09 0)
(42.6183 -4.00527e-09 0)
(42.6186 -3.97616e-09 0)
(42.6189 -3.9628e-09 0)
(42.6193 -3.95357e-09 0)
(42.6197 -3.93488e-09 0)
(42.6201 -3.92071e-09 0)
(42.6204 -3.90381e-09 0)
(42.6208 -3.88446e-09 0)
(42.6212 -3.87375e-09 0)
(42.6216 -3.85646e-09 0)
(42.622 -3.83612e-09 0)
(42.6223 -3.8158e-09 0)
(42.6227 -3.79357e-09 0)
(42.623 -3.77373e-09 0)
(42.6234 -3.75336e-09 0)
(42.6237 -3.73322e-09 0)
(42.624 -3.71464e-09 0)
(42.6242 -3.68707e-09 0)
(42.6245 -3.65604e-09 0)
(42.6248 -3.62877e-09 0)
(42.625 -3.59752e-09 0)
(42.6252 -3.56332e-09 0)
(42.6254 -3.52378e-09 0)
(42.6256 -3.48201e-09 0)
(42.6258 -3.43734e-09 0)
(42.626 -3.39234e-09 0)
(42.6261 -3.35427e-09 0)
(42.6263 -3.31802e-09 0)
(42.6264 -3.28082e-09 0)
(42.6265 -3.24905e-09 0)
(42.6266 -3.22875e-09 0)
(42.6267 -3.16095e-09 0)
(42.6268 -3.14038e-09 0)
(42.6269 -3.11933e-09 0)
(42.627 -3.08593e-09 0)
(42.627 -3.05263e-09 0)
(42.6271 -3.00828e-09 0)
(42.6272 -2.97441e-09 0)
(42.6273 -2.93629e-09 0)
(42.6274 -2.90227e-09 0)
(42.6274 -2.86505e-09 0)
(42.6275 -2.84351e-09 0)
(42.6276 -2.81004e-09 0)
(42.6277 -2.77878e-09 0)
(42.6277 -2.74601e-09 0)
(42.6278 -2.71404e-09 0)
(42.6279 -2.68193e-09 0)
(42.628 -2.65793e-09 0)
(42.628 -2.63649e-09 0)
(42.6281 -2.6188e-09 0)
(42.6281 -2.58528e-09 0)
(42.6282 -2.56845e-09 0)
(42.6282 -2.54722e-09 0)
(42.6283 -2.51746e-09 0)
(42.6283 -2.4712e-09 0)
(42.6284 -2.27416e-09 0)
(42.6284 -1.47317e-09 0)
(42.6285 2.31613e-09 0)
(42.6286 2.05968e-08 0)
(42.6287 1.09688e-07 0)
(42.6287 5.36528e-07 0)
(42.6288 2.59333e-06 0)
(42.6289 1.2563e-05 0)
(42.6289 6.07948e-05 0)
(42.629 0.000294288 0)
(42.6295 0.00142383 0)
(42.6316 0.00685422 0)
(42.6409 0.032797 0)
(42.6791 0.156728 0)
(42.8143 0.75127 0)
(43.3239 2.64542 0)
(42.7001 -0.000119147 0)
(42.7003 -0.000101866 0)
(42.7005 -9.78871e-05 0)
(42.7007 -9.87878e-05 0)
(42.7008 -9.48951e-05 0)
(42.701 -8.68293e-05 0)
(42.7011 -7.5565e-05 0)
(42.7012 -6.22045e-05 0)
(42.7013 -4.8281e-05 0)
(42.7013 -3.53081e-05 0)
(42.7013 -2.4339e-05 0)
(42.7014 -1.58408e-05 0)
(42.7014 -9.76049e-06 0)
(42.7014 -5.71342e-06 0)
(42.7014 -3.19395e-06 0)
(42.7014 -1.72128e-06 0)
(42.7013 -9.07557e-07 0)
(42.7013 -4.82341e-07 0)
(42.7013 -2.71142e-07 0)