/*--------------------------------*- C++ -*----------------------------------*\
| =========                 |                                                 |
| \\      /  F ield         | OpenFOAM: The Open Source CFD Toolbox           |
|  \\    /   O peration     | Version:  3.0.x                                 |
|   \\  /    A nd           | Web:      www.OpenFOAM.org                      |
|    \\/     M anipulation  |                                                 |
\*---------------------------------------------------------------------------*/
FoamFile
{
    version     2.0;
    format      ascii;
    class       volScalarField;
    location    "0.41";
    object      rho;
}
// * * * * * * * * * * * * * * * * * * * * * * * * * * * * * * * * * * * * * //

dimensions      [1 -3 0 0 0 0 0];

internalField   nonuniform List<scalar> 
6900
(
50.9164
50.9164
50.9164
50.9165
50.9165
50.9166
50.9166
50.9167
50.9168
50.9169
50.917
50.9171
50.9171
50.9172
50.9173
50.9174
50.9174
50.9175
50.9175
50.9176
50.9176
50.9176
50.9176
50.9176
50.9176
50.9176
50.9177
50.9178
50.918
50.9181
50.9182
50.9182
50.9183
50.9183
50.9183
50.9183
50.9183
50.9184
50.9186
50.9188
50.919
50.9193
50.9196
50.92
50.9203
50.9206
50.9209
50.9211
50.9213
50.9214
50.9216
50.9218
50.922
50.9222
50.9225
50.9227
50.9229
50.9231
50.9232
50.9233
50.9234
50.9234
50.9234
50.9234
50.9234
50.9233
50.9233
50.9232
50.9232
50.9231
50.923
50.923
50.923
50.923
50.923
50.923
50.923
50.9231
50.9232
50.9233
50.9234
50.9235
50.9236
50.9237
50.9239
50.924
50.9241
50.9243
50.9244
50.9245
50.9246
50.9246
50.9247
50.9247
50.9247
50.9247
50.9247
50.9246
50.9246
50.9245
50.9244
50.9243
50.9242
50.9241
50.924
50.9239
50.9238
50.9238
50.9237
50.9237
50.9236
50.9237
50.9237
50.9237
50.9238
50.9239
50.924
50.9242
50.9243
50.9244
50.9246
50.9248
50.9249
50.9251
50.9252
50.9253
50.9254
50.9254
50.9255
50.9255
50.9254
50.9254
50.9253
50.9252
50.9251
50.925
50.9248
50.9247
50.9245
50.9244
50.9242
50.9241
50.924
50.9239
50.9238
50.9238
50.9237
50.9238
50.9238
50.9239
50.924
50.9242
50.9244
50.9246
50.9249
50.9251
50.9254
50.9256
50.9259
50.9261
50.9263
50.9265
50.9267
50.9268
50.9269
50.9269
50.9269
50.9269
50.9269
50.9269
50.9268
50.9267
50.9267
50.9266
50.9265
50.9265
50.9264
50.9264
50.9264
50.9265
50.9266
50.9267
50.927
50.9272
50.9276
50.928
50.9285
50.929
50.9297
50.9304
50.9311
50.9318
50.9326
50.9334
50.9342
50.935
50.9358
50.9364
50.9375
50.9352
50.9166
50.9166
50.9166
50.9167
50.9167
50.9168
50.9168
50.9169
50.917
50.9171
50.9171
50.9172
50.9173
50.9174
50.9175
50.9176
50.9176
50.9177
50.9177
50.9178
50.9178
50.9178
50.9178
50.9178
50.9178
50.9178
50.9178
50.918
50.9181
50.9182
50.9183
50.9184
50.9184
50.9184
50.9184
50.9184
50.9185
50.9186
50.9188
50.9189
50.9192
50.9195
50.9198
50.9201
50.9204
50.9208
50.921
50.9212
50.9214
50.9216
50.9217
50.9219
50.9221
50.9224
50.9226
50.9228
50.9231
50.9232
50.9234
50.9235
50.9235
50.9236
50.9236
50.9235
50.9235
50.9235
50.9234
50.9233
50.9233
50.9232
50.9232
50.9231
50.9231
50.9231
50.9231
50.9231
50.9232
50.9232
50.9233
50.9234
50.9235
50.9236
50.9237
50.9239
50.924
50.9241
50.9243
50.9244
50.9245
50.9246
50.9247
50.9248
50.9248
50.9249
50.9249
50.9249
50.9248
50.9248
50.9247
50.9246
50.9245
50.9244
50.9243
50.9242
50.9241
50.924
50.924
50.9239
50.9238
50.9238
50.9238
50.9238
50.9238
50.9239
50.9239
50.924
50.9241
50.9243
50.9244
50.9246
50.9247
50.9249
50.925
50.9252
50.9253
50.9254
50.9255
50.9256
50.9256
50.9256
50.9256
50.9255
50.9255
50.9254
50.9252
50.9251
50.925
50.9248
50.9247
50.9245
50.9244
50.9242
50.9241
50.924
50.9239
50.9239
50.9239
50.9239
50.9239
50.924
50.9242
50.9243
50.9245
50.9247
50.925
50.9252
50.9255
50.9258
50.926
50.9262
50.9264
50.9266
50.9268
50.9269
50.927
50.927
50.9271
50.9271
50.927
50.927
50.9269
50.9269
50.9268
50.9267
50.9267
50.9266
50.9266
50.9266
50.9266
50.9266
50.9267
50.9269
50.9271
50.9274
50.9277
50.9281
50.9286
50.9292
50.9298
50.9305
50.9312
50.932
50.9328
50.9336
50.9344
50.9351
50.9359
50.9365
50.9376
50.9356
50.9166
50.9166
50.9166
50.9167
50.9167
50.9168
50.9168
50.9169
50.917
50.9171
50.9171
50.9172
50.9173
50.9174
50.9175
50.9176
50.9176
50.9177
50.9177
50.9178
50.9178
50.9178
50.9178
50.9178
50.9178
50.9178
50.9178
50.918
50.9181
50.9182
50.9183
50.9184
50.9184
50.9184
50.9184
50.9184
50.9185
50.9186
50.9188
50.9189
50.9192
50.9195
50.9198
50.9201
50.9204
50.9208
50.921
50.9212
50.9214
50.9216
50.9217
50.9219
50.9221
50.9224
50.9226
50.9228
50.9231
50.9232
50.9234
50.9235
50.9235
50.9236
50.9236
50.9235
50.9235
50.9235
50.9234
50.9233
50.9233
50.9232
50.9232
50.9231
50.9231
50.9231
50.9231
50.9231
50.9232
50.9232
50.9233
50.9234
50.9235
50.9236
50.9237
50.9239
50.924
50.9241
50.9243
50.9244
50.9245
50.9246
50.9247
50.9248
50.9248
50.9249
50.9249
50.9249
50.9248
50.9248
50.9247
50.9246
50.9245
50.9244
50.9243
50.9242
50.9241
50.924
50.924
50.9239
50.9238
50.9238
50.9238
50.9238
50.9238
50.9239
50.9239
50.924
50.9241
50.9243
50.9244
50.9246
50.9247
50.9249
50.925
50.9252
50.9253
50.9254
50.9255
50.9256
50.9256
50.9256
50.9256
50.9255
50.9255
50.9254
50.9252
50.9251
50.925
50.9248
50.9247
50.9245
50.9244
50.9242
50.9241
50.924
50.9239
50.9239
50.9239
50.9239
50.9239
50.924
50.9242
50.9243
50.9245
50.9247
50.925
50.9252
50.9255
50.9258
50.926
50.9262
50.9264
50.9266
50.9268
50.9269
50.927
50.927
50.9271
50.9271
50.927
50.927
50.9269
50.9269
50.9268
50.9267
50.9267
50.9266
50.9266
50.9266
50.9266
50.9266
50.9267
50.9269
50.9271
50.9274
50.9277
50.9281
50.9286
50.9292
50.9298
50.9305
50.9312
50.932
50.9328
50.9336
50.9344
50.9351
50.9359
50.9366
50.9373
50.9378
50.9166
50.9166
50.9166
50.9167
50.9167
50.9168
50.9168
50.9169
50.917
50.9171
50.9171
50.9172
50.9173
50.9174
50.9175
50.9176
50.9176
50.9177
50.9177
50.9178
50.9178
50.9178
50.9178
50.9178
50.9178
50.9178
50.9178
50.918
50.9181
50.9182
50.9183
50.9184
50.9184
50.9184
50.9184
50.9184
50.9185
50.9186
50.9188
50.9189
50.9192
50.9195
50.9198
50.9201
50.9204
50.9208
50.921
50.9212
50.9214
50.9216
50.9217
50.9219
50.9221
50.9224
50.9226
50.9228
50.9231
50.9232
50.9234
50.9235
50.9235
50.9236
50.9236
50.9235
50.9235
50.9235
50.9234
50.9233
50.9233
50.9232
50.9232
50.9231
50.9231
50.9231
50.9231
50.9231
50.9232
50.9232
50.9233
50.9234
50.9235
50.9236
50.9237
50.9239
50.924
50.9241
50.9243
50.9244
50.9245
50.9246
50.9247
50.9248
50.9248
50.9249
50.9249
50.9249
50.9248
50.9248
50.9247
50.9246
50.9245
50.9244
50.9243
50.9242
50.9241
50.924
50.924
50.9239
50.9238
50.9238
50.9238
50.9238
50.9238
50.9239
50.9239
50.924
50.9241
50.9243
50.9244
50.9246
50.9247
50.9249
50.925
50.9252
50.9253
50.9254
50.9255
50.9256
50.9256
50.9256
50.9256
50.9255
50.9255
50.9254
50.9252
50.9251
50.925
50.9248
50.9247
50.9245
50.9244
50.9242
50.9241
50.924
50.9239
50.9239
50.9239
50.9239
50.9239
50.924
50.9242
50.9243
50.9245
50.9247
50.925
50.9252
50.9255
50.9258
50.926
50.9262
50.9264
50.9266
50.9268
50.9269
50.927
50.927
50.9271
50.9271
50.927
50.927
50.9269
50.9269
50.9268
50.9267
50.9267
50.9266
50.9266
50.9266
50.9266
50.9266
50.9267
50.9269
50.9271
50.9274
50.9277
50.9281
50.9286
50.9292
50.9298
50.9305
50.9312
50.932
50.9328
50.9336
50.9344
50.9352
50.9358
50.9366
50.9364
50.9434
50.9164
50.9164
50.9164
50.9165
50.9165
50.9166
50.9166
50.9167
50.9168
50.9169
50.917
50.9171
50.9171
50.9172
50.9173
50.9174
50.9174
50.9175
50.9175
50.9176
50.9176
50.9176
50.9176
50.9176
50.9176
50.9176
50.9177
50.9178
50.918
50.9181
50.9182
50.9182
50.9183
50.9183
50.9183
50.9183
50.9183
50.9184
50.9186
50.9188
50.919
50.9193
50.9196
50.92
50.9203
50.9206
50.9209
50.9211
50.9213
50.9214
50.9216
50.9218
50.922
50.9222
50.9225
50.9227
50.9229
50.9231
50.9232
50.9233
50.9234
50.9234
50.9234
50.9234
50.9234
50.9233
50.9233
50.9232
50.9232
50.9231
50.923
50.923
50.923
50.923
50.923
50.923
50.923
50.9231
50.9232
50.9233
50.9234
50.9235
50.9236
50.9237
50.9239
50.924
50.9241
50.9243
50.9244
50.9245
50.9246
50.9246
50.9247
50.9247
50.9247
50.9247
50.9247
50.9246
50.9246
50.9245
50.9244
50.9243
50.9242
50.9241
50.924
50.9239
50.9238
50.9238
50.9237
50.9237
50.9236
50.9237
50.9237
50.9237
50.9238
50.9239
50.924
50.9242
50.9243
50.9244
50.9246
50.9248
50.9249
50.9251
50.9252
50.9253
50.9254
50.9254
50.9255
50.9255
50.9254
50.9254
50.9253
50.9252
50.9251
50.925
50.9248
50.9247
50.9245
50.9244
50.9242
50.9241
50.924
50.9239
50.9238
50.9238
50.9237
50.9238
50.9238
50.9239
50.924
50.9242
50.9244
50.9246
50.9249
50.9251
50.9254
50.9256
50.9259
50.9261
50.9263
50.9265
50.9267
50.9268
50.9269
50.9269
50.9269
50.9269
50.9269
50.9269
50.9268
50.9267
50.9267
50.9266
50.9265
50.9265
50.9264
50.9264
50.9264
50.9265
50.9266
50.9267
50.927
50.9272
50.9276
50.928
50.9285
50.929
50.9297
50.9304
50.9311
50.9319
50.9326
50.9334
50.9342
50.935
50.9357
50.9365
50.9357
50.9492
50.9543
50.9614
50.9624
50.9606
50.9591
50.9579
50.9559
50.9521
50.9476
50.944
50.9424
50.9466
50.953
50.9536
50.9438
50.9261
50.9105
50.9
50.8897
50.8836
50.9508
50.9544
50.9544
50.9529
50.9515
50.9502
50.9483
50.9444
50.94
50.9366
50.9351
50.9398
50.9467
50.9454
50.9327
50.9125
50.8986
50.8891
50.8802
50.8746
50.939
50.939
50.938
50.9359
50.9331
50.9296
50.9254
50.9207
50.9149
50.9081
50.9001
50.8908
50.8808
50.8713
50.8631
50.8554
50.8462
50.8354
50.824
50.8112
50.9153
50.9123
50.9133
50.915
50.9141
50.9105
50.9049
50.8977
50.8916
50.8838
50.8774
50.8704
50.8631
50.8568
50.8504
50.8446
50.8394
50.8355
50.8325
50.8304
50.9054
50.8929
50.8884
50.8879
50.8859
50.8809
50.8743
50.8659
50.8582
50.8492
50.841
50.8324
50.8244
50.8162
50.8087
50.8015
50.7955
50.7904
50.7868
50.785
50.8612
50.8358
50.8235
50.8213
50.8213
50.8216
50.8206
50.8204
50.8214
50.8222
50.8229
50.8236
50.8246
50.8256
50.8267
50.8277
50.8288
50.83
50.8312
50.8325
50.8338
50.8351
50.8365
50.8378
50.8392
50.8406
50.8421
50.8435
50.8449
50.8463
50.8478
50.8492
50.8506
50.8521
50.8535
50.855
50.8565
50.858
50.8595
50.8611
50.8627
50.8644
50.866
50.8677
50.8695
50.8712
50.873
50.8748
50.8767
50.8785
50.8805
50.8824
50.8844
50.8864
50.8885
50.8906
50.8927
50.8949
50.8972
50.8995
50.9018
50.9043
50.9067
50.9094
50.9121
50.9147
50.9175
50.9205
50.9234
50.9261
50.9287
50.9313
50.9344
50.9374
50.9406
50.9437
50.9468
50.95
50.9532
50.9564
50.9597
50.9629
50.9663
50.9698
50.9735
50.977
50.9805
50.9838
50.987
50.9905
50.9942
50.9981
51.0016
51.0034
51.0022
51.0019
51.0038
51.0078
51.0131
51.0214
51.0312
51.0388
51.0445
51.0493
51.0538
51.0577
51.0613
51.065
51.0689
51.0729
51.077
51.0812
51.0856
51.09
51.0945
51.099
51.1037
51.1084
51.1131
51.1179
51.1228
51.1277
51.1326
51.1376
51.1426
51.1477
51.1527
51.1579
51.163
51.1682
51.1734
51.1786
51.1838
51.1891
51.1944
51.1997
51.2051
51.2104
51.2158
51.2212
51.2266
51.2321
51.2376
51.2431
51.2487
51.2543
51.2599
51.2655
51.2712
51.2769
51.2827
51.2885
51.2944
51.3003
51.3062
51.3122
51.3183
51.3244
51.3306
51.3368
51.3431
51.3494
51.3558
51.3623
51.3688
51.3754
51.3821
51.3888
51.3956
51.4024
51.4092
51.4161
51.4231
51.4301
51.4371
51.4442
51.4513
51.4584
51.4655
51.4727
51.4799
51.4871
51.4944
51.5017
51.5089
51.5163
51.5235
51.531
51.5383
51.5459
51.5531
51.5609
51.5681
51.5759
51.5831
51.5911
51.5983
51.6064
51.6125
51.625
50.8595
50.835
50.8231
50.8206
50.8204
50.8204
50.8195
50.8194
50.8202
50.8211
50.8217
50.8225
50.8234
50.8244
50.8255
50.8266
50.8277
50.8289
50.8301
50.8314
50.8327
50.834
50.8354
50.8368
50.8382
50.8396
50.841
50.8424
50.8438
50.8453
50.8467
50.8481
50.8495
50.851
50.8524
50.8539
50.8554
50.8569
50.8585
50.8601
50.8617
50.8634
50.8651
50.8668
50.8685
50.8703
50.8721
50.8739
50.8757
50.8776
50.8795
50.8815
50.8834
50.8854
50.8875
50.8896
50.8917
50.8938
50.8961
50.8984
50.9007
50.9031
50.9056
50.9081
50.9106
50.9132
50.9157
50.9187
50.9216
50.9244
50.9272
50.9301
50.9331
50.9362
50.9393
50.9424
50.9455
50.9486
50.9516
50.9548
50.9581
50.9615
50.9649
50.9683
50.9715
50.9748
50.978
50.9814
50.985
50.9889
50.9926
50.9955
50.996
50.9957
50.9967
50.9995
51.0037
51.0091
51.0173
51.0266
51.034
51.0397
51.0446
51.0492
51.0534
51.0571
51.0608
51.0647
51.0687
51.0728
51.077
51.0813
51.0856
51.0901
51.0946
51.0991
51.1038
51.1085
51.1132
51.118
51.1229
51.1278
51.1327
51.1377
51.1427
51.1478
51.1529
51.158
51.1631
51.1683
51.1735
51.1787
51.184
51.1892
51.1945
51.1998
51.2052
51.2105
51.2159
51.2213
51.2268
51.2322
51.2377
51.2432
51.2488
51.2544
51.26
51.2656
51.2713
51.2771
51.2828
51.2886
51.2945
51.3004
51.3063
51.3123
51.3184
51.3245
51.3307
51.3369
51.3432
51.3496
51.356
51.3624
51.369
51.3756
51.3822
51.3889
51.3957
51.4025
51.4094
51.4163
51.4232
51.4302
51.4372
51.4443
51.4514
51.4585
51.4657
51.4728
51.48
51.4873
51.4945
51.5018
51.509
51.5164
51.5237
51.5311
51.5384
51.546
51.5532
51.561
51.5682
51.576
51.5832
51.5912
51.5984
51.6065
51.6129
51.6223
50.775
50.7887
50.7991
50.8012
50.8008
50.8004
50.801
50.8019
50.8026
50.8034
50.8043
50.8052
50.8062
50.8072
50.8083
50.8095
50.8108
50.812
50.8133
50.8146
50.816
50.8173
50.8186
50.82
50.8213
50.8227
50.8242
50.8257
50.8272
50.8288
50.8303
50.8319
50.8335
50.835
50.8366
50.8382
50.8398
50.8414
50.8429
50.8445
50.8461
50.8477
50.8492
50.8509
50.8525
50.8542
50.856
50.8578
50.8596
50.8615
50.8634
50.8653
50.8673
50.8693
50.8712
50.8733
50.8754
50.8775
50.8796
50.8818
50.8839
50.8861
50.8883
50.8907
50.8931
50.8956
50.8981
50.9009
50.9038
50.9072
50.9112
50.9168
50.9231
50.929
50.9344
50.9395
50.9441
50.9482
50.952
50.9559
50.9595
50.963
50.9664
50.9698
50.9732
50.9767
50.9802
50.9838
50.9875
50.9913
50.9952
50.9992
51.0032
51.0073
51.0114
51.0155
51.0197
51.0238
51.0279
51.0319
51.0358
51.0398
51.0437
51.0477
51.0517
51.0557
51.0598
51.0639
51.0681
51.0724
51.0767
51.081
51.0855
51.0899
51.0945
51.0991
51.1037
51.1084
51.1132
51.118
51.1229
51.1278
51.1327
51.1377
51.1427
51.1478
51.1529
51.158
51.1631
51.1683
51.1735
51.1787
51.184
51.1892
51.1945
51.1998
51.2052
51.2105
51.2159
51.2213
51.2268
51.2322
51.2377
51.2432
51.2488
51.2544
51.26
51.2656
51.2713
51.2771
51.2828
51.2886
51.2945
51.3004
51.3063
51.3123
51.3184
51.3245
51.3307
51.3369
51.3432
51.3496
51.356
51.3624
51.369
51.3756
51.3822
51.3889
51.3957
51.4025
51.4094
51.4163
51.4232
51.4302
51.4372
51.4443
51.4514
51.4585
51.4657
51.4728
51.48
51.4873
51.4945
51.5018
51.5091
51.5164
51.5237
51.531
51.5385
51.5459
51.5534
51.5608
51.5683
51.5759
51.5834
51.591
51.5988
51.6061
51.6141
51.6218
50.8238
50.8211
50.8199
50.8192
50.8186
50.8184
50.819
50.8199
50.8208
50.8215
50.8222
50.8232
50.8241
50.8251
50.8262
50.8272
50.8284
50.8295
50.8308
50.832
50.8333
50.8346
50.8359
50.8373
50.8386
50.84
50.8415
50.8429
50.8443
50.8458
50.8472
50.8487
50.8502
50.8516
50.8531
50.8546
50.8561
50.8576
50.8591
50.8606
50.8622
50.8638
50.8655
50.8671
50.8688
50.8706
50.8723
50.8741
50.876
50.8778
50.8798
50.8817
50.8837
50.8858
50.8878
50.89
50.8922
50.8944
50.8968
50.8991
50.9016
50.904
50.9066
50.9091
50.9117
50.9143
50.917
50.9197
50.9224
50.9252
50.9281
50.9312
50.9342
50.9372
50.9402
50.9434
50.9466
50.9496
50.9526
50.9557
50.959
50.9623
50.9653
50.9681
50.9708
50.9742
50.9776
50.9806
50.9828
50.9844
50.9863
50.9888
50.9922
50.9965
51.0012
51.0073
51.0153
51.0223
51.028
51.0328
51.0373
51.0416
51.0454
51.049
51.0528
51.0566
51.0604
51.0644
51.0685
51.0727
51.0769
51.0812
51.0856
51.09
51.0945
51.0991
51.1038
51.1085
51.1132
51.118
51.1229
51.1278
51.1327
51.1377
51.1427
51.1478
51.1529
51.158
51.1631
51.1683
51.1735
51.1787
51.184
51.1892
51.1945
51.1998
51.2052
51.2105
51.2159
51.2213
51.2268
51.2322
51.2377
51.2432
51.2488
51.2544
51.26
51.2656
51.2713
51.2771
51.2828
51.2886
51.2945
51.3004
51.3063
51.3123
51.3184
51.3245
51.3307
51.3369
51.3432
51.3496
51.356
51.3624
51.369
51.3756
51.3822
51.3889
51.3957
51.4025
51.4094
51.4163
51.4232
51.4302
51.4372
51.4443
51.4514
51.4585
51.4657
51.4728
51.48
51.4873
51.4945
51.5018
51.5091
51.5163
51.5237
51.531
51.5385
51.5458
51.5534
51.5607
51.5685
51.5757
51.5836
51.5908
51.5989
51.6061
51.6145
51.6218
50.8078
50.8115
50.8109
50.8106
50.8102
50.81
50.8105
50.8114
50.8122
50.813
50.8138
50.8147
50.8156
50.8166
50.8176
50.8187
50.8198
50.821
50.8222
50.8235
50.8248
50.8261
50.8274
50.8288
50.8302
50.8317
50.8331
50.8346
50.836
50.8375
50.839
50.8404
50.8419
50.8433
50.8448
50.8463
50.8478
50.8493
50.8508
50.8524
50.854
50.8557
50.8573
50.859
50.8608
50.8625
50.8643
50.8662
50.8681
50.87
50.872
50.874
50.876
50.8781
50.8802
50.8824
50.8846
50.8868
50.8891
50.8915
50.8938
50.8963
50.8987
50.9013
50.9038
50.9065
50.9092
50.912
50.9148
50.9176
50.9206
50.9236
50.9266
50.9297
50.9327
50.9358
50.939
50.9423
50.9455
50.9485
50.9514
50.9544
50.9577
50.9613
50.9651
50.9684
50.9701
50.969
50.9688
50.9706
50.9744
50.9792
50.9863
50.9957
51.0039
51.0108
51.0168
51.022
51.0266
51.0311
51.0355
51.0395
51.0435
51.0476
51.0516
51.0556
51.0597
51.0638
51.068
51.0723
51.0766
51.0809
51.0853
51.0898
51.0944
51.099
51.1036
51.1083
51.1131
51.1179
51.1227
51.1276
51.1326
51.1376
51.1426
51.1476
51.1527
51.1579
51.163
51.1682
51.1734
51.1786
51.1838
51.1891
51.1944
51.1997
51.2051
51.2104
51.2158
51.2212
51.2266
51.2321
51.2376
51.2431
51.2487
51.2543
51.2599
51.2655
51.2712
51.2769
51.2827
51.2885
51.2944
51.3003
51.3062
51.3122
51.3183
51.3244
51.3306
51.3368
51.3431
51.3494
51.3558
51.3623
51.3688
51.3754
51.3821
51.3888
51.3956
51.4024
51.4092
51.4161
51.4231
51.4301
51.4371
51.4442
51.4513
51.4584
51.4655
51.4727
51.4799
51.4871
51.4944
51.5016
51.509
51.5162
51.5236
51.5309
51.5384
51.5457
51.5533
51.5606
51.5684
51.5756
51.5835
51.5907
51.5988
51.606
51.6143
51.6217
51.6117
51.6062
51.605
51.6058
51.6057
51.6042
51.6016
51.5988
51.5956
51.5924
51.589
51.5861
51.5828
51.5797
51.5769
51.5742
51.5717
51.5697
51.5685
51.5685
51.6174
51.6176
51.6197
51.6216
51.622
51.6212
51.6193
51.6172
51.6148
51.6125
51.6099
51.6081
51.6054
51.6034
51.601
51.5991
51.5972
51.5956
51.5947
51.5947
51.6269
51.6287
51.6299
51.6304
51.6305
51.63
51.6291
51.6278
51.6262
51.6242
51.6215
51.6178
51.6136
51.6087
51.6028
51.5973
51.5929
51.5898
51.5866
51.5824
51.6327
51.6364
51.6384
51.6395
51.6407
51.6425
51.6445
51.6453
51.6435
51.6404
51.6388
51.6378
51.6383
51.6435
51.6548
51.6621
51.6594
51.6456
51.6271
51.6151
51.6349
51.6405
51.6429
51.644
51.6452
51.6468
51.6487
51.6496
51.6481
51.6452
51.6434
51.6419
51.6422
51.6472
51.6577
51.6664
51.6657
51.6549
51.638
51.6243
51.5864
51.5958
51.6026
51.6092
51.6159
51.6228
51.6299
51.6372
51.6448
51.6525
51.6601
51.6678
51.6756
51.6835
51.6915
51.6995
51.7076
51.7157
51.7239
51.7322
51.7404
51.7488
51.7571
51.7655
51.774
51.7824
51.791
51.7995
51.8081
51.8167
51.8253
51.834
51.8427
51.8515
51.8602
51.869
51.8779
51.8867
51.8956
51.9044
51.9133
51.9222
51.9311
51.94
51.949
51.9579
51.9669
51.9758
51.9848
51.9938
52.0029
52.0119
52.0209
52.0299
52.0389
52.0479
52.0569
52.0659
52.0749
52.0838
52.0928
52.1018
52.1108
52.1198
52.1288
52.1378
52.1468
52.1558
52.1648
52.1738
52.1829
52.192
52.2011
52.2101
52.2192
52.2283
52.2375
52.2467
52.2555
52.2639
52.2725
52.2819
52.2922
52.3024
52.3111
52.3154
52.3188
52.3248
52.3338
52.3448
52.3572
52.3725
52.3869
52.3994
52.4109
52.4221
52.4326
52.4429
52.4513
52.4618
51.5943
51.6015
51.6081
51.6149
51.6216
51.6287
51.6362
51.6438
51.6515
51.6593
51.6672
51.6751
51.6831
51.6912
51.6993
51.7074
51.7155
51.7238
51.732
51.7403
51.7487
51.757
51.7654
51.7738
51.7823
51.7908
51.7993
51.8078
51.8164
51.825
51.8336
51.8422
51.8509
51.8596
51.8683
51.8771
51.8859
51.8947
51.9035
51.9124
51.9213
51.9302
51.9391
51.948
51.957
51.9659
51.9748
51.9838
51.9928
52.0017
52.0107
52.0196
52.0286
52.0376
52.0466
52.0556
52.0645
52.0735
52.0826
52.0915
52.1005
52.1095
52.1185
52.1275
52.1364
52.1455
52.1545
52.1634
52.1725
52.1815
52.1905
52.1996
52.2086
52.2175
52.2267
52.2359
52.2449
52.2537
52.2626
52.272
52.2811
52.2897
52.2981
52.307
52.3162
52.3254
52.3339
52.3416
52.3485
52.3557
52.3639
52.3737
52.3846
52.3962
52.4089
52.4214
52.4329
52.444
52.454
52.4633
51.5662
51.5803
51.5906
51.5981
51.6047
51.6117
51.6189
51.6264
51.6342
51.642
51.6499
51.6578
51.6658
51.674
51.6822
51.6904
51.6987
51.707
51.7154
51.7238
51.7321
51.7405
51.749
51.7574
51.7658
51.7743
51.7828
51.7913
51.7998
51.8083
51.8169
51.8256
51.8343
51.8431
51.8519
51.8607
51.8696
51.8785
51.8873
51.8962
51.9051
51.914
51.9229
51.9318
51.9407
51.9496
51.9586
51.9675
51.9765
51.9854
51.9944
52.0033
52.0122
52.0211
52.0299
52.0388
52.0477
52.0566
52.0654
52.0742
52.083
52.0918
52.1006
52.1093
52.1179
52.1266
52.1355
52.145
52.1551
52.1658
52.1769
52.189
52.2008
52.2119
52.2227
52.2334
52.2436
52.2532
52.2627
52.2721
52.2814
52.2906
52.2998
52.3091
52.3184
52.3278
52.3373
52.3468
52.3564
52.366
52.3757
52.3853
52.3952
52.4047
52.4147
52.4241
52.4336
52.4432
52.4524
52.4618
51.5933
51.6071
51.6188
51.6182
51.6221
51.6303
51.6384
51.6453
51.6522
51.66
51.668
51.6763
51.684
51.6916
51.6995
51.7079
51.7162
51.7242
51.7322
51.7404
51.7487
51.757
51.7654
51.7738
51.7822
51.7906
51.7991
51.8076
51.8161
51.8247
51.8332
51.8419
51.8505
51.8592
51.868
51.8767
51.8855
51.8943
51.9031
51.9119
51.9208
51.9296
51.9385
51.9474
51.9563
51.9653
51.9742
51.9832
51.9922
52.0013
52.0103
52.0193
52.0283
52.0372
52.0462
52.0552
52.0642
52.0731
52.082
52.091
52.0999
52.1088
52.1178
52.1268
52.1357
52.1446
52.1536
52.1626
52.1716
52.1806
52.1896
52.1986
52.2076
52.2166
52.2255
52.2344
52.2435
52.2526
52.2618
52.2709
52.28
52.2891
52.2984
52.3076
52.3164
52.3252
52.3345
52.3447
52.3551
52.3646
52.3713
52.3755
52.3805
52.3877
52.3974
52.4086
52.4217
52.4366
52.4494
52.4611
51.5961
51.6077
51.6195
51.6192
51.6232
51.6317
51.6409
51.6472
51.6537
51.6616
51.67
51.6781
51.6857
51.6931
51.7011
51.7094
51.7177
51.7256
51.7336
51.7416
51.7499
51.7582
51.7665
51.7748
51.7832
51.7916
51.8001
51.8086
51.8171
51.8257
51.8343
51.8429
51.8515
51.8602
51.869
51.8777
51.8865
51.8953
51.9041
51.913
51.9218
51.9307
51.9396
51.9485
51.9574
51.9663
51.9753
51.9842
51.9932
52.0022
52.0112
52.0202
52.0292
52.0382
52.0472
52.0562
52.0652
52.0742
52.0831
52.0921
52.101
52.1099
52.1189
52.1279
52.1368
52.1458
52.1547
52.1637
52.1726
52.1816
52.1906
52.1997
52.2087
52.2178
52.2269
52.2359
52.2449
52.254
52.2631
52.2724
52.2816
52.2909
52.3001
52.3096
52.3191
52.3283
52.337
52.3457
52.3552
52.3654
52.3757
52.3848
52.3899
52.3926
52.398
52.4068
52.4178
52.4311
52.4457
52.4597
52.4611
52.4599
52.4606
52.4622
52.4634
52.4643
52.4647
52.465
52.4653
52.4655
52.4657
52.4658
52.4661
52.4663
52.4665
52.4669
52.4667
52.4671
52.4676
52.4687
52.4647
52.4661
52.4678
52.4695
52.4708
52.4717
52.4723
52.4728
52.4733
52.4737
52.4742
52.4746
52.4752
52.4758
52.4762
52.477
52.477
52.4776
52.478
52.4791
52.4678
52.47
52.4718
52.4734
52.4748
52.476
52.4769
52.4778
52.4784
52.4788
52.479
52.4786
52.4781
52.4774
52.476
52.4739
52.4725
52.4718
52.4714
52.4709
52.4698
52.4733
52.4757
52.4778
52.4797
52.4815
52.4834
52.4847
52.4848
52.4855
52.4866
52.4874
52.4878
52.4897
52.4946
52.5029
52.5086
52.5093
52.5036
52.4963
52.47
52.475
52.4781
52.4805
52.4827
52.485
52.4869
52.4878
52.488
52.4884
52.489
52.489
52.4893
52.4911
52.496
52.5043
52.511
52.5129
52.5089
52.5025
52.4793
52.4901
52.4987
52.5067
52.5146
52.5227
52.5309
52.5392
52.5475
52.5559
52.5642
52.5725
52.5809
52.5895
52.598
52.6066
52.6151
52.6237
52.6325
52.6413
52.6502
52.6591
52.668
52.6769
52.6858
52.6947
52.7036
52.7124
52.7212
52.73
52.7388
52.7475
52.7562
52.765
52.7737
52.7824
52.7911
52.7998
52.8084
52.8171
52.8257
52.8344
52.8429
52.8515
52.8601
52.8686
52.8771
52.8856
52.8941
52.9025
52.9109
52.9193
52.9276
52.9359
52.9442
52.9526
52.9608
52.969
52.9772
52.9855
52.9937
53.0018
53.0099
53.018
53.0261
53.0342
53.0422
53.0502
53.058
53.0661
53.0743
53.0824
53.0896
53.0964
53.104
53.1128
53.1218
53.1298
53.133
53.1326
53.1361
53.1438
53.1536
53.166
53.1807
53.193
53.2037
53.2135
53.2228
53.2315
53.2393
53.2467
53.2541
53.2613
53.2685
53.2756
53.2826
53.2896
53.2966
53.3035
53.3104
53.3172
53.324
53.3308
53.3376
53.3443
53.3509
53.3576
53.3642
53.3707
53.3772
53.3837
53.3902
53.3966
53.4029
53.4093
53.4156
53.4218
53.428
53.4342
53.4403
53.4464
53.4525
53.4585
53.4645
53.4704
53.4763
53.4822
53.488
53.4938
53.4996
53.5053
53.5109
53.5166
53.5221
53.5277
53.5332
53.5386
53.544
53.5493
53.5546
53.5599
53.5651
53.5702
53.5753
53.5804
53.5854
53.5903
53.5952
53.6001
53.6049
53.6096
53.6143
53.6189
53.6235
53.6281
53.6325
53.637
53.6414
53.6457
53.65
53.6542
53.6584
53.6625
53.6666
53.6706
53.6746
53.6785
53.6824
53.6862
53.69
53.6938
53.6975
53.7011
53.7047
53.7083
53.7118
53.7152
53.7187
53.722
53.7254
53.7285
53.7319
53.7349
53.7383
53.7411
53.7445
53.7472
53.7505
53.7531
53.7563
53.7588
53.7619
53.7643
53.7671
53.7699
53.772
53.7749
53.7773
53.7796
52.4823
52.4916
52.5004
52.5088
52.517
52.5252
52.5336
52.5423
52.5511
52.5599
52.5685
52.5771
52.586
52.5949
52.6038
52.6127
52.6216
52.6305
52.6394
52.6483
52.6573
52.6663
52.6753
52.6843
52.6933
52.7022
52.7112
52.7201
52.729
52.7379
52.7467
52.7555
52.7643
52.773
52.7818
52.7905
52.7991
52.8078
52.8164
52.825
52.8336
52.8422
52.8508
52.8593
52.8679
52.8764
52.8849
52.8934
52.9019
52.9104
52.9188
52.9271
52.9355
52.9437
52.9521
52.9604
52.9687
52.9769
52.985
52.9933
53.0015
53.0096
53.0177
53.0257
53.0339
53.042
53.0499
53.0576
53.0657
53.0739
53.0817
53.0891
53.0969
53.1051
53.1129
53.1198
53.1268
53.1344
53.1422
53.1494
53.1554
53.1604
53.1653
53.1718
53.1804
53.1898
53.2003
53.2118
53.2225
53.2323
53.2413
53.2492
53.2559
53.2626
53.2694
53.2763
53.2832
53.29
53.2969
53.3038
53.3106
53.3174
53.3242
53.331
53.3377
53.3444
53.3511
53.3577
53.3643
53.3708
53.3774
53.3838
53.3903
53.3967
53.403
53.4094
53.4157
53.4219
53.4281
53.4343
53.4404
53.4465
53.4526
53.4586
53.4646
53.4705
53.4764
53.4823
53.4881
53.4939
53.4997
53.5054
53.511
53.5167
53.5222
53.5278
53.5333
53.5387
53.5441
53.5494
53.5547
53.56
53.5652
53.5703
53.5754
53.5805
53.5855
53.5904
53.5953
53.6002
53.605
53.6097
53.6144
53.619
53.6236
53.6282
53.6326
53.6371
53.6415
53.6458
53.6501
53.6543
53.6585
53.6626
53.6667
53.6707
53.6747
53.6786
53.6825
53.6863
53.6901
53.6939
53.6976
53.7012
53.7048
53.7084
53.7119
53.7153
53.7188
53.7221
53.7255
53.7286
53.732
53.735
53.7384
53.7412
53.7446
53.7473
53.7506
53.7532
53.7564
53.7589
53.762
53.7643
53.7674
53.7696
53.7725
53.7748
53.7775
53.7797
52.466
52.4794
52.4876
52.4947
52.502
52.5097
52.5174
52.5256
52.5343
52.543
52.5515
52.5602
52.5694
52.5786
52.5878
52.5968
52.6057
52.6146
52.6237
52.6328
52.6419
52.6508
52.6598
52.6687
52.6777
52.6866
52.6955
52.7044
52.7132
52.722
52.7307
52.7394
52.7481
52.7568
52.7654
52.7741
52.7827
52.7913
52.7999
52.8085
52.8171
52.8256
52.8342
52.8427
52.8513
52.8598
52.8682
52.8766
52.885
52.8934
52.9018
52.91
52.9182
52.9263
52.9344
52.9425
52.9504
52.9583
52.9661
52.9741
52.9823
52.9911
53.0007
53.0106
53.0213
53.0324
53.0429
53.0529
53.0627
53.0721
53.0808
53.089
53.0971
53.105
53.1129
53.1207
53.1286
53.1365
53.1445
53.1524
53.1604
53.1684
53.1764
53.1845
53.1925
53.2005
53.2085
53.2165
53.2243
53.232
53.2396
53.2469
53.2542
53.2614
53.2686
53.2756
53.2827
53.2897
53.2966
53.3036
53.3105
53.3173
53.3241
53.3309
53.3377
53.3444
53.351
53.3577
53.3643
53.3708
53.3773
53.3838
53.3903
53.3967
53.403
53.4094
53.4157
53.4219
53.4281
53.4343
53.4404
53.4465
53.4526
53.4586
53.4646
53.4705
53.4764
53.4823
53.4881
53.4939
53.4997
53.5054
53.511
53.5167
53.5222
53.5278
53.5333
53.5387
53.5441
53.5494
53.5547
53.56
53.5652
53.5703
53.5754
53.5805
53.5855
53.5904
53.5953
53.6002
53.605
53.6097
53.6144
53.619
53.6236
53.6282
53.6326
53.6371
53.6415
53.6458
53.6501
53.6543
53.6585
53.6626
53.6667
53.6707
53.6747
53.6786
53.6825
53.6863
53.6901
53.6939
53.6976
53.7012
53.7048
53.7084
53.7119
53.7153
53.7188
53.7221
53.7255
53.7287
53.732
53.7351
53.7383
53.7414
53.7444
53.7474
53.7505
53.7533
53.7564
53.7589
53.7619
53.7646
53.7671
53.7698
53.7724
53.7748
53.7774
53.7797
52.4803
52.4938
52.5083
52.512
52.5172
52.5263
52.5361
52.5444
52.5518
52.5607
52.5706
52.5804
52.5882
52.596
52.6047
52.6143
52.6242
52.6333
52.6417
52.6499
52.6586
52.6676
52.6765
52.6854
52.6942
52.703
52.7118
52.7206
52.7293
52.738
52.7467
52.7554
52.7641
52.7727
52.7814
52.7901
52.7988
52.8074
52.8161
52.8247
52.8333
52.8419
52.8504
52.859
52.8675
52.8759
52.8844
52.8928
52.9013
52.9097
52.9181
52.9268
52.9352
52.9432
52.9513
52.9597
52.9681
52.9764
52.9844
52.9925
53.0007
53.0088
53.0168
53.0249
53.0329
53.041
53.0489
53.0568
53.0645
53.0723
53.0803
53.0883
53.0962
53.104
53.1119
53.1199
53.1277
53.1349
53.1418
53.1494
53.158
53.1669
53.1751
53.1805
53.1818
53.1843
53.1901
53.1987
53.2088
53.2222
53.2351
53.246
53.2553
53.2636
53.2704
53.2768
53.2835
53.2903
53.2971
53.3039
53.3107
53.3175
53.3242
53.331
53.3377
53.3444
53.3511
53.3577
53.3643
53.3708
53.3774
53.3838
53.3903
53.3967
53.403
53.4094
53.4157
53.4219
53.4281
53.4343
53.4404
53.4465
53.4526
53.4586
53.4646
53.4705
53.4764
53.4823
53.4881
53.4939
53.4997
53.5054
53.511
53.5167
53.5222
53.5278
53.5333
53.5387
53.5441
53.5494
53.5547
53.56
53.5652
53.5703
53.5754
53.5805
53.5855
53.5904
53.5953
53.6002
53.605
53.6097
53.6144
53.619
53.6236
53.6282
53.6326
53.6371
53.6415
53.6458
53.6501
53.6543
53.6585
53.6626
53.6667
53.6707
53.6747
53.6786
53.6825
53.6863
53.6901
53.6939
53.6976
53.7012
53.7048
53.7084
53.7119
53.7154
53.7187
53.7222
53.7253
53.7288
53.7318
53.7352
53.7381
53.7415
53.7443
53.7476
53.7502
53.7535
53.756
53.7592
53.7616
53.7647
53.767
53.77
53.7723
53.7749
53.7777
53.7796
52.4817
52.4944
52.5105
52.5134
52.5184
52.5284
52.5403
52.5474
52.554
52.563
52.5744
52.5838
52.5907
52.5981
52.6071
52.6169
52.6269
52.6359
52.6438
52.6515
52.66
52.6688
52.6777
52.6865
52.6953
52.7041
52.7129
52.7216
52.7304
52.7391
52.7478
52.7564
52.7651
52.7738
52.7824
52.7911
52.7997
52.8084
52.817
52.8257
52.8343
52.8429
52.8514
52.86
52.8685
52.877
52.8855
52.8939
52.9023
52.9108
52.9193
52.9282
52.9367
52.9444
52.9525
52.9608
52.9693
52.9776
52.9856
52.9936
53.0018
53.0099
53.0179
53.026
53.034
53.042
53.05
53.058
53.0659
53.0738
53.0816
53.0894
53.0974
53.1054
53.1133
53.1212
53.1294
53.1376
53.1454
53.1525
53.1593
53.167
53.1757
53.1845
53.1921
53.1949
53.1943
53.1979
53.2059
53.2159
53.2299