/*--------------------------------*- C++ -*----------------------------------*\
| =========                 |                                                 |
| \\      /  F ield         | OpenFOAM: The Open Source CFD Toolbox           |
|  \\    /   O peration     | Version:  3.0.x                                 |
|   \\  /    A nd           | Web:      www.OpenFOAM.org                      |
|    \\/     M anipulation  |                                                 |
\*---------------------------------------------------------------------------*/
FoamFile
{
    version     2.0;
    format      ascii;
    class       volScalarField;
    location    "0.41";
    object      T;
}
// * * * * * * * * * * * * * * * * * * * * * * * * * * * * * * * * * * * * * //

dimensions      [0 0 0 1 0 0 0];

internalField   nonuniform List<scalar> 
6900
(
774.462
774.462
774.462
774.462
774.462
774.463
774.463
774.463
774.463
774.463
774.463
774.464
774.464
774.464
774.464
774.464
774.464
774.465
774.465
774.465
774.465
774.465
774.465
774.465
774.465
774.464
774.463
774.46
774.457
774.454
774.452
774.45
774.449
774.449
774.448
774.448
774.447
774.445
774.443
774.441
774.438
774.435
774.432
774.428
774.425
774.422
774.42
774.419
774.418
774.418
774.418
774.417
774.416
774.414
774.411
774.409
774.406
774.404
774.403
774.401
774.4
774.399
774.399
774.398
774.398
774.397
774.397
774.397
774.396
774.396
774.396
774.396
774.396
774.396
774.396
774.396
774.396
774.396
774.397
774.397
774.397
774.397
774.398
774.398
774.399
774.399
774.399
774.4
774.4
774.401
774.401
774.401
774.401
774.401
774.401
774.401
774.401
774.401
774.401
774.401
774.4
774.4
774.4
774.399
774.399
774.399
774.399
774.398
774.398
774.398
774.398
774.398
774.398
774.398
774.398
774.399
774.399
774.399
774.4
774.4
774.401
774.401
774.402
774.402
774.403
774.403
774.403
774.403
774.403
774.403
774.403
774.403
774.403
774.403
774.402
774.402
774.402
774.401
774.401
774.4
774.4
774.399
774.399
774.399
774.398
774.398
774.398
774.398
774.398
774.399
774.399
774.4
774.4
774.401
774.402
774.402
774.403
774.404
774.405
774.405
774.406
774.407
774.407
774.407
774.408
774.408
774.408
774.408
774.408
774.408
774.408
774.407
774.407
774.407
774.407
774.407
774.406
774.406
774.406
774.407
774.407
774.407
774.408
774.409
774.41
774.411
774.413
774.414
774.416
774.418
774.421
774.423
774.425
774.428
774.43
774.433
774.434
774.439
774.44
774.513
774.459
774.459
774.459
774.459
774.46
774.46
774.46
774.46
774.46
774.46
774.461
774.461
774.461
774.461
774.461
774.461
774.462
774.462
774.462
774.462
774.462
774.462
774.462
774.462
774.462
774.461
774.46
774.457
774.454
774.452
774.449
774.448
774.447
774.446
774.446
774.445
774.444
774.443
774.441
774.439
774.436
774.433
774.429
774.426
774.423
774.42
774.418
774.417
774.416
774.416
774.416
774.415
774.413
774.412
774.409
774.407
774.405
774.402
774.401
774.399
774.398
774.397
774.397
774.396
774.396
774.395
774.395
774.395
774.395
774.394
774.394
774.394
774.394
774.394
774.394
774.394
774.394
774.394
774.395
774.395
774.395
774.395
774.396
774.396
774.397
774.397
774.398
774.398
774.398
774.399
774.399
774.399
774.399
774.399
774.399
774.399
774.399
774.399
774.399
774.399
774.398
774.398
774.398
774.397
774.397
774.397
774.397
774.396
774.396
774.396
774.396
774.396
774.396
774.396
774.397
774.397
774.397
774.398
774.398
774.398
774.399
774.399
774.4
774.4
774.401
774.401
774.401
774.401
774.402
774.402
774.402
774.401
774.401
774.401
774.401
774.4
774.4
774.399
774.399
774.398
774.398
774.397
774.397
774.397
774.396
774.396
774.396
774.396
774.397
774.397
774.397
774.398
774.398
774.399
774.4
774.401
774.401
774.402
774.403
774.404
774.404
774.405
774.405
774.406
774.406
774.406
774.406
774.406
774.406
774.406
774.406
774.405
774.405
774.405
774.405
774.405
774.405
774.405
774.405
774.405
774.405
774.405
774.406
774.407
774.408
774.409
774.411
774.413
774.414
774.416
774.419
774.421
774.423
774.426
774.428
774.431
774.433
774.437
774.438
774.506
774.46
774.46
774.46
774.46
774.46
774.46
774.46
774.46
774.46
774.46
774.461
774.461
774.461
774.461
774.461
774.462
774.462
774.462
774.462
774.462
774.462
774.462
774.462
774.462
774.462
774.462
774.46
774.457
774.454
774.452
774.449
774.448
774.447
774.446
774.446
774.445
774.444
774.443
774.441
774.439
774.436
774.433
774.429
774.426
774.423
774.42
774.418
774.417
774.416
774.416
774.416
774.415
774.413
774.412
774.409
774.407
774.405
774.402
774.401
774.399
774.398
774.397
774.397
774.396
774.396
774.395
774.395
774.395
774.395
774.394
774.394
774.394
774.394
774.394
774.394
774.394
774.394
774.394
774.395
774.395
774.395
774.395
774.396
774.396
774.397
774.397
774.398
774.398
774.398
774.399
774.399
774.399
774.399
774.399
774.399
774.399
774.399
774.399
774.399
774.399
774.398
774.398
774.398
774.397
774.397
774.397
774.397
774.396
774.396
774.396
774.396
774.396
774.396
774.396
774.397
774.397
774.397
774.398
774.398
774.398
774.399
774.399
774.4
774.4
774.401
774.401
774.401
774.401
774.402
774.402
774.402
774.401
774.401
774.401
774.401
774.4
774.4
774.399
774.399
774.398
774.398
774.397
774.397
774.397
774.396
774.396
774.396
774.396
774.397
774.397
774.397
774.398
774.398
774.399
774.4
774.401
774.401
774.402
774.403
774.404
774.404
774.405
774.405
774.406
774.406
774.406
774.406
774.406
774.406
774.406
774.406
774.405
774.405
774.405
774.405
774.405
774.405
774.405
774.405
774.405
774.405
774.405
774.406
774.407
774.408
774.409
774.411
774.413
774.414
774.416
774.419
774.421
774.423
774.426
774.428
774.431
774.433
774.435
774.437
774.443
774.459
774.459
774.459
774.459
774.46
774.46
774.46
774.46
774.46
774.46
774.461
774.461
774.461
774.461
774.461
774.461
774.462
774.462
774.462
774.462
774.462
774.462
774.462
774.462
774.462
774.461
774.46
774.457
774.454
774.452
774.449
774.448
774.447
774.446
774.446
774.445
774.444
774.443
774.441
774.439
774.436
774.433
774.429
774.426
774.423
774.42
774.418
774.417
774.416
774.416
774.416
774.415
774.413
774.412
774.409
774.407
774.405
774.402
774.401
774.399
774.398
774.397
774.397
774.396
774.396
774.395
774.395
774.395
774.395
774.394
774.394
774.394
774.394
774.394
774.394
774.394
774.394
774.394
774.395
774.395
774.395
774.395
774.396
774.396
774.397
774.397
774.398
774.398
774.398
774.399
774.399
774.399
774.399
774.399
774.399
774.399
774.399
774.399
774.399
774.399
774.398
774.398
774.398
774.397
774.397
774.397
774.397
774.396
774.396
774.396
774.396
774.396
774.396
774.396
774.397
774.397
774.397
774.398
774.398
774.398
774.399
774.399
774.4
774.4
774.401
774.401
774.401
774.401
774.402
774.402
774.402
774.401
774.401
774.401
774.401
774.4
774.4
774.399
774.399
774.398
774.398
774.397
774.397
774.397
774.396
774.396
774.396
774.396
774.397
774.397
774.397
774.398
774.398
774.399
774.4
774.4
774.401
774.402
774.403
774.404
774.404
774.405
774.405
774.406
774.406
774.406
774.406
774.406
774.406
774.406
774.406
774.405
774.405
774.405
774.405
774.405
774.405
774.405
774.405
774.405
774.405
774.405
774.406
774.407
774.408
774.409
774.411
774.412
774.414
774.416
774.419
774.421
774.423
774.426
774.428
774.43
774.434
774.433
774.439
774.312
774.462
774.462
774.462
774.462
774.462
774.463
774.463
774.463
774.463
774.463
774.463
774.464
774.464
774.464
774.464
774.464
774.464
774.465
774.465
774.465
774.465
774.465
774.465
774.465
774.465
774.464
774.463
774.46
774.457
774.454
774.452
774.45
774.449
774.449
774.448
774.448
774.447
774.445
774.443
774.441
774.438
774.435
774.432
774.428
774.425
774.422
774.42
774.419
774.418
774.418
774.418
774.417
774.416
774.414
774.411
774.409
774.406
774.404
774.403
774.401
774.4
774.399
774.399
774.398
774.398
774.397
774.397
774.397
774.396
774.396
774.396
774.396
774.396
774.396
774.396
774.396
774.396
774.396
774.397
774.397
774.397
774.397
774.398
774.398
774.399
774.399
774.399
774.4
774.4
774.401
774.401
774.401
774.401
774.401
774.401
774.401
774.401
774.401
774.401
774.401
774.4
774.4
774.4
774.399
774.399
774.399
774.399
774.398
774.398
774.398
774.398
774.398
774.398
774.398
774.398
774.399
774.399
774.399
774.4
774.4
774.401
774.401
774.402
774.402
774.403
774.403
774.403
774.403
774.403
774.403
774.403
774.403
774.403
774.403
774.402
774.402
774.402
774.401
774.401
774.4
774.4
774.399
774.399
774.399
774.398
774.398
774.398
774.398
774.398
774.399
774.399
774.4
774.4
774.401
774.402
774.402
774.403
774.404
774.405
774.405
774.406
774.407
774.407
774.407
774.408
774.408
774.408
774.408
774.408
774.408
774.408
774.407
774.407
774.407
774.407
774.407
774.406
774.406
774.406
774.407
774.407
774.407
774.408
774.409
774.41
774.411
774.413
774.414
774.416
774.418
774.421
774.423
774.425
774.428
774.43
774.432
774.436
774.434
774.449
774.223
774.499
774.514
774.511
774.512
774.51
774.506
774.502
774.495
774.494
774.5
774.509
774.488
774.461
774.446
774.426
774.376
774.356
774.363
774.386
774.348
774.486
774.49
774.488
774.483
774.479
774.475
774.466
774.457
774.453
774.457
774.468
774.442
774.409
774.404
774.39
774.342
774.294
774.297
774.319
774.315
774.444
774.443
774.441
774.437
774.432
774.425
774.419
774.412
774.402
774.394
774.386
774.382
774.381
774.379
774.368
774.357
774.348
774.343
774.333
774.331
774.369
774.371
774.377
774.377
774.37
774.356
774.341
774.318
774.301
774.283
774.26
774.243
774.233
774.212
774.198
774.183
774.173
774.161
774.151
774.143
774.315
774.294
774.292
774.294
774.293
774.289
774.277
774.262
774.247
774.234
774.215
774.204
774.188
774.179
774.166
774.161
774.154
774.156
774.163
774.193
774.179
774.146
774.135
774.11
774.101
774.113
774.127
774.123
774.117
774.118
774.124
774.129
774.13
774.132
774.135
774.139
774.143
774.146
774.15
774.154
774.157
774.161
774.165
774.169
774.173
774.177
774.181
774.185
774.189
774.194
774.198
774.203
774.208
774.213
774.217
774.222
774.227
774.232
774.236
774.241
774.245
774.25
774.255
774.259
774.264
774.269
774.274
774.279
774.284
774.29
774.295
774.301
774.307
774.313
774.319
774.326
774.333
774.34
774.348
774.355
774.363
774.371
774.378
774.385
774.392
774.401
774.411
774.421
774.432
774.441
774.449
774.457
774.464
774.473
774.482
774.491
774.501
774.511
774.522
774.534
774.546
774.559
774.571
774.582
774.592
774.604
774.619
774.636
774.653
774.669
774.68
774.689
774.705
774.748
774.835
774.91
774.95
774.96
774.949
774.892
774.814
774.77
774.755
774.753
774.756
774.771
774.791
774.809
774.826
774.842
774.858
774.873
774.887
774.902
774.916
774.931
774.945
774.96
774.974
774.989
775.004
775.019
775.034
775.049
775.065
775.08
775.095
775.111
775.127
775.142
775.158
775.174
775.19
775.206
775.222
775.238
775.254
775.271
775.287
775.303
775.32
775.336
775.353
775.37
775.387
775.404
775.421
775.438
775.455
775.472
775.49
775.508
775.525
775.543
775.561
775.579
775.598
775.616
775.635
775.654
775.673
775.692
775.712
775.731
775.751
775.771
775.791
775.811
775.832
775.853
775.873
775.894
775.915
775.936
775.958
775.979
776.001
776.022
776.044
776.065
776.087
776.109
776.131
776.153
776.175
776.196
776.22
776.24
776.265
776.285
776.311
776.329
776.356
776.374
776.402
776.419
776.449
776.463
776.504
776.435
774.155
774.15
774.144
774.122
774.115
774.132
774.144
774.139
774.134
774.136
774.143
774.146
774.148
774.15
774.154
774.157
774.16
774.163
774.167
774.17
774.174
774.178
774.181
774.185
774.189
774.193
774.197
774.201
774.205
774.21
774.215
774.22
774.224
774.229
774.234
774.239
774.243
774.248
774.252
774.256
774.26
774.265
774.269
774.274
774.278
774.283
774.288
774.293
774.299
774.304
774.31
774.316
774.322
774.328
774.335
774.342
774.349
774.357
774.365
774.372
774.38
774.388
774.396
774.404
774.414
774.425
774.437
774.449
774.459
774.466
774.471
774.476
774.483
774.491
774.5
774.51
774.521
774.533
774.546
774.559
774.57
774.581
774.592
774.606
774.621
774.638
774.655
774.672
774.684
774.693
774.705
774.73
774.791
774.863
774.918
774.946
774.951
774.94
774.885
774.814
774.772
774.755
774.753
774.754
774.763
774.78
774.797
774.813
774.828
774.843
774.858
774.872
774.886
774.901
774.915
774.929
774.944
774.958
774.973
774.987
775.002
775.017
775.032
775.047
775.063
775.078
775.094
775.109
775.125
775.14
775.156
775.172
775.188
775.204
775.22
775.236
775.252
775.269
775.285
775.302
775.318
775.335
775.351
775.368
775.385
775.402
775.419
775.436
775.453
775.471
775.488
775.506
775.523
775.541
775.559
775.578
775.596
775.615
775.633
775.652
775.671
775.69
775.71
775.729
775.749
775.769
775.789
775.81
775.83
775.851
775.872
775.892
775.913
775.935
775.956
775.977
775.999
776.02
776.042
776.064
776.085
776.107
776.129
776.151
776.174
776.195
776.218
776.239
776.263
776.283
776.309
776.328
776.354
776.372
776.4
776.417
776.447
776.462
776.498
776.477
774.35
774.358
774.37
774.381
774.389
774.394
774.394
774.396
774.4
774.403
774.405
774.407
774.41
774.412
774.414
774.416
774.418
774.42
774.423
774.426
774.429
774.433
774.437
774.442
774.446
774.45
774.453
774.456
774.459
774.462
774.464
774.467
774.469
774.472
774.475
774.478
774.482
774.485
774.489
774.494
774.499
774.505
774.511
774.516
774.522
774.528
774.534
774.539
774.544
774.55
774.555
774.561
774.568
774.575
774.582
774.59
774.598
774.606
774.615
774.625
774.636
774.647
774.659
774.671
774.682
774.693
774.703
774.712
774.717
774.717
774.71
774.678
774.638
774.604
774.578
774.559
774.547
774.544
774.545
774.548
774.555
774.564
774.576
774.588
774.601
774.614
774.627
774.639
774.65
774.66
774.668
774.676
774.684
774.69
774.697
774.703
774.709
774.717
774.725
774.734
774.744
774.755
774.766
774.777
774.789
774.801
774.813
774.825
774.837
774.85
774.863
774.876
774.889
774.903
774.916
774.93
774.944
774.959
774.973
774.988
775.002
775.017
775.032
775.047
775.063
775.078
775.094
775.109
775.125
775.14
775.156
775.172
775.188
775.204
775.22
775.236
775.252
775.269
775.285
775.302
775.318
775.335
775.351
775.368
775.385
775.402
775.419
775.436
775.453
775.471
775.488
775.506
775.523
775.541
775.559
775.578
775.596
775.615
775.633
775.652
775.671
775.69
775.71
775.729
775.749
775.769
775.789
775.81
775.83
775.851
775.872
775.892
775.913
775.935
775.956
775.977
775.999
776.02
776.042
776.064
776.085
776.107
776.129
776.151
776.173
776.195
776.217
776.24
776.261
776.285
776.306
776.33
776.352
776.374
776.398
776.421
776.442
776.47
776.488
776.513
774.123
774.122
774.117
774.115
774.118
774.122
774.122
774.123
774.124
774.128
774.131
774.133
774.136
774.139
774.143
774.146
774.15
774.154
774.157
774.161
774.166
774.17
774.174
774.178
774.182
774.186
774.19
774.194
774.199
774.203
774.207
774.211
774.215
774.22
774.224
774.229
774.234
774.239
774.244
774.249
774.254
774.259
774.264
774.269
774.274
774.28
774.285
774.29
774.295
774.301
774.306
774.312
774.318
774.324
774.33
774.336
774.342
774.348
774.355
774.361
774.368
774.375
774.382
774.39
774.399
774.408
774.418
774.427
774.437
774.446
774.454
774.463
774.473
774.484
774.495
774.505
774.515
774.528
774.543
774.557
774.569
774.581
774.598
774.62
774.643
774.658
774.671
774.692
774.726
774.767
774.806
774.836
774.852
774.856
774.853
774.829
774.777
774.74
774.724
774.72
774.721
774.727
774.74
774.757
774.772
774.788
774.803
774.817
774.832
774.846
774.859
774.873
774.887
774.901
774.915
774.93
774.944
774.958
774.973
774.987
775.002
775.017
775.032
775.047
775.063
775.078
775.094
775.109
775.125
775.14
775.156
775.172
775.188
775.204
775.22
775.236
775.252
775.269
775.285
775.302
775.318
775.335
775.351
775.368
775.385
775.402
775.419
775.436
775.453
775.471
775.488
775.506
775.523
775.541
775.559
775.578
775.596
775.615
775.633
775.652
775.671
775.69
775.71
775.729
775.749
775.769
775.789
775.81
775.83
775.851
775.872
775.892
775.913
775.935
775.956
775.977
775.999
776.02
776.042
776.064
776.085
776.107
776.129
776.151
776.173
776.196
776.217
776.24
776.261
776.286
776.305
776.331
776.35
776.377
776.395
776.424
776.44
776.471
776.489
776.534
774.246
774.251
774.248
774.244
774.246
774.25
774.251
774.252
774.254
774.257
774.26
774.262
774.266
774.269
774.272
774.276
774.28
774.284
774.288
774.291
774.295
774.299
774.303
774.307
774.31
774.314
774.317
774.321
774.325
774.329
774.333
774.337
774.341
774.346
774.351
774.356
774.36
774.365
774.369
774.374
774.379
774.383
774.388
774.392
774.397
774.401
774.406
774.411
774.416
774.42
774.425
774.43
774.435
774.44
774.446
774.452
774.458
774.464
774.471
774.478
774.485
774.493
774.502
774.51
774.519
774.528
774.537
774.545
774.553
774.561
774.569
774.578
774.587
774.597
774.609
774.619
774.629
774.638
774.65
774.666
774.683
774.701
774.714
774.723
774.731
774.745
774.785
774.869
774.938
774.977
774.988
774.982
774.942
774.867
774.812
774.776
774.754
774.745
774.744
774.745
774.75
774.759
774.769
774.779
774.79
774.802
774.814
774.826
774.839
774.851
774.864
774.877
774.891
774.904
774.918
774.932
774.946
774.96
774.975
774.989
775.004
775.019
775.034
775.049
775.065
775.08
775.095
775.111
775.127
775.142
775.158
775.174
775.19
775.206
775.222
775.238
775.254
775.271
775.287
775.303
775.32
775.336
775.353
775.37
775.387
775.404
775.421
775.438
775.455
775.472
775.49
775.508
775.525
775.543
775.561
775.579
775.598
775.616
775.635
775.654
775.673
775.692
775.712
775.731
775.751
775.771
775.791
775.811
775.832
775.853
775.873
775.894
775.915
775.936
775.958
775.979
776
776.022
776.044
776.065
776.087
776.109
776.131
776.153
776.175
776.197
776.219
776.242
776.263
776.287
776.307
776.333
776.352
776.379
776.397
776.426
776.442
776.473
776.49
776.536
776.459
776.449
776.452
776.454
776.455
776.455
776.451
776.446
776.442
776.436
776.431
776.428
776.423
776.419
776.416
776.415
776.417
776.42
776.429
776.453
776.489
776.495
776.498
776.5
776.498
776.495
776.487
776.48
776.474
776.466
776.459
776.454
776.446
776.439
776.44
776.435
776.434
776.434
776.434
776.433
776.53
776.535
776.539
776.543
776.545
776.547
776.549
776.551
776.552
776.552
776.554
776.556
776.56
776.564
776.576
776.589
776.593
776.589
776.589
776.593
776.554
776.568
776.574
776.58
776.587
776.591
776.591
776.591
776.594
776.593
776.598
776.614
776.628
776.617
776.578
776.556
776.558
776.556
776.531
776.517
776.561
776.584
776.592
776.599
776.606
776.611
776.615
776.616
776.62
776.621
776.628
776.646
776.658
776.646
776.62
776.594
776.592
776.585
776.558
776.555
776.496
776.536
776.568
776.595
776.625
776.659
776.691
776.72
776.749
776.778
776.807
776.836
776.863
776.89
776.917
776.943
776.969
776.994
777.02
777.045
777.07
777.095
777.12
777.145
777.17
777.195
777.22
777.245
777.27
777.295
777.32
777.345
777.371
777.396
777.421
777.447
777.473
777.498
777.525
777.551
777.577
777.604
777.631
777.657
777.684
777.711
777.738
777.764
777.791
777.817
777.843
777.87
777.896
777.922
777.948
777.975
778.001
778.028
778.054
778.081
778.108
778.135
778.162
778.189
778.215
778.242
778.269
778.296
778.324
778.351
778.378
778.405
778.432
778.46
778.489
778.517
778.544
778.571
778.604
778.644
778.683
778.709
778.723
778.738
778.777
778.881
778.999
779.078
779.111
779.115
779.098
779.039
778.992
778.972
778.967
778.968
778.976
778.987
779.022
779.016
776.443
776.46
776.488
776.51
776.54
776.57
776.597
776.622
776.648
776.675
776.701
776.726
776.75
776.775
776.8
776.825
776.85
776.874
776.898
776.922
776.947
776.971
776.996
777.021
777.045
777.07
777.095
777.12
777.146
777.171
777.197
777.222
777.248
777.274
777.3
777.326
777.352
777.379
777.405
777.431
777.458
777.484
777.511
777.537
777.564
777.591
777.618
777.645
777.672
777.699
777.727
777.753
777.781
777.807
777.834
777.86
777.887
777.913
777.94
777.967
777.994
778.02
778.046
778.074
778.101
778.128
778.155
778.182
778.21
778.237
778.264
778.291
778.32
778.35
778.377
778.403
778.433
778.467
778.499
778.525
778.554
778.593
778.635
778.671
778.701
778.733
778.774
778.828
778.892
778.954
778.999
779.021
779.025
779.02
778.998
778.978
778.971
778.971
778.982
778.995
776.656
776.703
776.749
776.781
776.815
776.849
776.879
776.904
776.929
776.954
776.979
777.002
777.024
777.046
777.068
777.09
777.112
777.133
777.155
777.177
777.2
777.223
777.247
777.27
777.294
777.319
777.344
777.369
777.395
777.421
777.446
777.472
777.497
777.521
777.546
777.571
777.596
777.622
777.647
777.674
777.7
777.727
777.754
777.781
777.807
777.835
777.862
777.888
777.916
777.943
777.97
777.997
778.025
778.054
778.083
778.111
778.139
778.166
778.195
778.225
778.254
778.284
778.313
778.345
778.377
778.408
778.436
778.455
778.467
778.469
778.465
778.445
778.432
778.43
778.431
778.435
778.447
778.467
778.491
778.517
778.545
778.574
778.604
778.634
778.663
778.693
778.719
778.747
778.772
778.797
778.821
778.846
778.866
778.893
778.911
778.937
778.96
778.983
779.01
779.036
776.509
776.515
776.563
776.583
776.578
776.589
776.638
776.669
776.677
776.691
776.722
776.747
776.767
776.788
776.811
776.836
776.86
776.883
776.905
776.928
776.951
776.975
777
777.024
777.049
777.074
777.099
777.124
777.149
777.175
777.201
777.227
777.253
777.279
777.305
777.331
777.358
777.385
777.411
777.438
777.465
777.492
777.519
777.546
777.573
777.6
777.627
777.653
777.68
777.706
777.732
777.759
777.785
777.812
777.838
777.865
777.892
777.92
777.947
777.974
778.002
778.029
778.056
778.083
778.111
778.138
778.165
778.192
778.219
778.246
778.272
778.299
778.327
778.356
778.385
778.414
778.443
778.471
778.498
778.528
778.559
778.589
778.618
778.65
778.687
778.726
778.756
778.774
778.788
778.816
778.884
778.989
779.084
779.144
779.167
779.166
779.138
779.081
779.057
779.049
776.509
776.508
776.554
776.567
776.561
776.566
776.6
776.641
776.655
776.667
776.692
776.719
776.742
776.765
776.788
776.813
776.838
776.861
776.885
776.909
776.934
776.958
776.983
777.008
777.033
777.058
777.083
777.109
777.134
777.16
777.186
777.212
777.238
777.264
777.29
777.316
777.343
777.369
777.396
777.423
777.449
777.477
777.504
777.531
777.558
777.585
777.612
777.638
777.665
777.692
777.718
777.744
777.771
777.798
777.824
777.851
777.877
777.904
777.931
777.958
777.985
778.013
778.04
778.067
778.094
778.121
778.148
778.175
778.202
778.23
778.257
778.283
778.31
778.337
778.364
778.392
778.421
778.45
778.479
778.506
778.534
778.563
778.593
778.621
778.648
778.68
778.719
778.758
778.787
778.803
778.818
778.851
778.944
779.071
779.158
779.194
779.195
779.164
779.111
779.07
779.018
779.018
779.021
779.023
779.026
779.028
779.031
779.032
779.032
779.033
779.033
779.034
779.035
779.036
779.038
779.04
779.043
779.045
779.052
779.063
779.012
779.016
779.024
779.029
779.033
779.037
779.039
779.04
779.041
779.042
779.042
779.044
779.044
779.045
779.046
779.05
779.05
779.054
779.059
779.061
779.054
779.06
779.067
779.073
779.078
779.084
779.088
779.092
779.097
779.102
779.106
779.114
779.122
779.129
779.142
779.16
779.175
779.18
779.186
779.195
779.047
779.046
779.046
779.048
779.054
779.064
779.073
779.082
779.091
779.095
779.101
779.117
779.145
779.162
779.164
779.15
779.141
779.144
779.155
779.153
779.069
779.068
779.063
779.058
779.058
779.059
779.067
779.083
779.095
779.103
779.115
779.14
779.166
779.178
779.179
779.168
779.156
779.156
779.159
779.155
779.093
779.138
779.177
779.21
779.247
779.287
779.325
779.361
779.397
779.434
779.471
779.506
779.539
779.572
779.606
779.639
779.671
779.701
779.729
779.756
779.783
779.81
779.837
779.863
779.889
779.914
779.94
779.966
779.991
780.017
780.043
780.069
780.095
780.121
780.146
780.172
780.197
780.222
780.247
780.271
780.296
780.321
780.345
780.37
780.395
780.42
780.445
780.47
780.495
780.52
780.545
780.569
780.594
780.619
780.643
780.668
780.692
780.717
780.741
780.765
780.789
780.814
780.838
780.863
780.886
780.909
780.933
780.958
780.983
781.006
781.026
781.048
781.083
781.124
781.153
781.164
781.171
781.195
781.287
781.433
781.52
781.543
781.537
781.49
781.411
781.365
781.342
781.331
781.327
781.33
781.345
781.364
781.384
781.404
781.424
781.444
781.464
781.485
781.505
781.525
781.545
781.565
781.585
781.605
781.625
781.645
781.664
781.684
781.703
781.722
781.742
781.761
781.779
781.798
781.817
781.836
781.854
781.872
781.891
781.909
781.927
781.945
781.962
781.98
781.998
782.015
782.032
782.05
782.067
782.084
782.1
782.117
782.134
782.15
782.167
782.183
782.199
782.215
782.231
782.246
782.262
782.277
782.292
782.308
782.322
782.337
782.352
782.366
782.381
782.395
782.409
782.423
782.437
782.45
782.464
782.477
782.49
782.503
782.516
782.528
782.541
782.553
782.565
782.577
782.589
782.601
782.613
782.624
782.636
782.647
782.658
782.669
782.68
782.691
782.701
782.712
782.721
782.732
782.741
782.752
782.76
782.772
782.779
782.791
782.797
782.81
782.815
782.828
782.832
782.845
782.849
782.862
782.865
782.877
782.883
782.889
782.902
782.903
782.913
782.921
779.074
779.119
779.153
779.179
779.212
779.251
779.286
779.314
779.343
779.375
779.407
779.437
779.464
779.492
779.521
779.549
779.576
779.601
779.627
779.653
779.678
779.704
779.729
779.754
779.778
779.803
779.828
779.852
779.876
779.901
779.926
779.951
779.976
780.001
780.027
780.052
780.078
780.103
780.129
780.154
780.18
780.205
780.23
780.255
780.279
780.304
780.329
780.354
780.378
780.404
780.429
780.454
780.478
780.503
780.528
780.552
780.576
780.601
780.626
780.65
780.674
780.698
780.723
780.748
780.771
780.794
780.82
780.848
780.87
780.891
780.918
780.95
780.975
780.995
781.022
781.061
781.099
781.127
781.152
781.186
781.235
781.3
781.365
781.406
781.415
781.412
781.392
781.356
781.331
781.318
781.316
781.328
781.357
781.384
781.409
781.433
781.456
781.478
781.5
781.521
781.542
781.563
781.583
781.603
781.623
781.643
781.663
781.682
781.702
781.721
781.74
781.759
781.778
781.797
781.815
781.834
781.852
781.871
781.889
781.907
781.925
781.943
781.961
781.979
781.996
782.014
782.031
782.048
782.065
782.082
782.099
782.116
782.132
782.149
782.165
782.181
782.197
782.213
782.229
782.245
782.26
782.276
782.291
782.306
782.321
782.336
782.35
782.365
782.379
782.393
782.407
782.421
782.435
782.449
782.462
782.475
782.489
782.501
782.514
782.527
782.539
782.552
782.564
782.576
782.588
782.6
782.611
782.623
782.634
782.645
782.657
782.668
782.678
782.689
782.7
782.71
782.72
782.731
782.74
782.751
782.759
782.771
782.777
782.79
782.795
782.809
782.813
782.827
782.83
782.844
782.847
782.861
782.864
782.877
782.879
782.892
782.894
782.906
782.91
782.919
779.27
779.319
779.374
779.422
779.473
779.521
779.562
779.598
779.629
779.66
779.69
779.715
779.737
779.76
779.784
779.808
779.831
779.853
779.875
779.897
779.922
779.946
779.971
779.995
780.019
780.043
780.067
780.091
780.116
780.141
780.167
780.192
780.218
780.244
780.27
780.296
780.322
780.347
780.373
780.398
780.424
780.45
780.475
780.5
780.525
780.55
780.576
780.601
780.628
780.653
780.679
780.706
780.732
780.759
780.787
780.816
780.844
780.873
780.903
780.932
780.955
780.97
780.971
780.967
780.952
780.931
780.919
780.912
780.909
780.911
780.925
780.944
780.966
780.99
781.015
781.041
781.066
781.091
781.114
781.137
781.159
781.18
781.2
781.218
781.236
781.254
781.27
781.286
781.304
781.321
781.341
781.361
781.381
781.402
781.422
781.443
781.463
781.484
781.504
781.524
781.544
781.564
781.584
781.604
781.624
781.643
781.663
781.682
781.702
781.721
781.74
781.759
781.778
781.797
781.815
781.834
781.852
781.871
781.889
781.907
781.925
781.943
781.961
781.979
781.996
782.014
782.031
782.048
782.065
782.082
782.099
782.116
782.132
782.149
782.165
782.181
782.197
782.213
782.229
782.245
782.26
782.276
782.291
782.306
782.321
782.336
782.35
782.365
782.379
782.393
782.407
782.421
782.435
782.449
782.462
782.475
782.489
782.501
782.514
782.527
782.539
782.552
782.564
782.576
782.588
782.6
782.611
782.623
782.634
782.645
782.657
782.668
782.678
782.689
782.7
782.71
782.72
782.73
782.74
782.75
782.759
782.77
782.778
782.788
782.797
782.806
782.815
782.824
782.832
782.843
782.848
782.86
782.865
782.874
782.883
782.889
782.896
782.905
782.911
782.919
779.172
779.188
779.242
779.271
779.274
779.295
779.356
779.382
779.389
779.411
779.457
779.479
779.49
779.51
779.538
779.569
779.596
779.618
779.636
779.654
779.676
779.699
779.724
779.748
779.774
779.799
779.825
779.851
779.878
779.904
779.93
779.956
779.982
780.008
780.033
780.058
780.084
780.109
780.134
780.159
780.184
780.209
780.235
780.26
780.286
780.311
780.337
780.362
780.388
780.413
780.44
780.47
780.495
780.516
780.54
780.563
780.589
780.613
780.636
780.659
780.683
780.707
780.731
780.755
780.778
780.801
780.825
780.851
780.877
780.902
780.926
780.949
780.972
780.998
781.022
781.046
781.073
781.108
781.147
781.176
781.189
781.197
781.215
781.274
781.391
781.49
781.54
781.547
781.531
781.466
781.406
781.375
781.366
781.37
781.395
781.425
781.451
781.475
781.498
781.52
781.541
781.562
781.582
781.603
781.623
781.643
781.662
781.682
781.701
781.721
781.74
781.759
781.778
781.797
781.815
781.834
781.852
781.871
781.889
781.907
781.925
781.943
781.961
781.979
781.996
782.014
782.031
782.048
782.065
782.082
782.099
782.116
782.132
782.149
782.165
782.181
782.197
782.213
782.229
782.245
782.26
782.276
782.291
782.306
782.321
782.336
782.35
782.365
782.379
782.393
782.407
782.421
782.435
782.449
782.462
782.475
782.489
782.501
782.514
782.527
782.539
782.552
782.564
782.576
782.588
782.6
782.611
782.623
782.634
782.645
782.657
782.667
782.678
782.689
782.7
782.71
782.721
782.73
782.741
782.749
782.761
782.768
782.78
782.786
782.799
782.804
782.818
782.822
782.836
782.839
782.853
782.855
782.869
782.872
782.884
782.887
782.899
782.904
782.908
782.923
779.173
779.177
779.21
779.25
779.255
779.263
779.293
779.337
779.355
779.377
779.401
779.428
779.453
779.478
779.503
779.529
779.555
779.58
779.604
779.63
779.655
779.68
779.706
779.732
779.758
779.783
779.809
779.835
779.862
779.888
779.914
779.94
779.966
779.992
780.018
780.044
780.069
780.094
780.119
780.145
780.17
780.195
780.22
780.245
780.271
780.296
780.321
780.347
780.372
780.397
780.423
780.449
780.473
780.498
780.521
780.546
780.571
780.595
780.619
780.642
780.667
780.691
780.715
780.739
780.763
780.787
780.81
780.834
780.857
780.881
780.907
780.932
780.955
780.978
781.002
781.027
781.049
781.069
781.095
781.132
781.171
781.196
781.206
781.215
781.24
781.334
781.478
781.558
781.574
781.558
781.482
781.411
781.379
781.372
781.382
781.415