/*--------------------------------*- C++ -*----------------------------------*\
| =========                 |                                                 |
| \\      /  F ield         | OpenFOAM: The Open Source CFD Toolbox           |
|  \\    /   O peration     | Version:  3.0.x                                 |
|   \\  /    A nd           | Web:      www.OpenFOAM.org                      |
|    \\/     M anipulation  |                                                 |
\*---------------------------------------------------------------------------*/
FoamFile
{
    version     2.0;
    format      ascii;
    class       surfaceScalarField;
    location    "0.12";
    object      phi;
}
// * * * * * * * * * * * * * * * * * * * * * * * * * * * * * * * * * * * * * //

dimensions      [1 0 -1 0 0 0 0];

internalField   nonuniform List<scalar> 
26210
(
6.97416
0.000504174
6.97384
0.00034739
6.97352
0.000340401
6.97321
0.000341934
6.97289
0.000342015
6.97257
0.000341895
6.97225
0.000341743
6.97191
0.00034205
6.97157
0.000341585
6.97125
0.000341787
6.97093
0.000341741
6.97062
0.000341881
6.97035
0.000342059
6.97007
0.00034205
6.96978
0.000342124
6.96947
0.000342176
6.96917
0.000342195
6.96886
0.000342165
6.96855
0.000342016
6.96824
0.000341698
6.96793
0.000341604
6.96762
0.000340588
6.96732
0.000339448
6.96702
0.000337604
6.96672
0.000334872
6.96643
0.000330979
6.96615
0.000325633
6.96587
0.000318547
6.96561
0.000309469
6.96536
0.000298216
6.96512
0.000284704
6.9649
0.000268974
6.9647
0.000251198
6.96453
0.000231684
6.96437
0.000210854
6.96424
0.000189217
6.96413
0.000167328
6.96404
0.000145747
6.96397
0.000124995
6.96393
0.000105521
6.96389
8.76733e-05
6.96387
7.16912e-05
6.96386
5.76986e-05
6.96385
4.57149e-05
6.96384
3.56705e-05
6.96382
2.74507e-05
6.96379
2.07813e-05
6.96374
1.55707e-05
6.96367
1.15462e-05
6.96357
8.49383e-06
6.96342
6.22879e-06
6.96323
4.58148e-06
6.96299
3.40852e-06
6.96268
2.59229e-06
6.96229
2.03919e-06
6.96182
1.67671e-06
6.96126
1.45022e-06
6.9606
1.3193e-06
6.95982
1.25473e-06
6.95893
1.23577e-06
6.95792
1.24784e-06
6.95679
1.28067e-06
6.95553
1.32702e-06
6.95415
1.38183e-06
6.95265
1.44102e-06
6.95105
1.50147e-06
6.94937
1.5605e-06
6.94761
1.61584e-06
6.94581
1.66533e-06
6.94399
1.70666e-06
6.94219
1.73765e-06
6.94044
1.75631e-06
6.93877
1.7613e-06
6.93724
1.75048e-06
6.93588
1.72336e-06
6.93474
1.67958e-06
6.93383
1.61906e-06
6.93321
1.54255e-06
6.93289
1.45311e-06
6.93289
1.34965e-06
6.93322
1.23543e-06
6.93389
1.1144e-06
6.93488
9.86965e-07
6.93619
8.54589e-07
6.93778
7.2184e-07
6.93964
5.89998e-07
6.94172
4.60359e-07
6.94399
3.32875e-07
6.94639
2.47146e-07
6.94886
3.68438e-07
6.95137
1.39024e-07
6.95387
-4.84715e-07
6.95627
-2.96384e-07
6.95854
-1.71038e-07
6.96062
-2.1035e-07
6.96246
-2.85374e-07
6.96403
-3.47998e-07
6.9653
-3.88223e-07
6.96624
-4.15432e-07
6.96686
-4.33958e-07
6.96713
-4.47853e-07
6.96707
-4.60499e-07
6.96669
-4.67919e-07
6.966
-4.82238e-07
6.96502
-4.86627e-07
6.96379
-4.92435e-07
6.96232
-4.96793e-07
6.96066
-4.99314e-07
6.95884
-4.99522e-07
6.95688
-4.96817e-07
6.95482
-4.90927e-07
6.95268
-4.81265e-07
6.95051
-4.67549e-07
6.94832
-4.49416e-07
6.94614
-4.26737e-07
6.94399
-3.9953e-07
6.94189
-3.67871e-07
6.93985
-3.31916e-07
6.9379
-2.91961e-07
6.93603
-2.48463e-07
6.93425
-2.01941e-07
6.93258
-1.52857e-07
6.931
-1.01698e-07
6.92953
-4.88071e-08
6.92815
5.2878e-09
6.92687
6.02031e-08
6.92567
1.15704e-07
6.92456
1.71509e-07
6.92351
2.27537e-07
6.92252
2.83886e-07
6.92158
3.408e-07
6.92067
3.98599e-07
6.91978
4.5751e-07
6.91888
5.155e-07
6.91798
4.98032e-07
6.91704
6.24932e-07
6.91606
7.95291e-07
6.91501
7.9422e-07
6.91388
8.42847e-07
6.91266
9.10562e-07
6.91133
9.82584e-07
6.90989
1.05494e-06
6.90833
1.12644e-06
6.90663
1.19599e-06
6.90481
1.26243e-06
6.90286
1.32411e-06
6.9008
1.37933e-06
6.89862
1.42618e-06
6.89637
1.46285e-06
6.89404
1.48739e-06
6.89167
1.498e-06
6.8893
1.49312e-06
6.88695
1.47148e-06
6.88466
1.43224e-06
6.88247
1.37497e-06
6.88042
1.29988e-06
6.87854
1.20773e-06
6.87686
1.09988e-06
6.87543
9.78293e-07
6.87425
8.45488e-07
6.87335
7.0428e-07
6.87275
5.57997e-07
6.87245
4.1026e-07
6.87245
2.92242e-07
6.87269
1.94354e-07
6.87315
2.34941e-08
6.87389
-1.02755e-07
6.87486
-2.1427e-07
6.87603
-3.06807e-07
6.87737
-3.7973e-07
6.87884
-4.32694e-07
6.88038
-4.64999e-07
6.88198
-4.78061e-07
6.88358
-4.72362e-07
6.88515
-4.50102e-07
6.88667
-4.13733e-07
6.88811
-3.6603e-07
6.88946
-3.06931e-07
6.89069
-2.447e-07
6.8918
-1.74228e-07
6.89279
-1.07873e-07
6.89366
-3.68746e-08
6.8944
2.67191e-08
6.89504
9.01655e-08
6.89558
1.4519e-07
6.89602
1.93802e-07
6.89639
2.40661e-07
6.89669
2.85221e-07
6.89693
3.50505e-07
6.89712
7.57551e-07
6.89728
1.06459e-06
6.89741
3.65216e-06
6.89751
1.97029e-05
6.89752
9.22935e-05
6.89717
0.000442923
6.8951
0.00215791
6.88506
0.0101266
6.83887
0.0462729
6.60963
0.229333
0.8994
5.71031
9.86379
0.000460001
9.86384
0.000330411
9.86389
0.000315772
9.86395
0.00031905
9.864
0.000319314
9.86406
0.000319078
9.8641
0.000318982
9.86414
0.000319263
9.86416
0.000318904
9.8642
0.00031909
9.86426
0.000319081
9.86433
0.000319228
9.86444
0.000319413
9.86455
0.000319434
9.86464
0.000319527
9.86472
0.000319598
9.86479
0.00031964
9.86486
0.000319635
9.86492
0.000319525
9.86499
0.000319245
9.86506
0.000319168
9.86513
0.000318251
9.8652
0.000317198
9.86527
0.000315489
9.86534
0.000312945
9.86542
0.000309311
9.8655
0.000304312
9.86558
0.000297679
9.86566
0.000289178
9.86574
0.000278638
9.86583
0.000265982
9.86591
0.000251248
9.866
0.000234602
9.86609
0.000216333
9.86618
0.000196838
9.86627
0.000176596
9.86636
0.000156126
9.86646
0.000135953
9.86654
0.000116563
9.86663
9.83739e-05
9.86671
8.17121e-05
9.86679
6.67978e-05
9.86685
5.37456e-05
9.86691
4.25717e-05
9.86694
3.32099e-05
9.86696
2.55502e-05
9.86694
1.93401e-05
9.8669
1.44868e-05
9.86681
1.07417e-05
9.86668
7.90118e-06
9.86648
5.79407e-06
9.86622
4.26206e-06
9.86588
3.1715e-06
9.86544
2.41283e-06
9.86489
1.89889e-06
9.86423
1.56224e-06
9.86344
1.35199e-06
9.8625
1.23058e-06
9.86141
1.17084e-06
9.86015
1.15349e-06
9.85872
1.16498e-06
9.85711
1.19575e-06
9.85533
1.2391e-06
9.85338
1.2903e-06
9.85127
1.34557e-06
9.84901
1.40199e-06
9.84663
1.45709e-06
9.84415
1.50874e-06
9.8416
1.55492e-06
9.83903
1.59348e-06
9.83648
1.62239e-06
9.834
1.6398e-06
9.83165
1.64441e-06
9.82949
1.63432e-06
9.82757
1.60898e-06
9.82595
1.56811e-06
9.82467
1.51163e-06
9.82379
1.44024e-06
9.82334
1.3567e-06
9.82334
1.26021e-06
9.82381
1.15359e-06
9.82475
1.04062e-06
9.82615
9.21698e-07
9.828
7.98167e-07
9.83026
6.74288e-07
9.83289
5.51234e-07
9.83583
4.30202e-07
9.83903
3.11622e-07
9.84243
2.33818e-07
9.84592
3.40977e-07
9.84947
1.27011e-07
9.853
-4.34926e-07
9.8564
-2.8375e-07
9.8596
-1.62265e-07
9.86254
-1.95305e-07
9.86514
-2.65365e-07
9.86736
-3.23644e-07
9.86915
-3.61237e-07
9.87049
-3.86633e-07
9.87135
-4.0407e-07
9.87174
-4.17111e-07
9.87165
-4.28847e-07
9.87111
-4.36274e-07
9.87013
-4.49116e-07
9.86875
-4.53558e-07
9.867
-4.59e-07
9.86493
-4.63104e-07
9.86258
-4.65494e-07
9.85999
-4.65718e-07
9.85722
-4.63217e-07
9.8543
-4.57736e-07
9.85128
-4.48732e-07
9.84821
-4.3595e-07
9.84511
-4.19024e-07
9.84202
-3.97868e-07
9.83898
-3.72447e-07
9.83601
-3.42861e-07
9.83313
-3.09288e-07
9.83036
-2.7193e-07
9.82771
-2.31292e-07
9.8252
-1.87854e-07
9.82283
-1.42014e-07
9.8206
-9.42618e-08
9.81851
-4.47544e-08
9.81657
5.56611e-09
9.81475
5.68853e-08
9.81306
1.08666e-07
9.81148
1.60746e-07
9.81
2.13035e-07
9.8086
2.65614e-07
9.80727
3.18734e-07
9.80598
3.72669e-07
9.80472
4.27592e-07
9.80345
4.8077e-07
9.80217
4.67619e-07
9.80085
5.83454e-07
9.79945
7.40632e-07
9.79797
7.43146e-07
9.79638
7.87593e-07
9.79465
8.50541e-07
9.79277
9.17737e-07
9.79074
9.85263e-07
9.78852
1.05199e-06
9.78613
1.1169e-06
9.78355
1.1789e-06
9.7808
1.23647e-06
9.77787
1.288e-06
9.7748
1.33171e-06
9.77161
1.36593e-06
9.76832
1.38882e-06
9.76498
1.39871e-06
9.76162
1.39414e-06
9.7583
1.37394e-06
9.75507
1.3373e-06
9.75197
1.28384e-06
9.74907
1.21373e-06
9.74641
1.12772e-06
9.74404
1.02706e-06
9.742
9.1356e-07
9.74034
7.89649e-07
9.73907
6.57843e-07
9.73822
5.21319e-07
9.7378
3.8369e-07
9.73779
2.72648e-07
9.73812
1.82965e-07
9.73878
2.21735e-08
9.73982
-9.58134e-08
9.74119
-1.99183e-07
9.74285
-2.8565e-07
9.74474
-3.53699e-07
9.74681
-4.03137e-07
9.749
-4.3313e-07
9.75125
-4.45567e-07
9.75351
-4.40043e-07
9.75574
-4.19683e-07
9.75788
-3.85036e-07
9.75992
-3.41888e-07
9.76182
-2.84792e-07
9.76356
-2.29564e-07
9.76513
-1.60078e-07
9.76653
-1.02205e-07
9.76775
-3.21634e-08
9.76881
2.43253e-08
9.76971
8.65439e-08
9.77046
1.3626e-07
9.77109
1.79341e-07
9.77161
2.27525e-07
9.77203
2.79828e-07
9.77237
3.89702e-07
9.77265
9.82973e-07
9.77287
2.39878e-06
9.77305
8.19131e-06
9.77319
4.69693e-05
9.7732
0.000221456
9.77271
0.00106704
9.76979
0.00519712
9.75561
0.0244232
9.69046
0.111558
9.37332
0.546589
2.07758
8.19526
13.9495
0.000401457
13.9496
0.000303501
13.9497
0.000281671
13.9497
0.000286411
13.9498
0.000286964
13.9499
0.00028656
13.9499
0.00028651
13.95
0.000286734
13.95
0.000286474
13.9501
0.000286611
13.9502
0.000286616
13.9503
0.000286742
13.9504
0.000286903
13.9506
0.000286927
13.9507
0.000287013
13.9508
0.000287078
13.9509
0.000287116
13.951
0.000287112
13.9511
0.000287022
13.9512
0.000286767
13.9513
0.000286692
13.9514
0.000285888
13.9515
0.000284947
13.9516
0.000283426
13.9517
0.000281158
13.9518
0.000277918
13.9519
0.000273457
13.952
0.000267535
13.9522
0.000259941
13.9523
0.000250518
13.9524
0.000239197
13.9525
0.00022601
13.9526
0.000211102
13.9528
0.00019473
13.9529
0.000177249
13.953
0.000159086
13.9532
0.000140707
13.9533
0.000122582
13.9534
0.000105149
13.9535
8.8786e-05
13.9536
7.37865e-05
13.9538
6.03511e-05
13.9538
4.85851e-05
13.9539
3.85054e-05
13.954
3.00547e-05
13.954
2.31341e-05
13.954
1.75233e-05
13.9539
1.31299e-05
13.9538
9.74121e-06
13.9536
7.16749e-06
13.9533
5.2571e-06
13.953
3.86704e-06
13.9525
2.87669e-06
13.9518
2.18712e-06
13.9511
1.71948e-06
13.9501
1.41274e-06
13.949
1.2208e-06
13.9477
1.10959e-06
13.9461
1.05445e-06
13.9444
1.03789e-06
13.9423
1.04756e-06
13.9401
1.07477e-06
13.9376
1.11344e-06
13.9348
1.15926e-06
13.9318
1.2088e-06
13.9286
1.2594e-06
13.9252
1.30885e-06
13.9217
1.35523e-06
13.9181
1.39668e-06
13.9145
1.4313e-06
13.9109
1.45725e-06
13.9074
1.47289e-06
13.9041
1.477e-06
13.901
1.46796e-06
13.8983
1.44518e-06
13.896
1.40846e-06
13.8942
1.35774e-06
13.8929
1.29366e-06
13.8923
1.21856e-06
13.8923
1.13198e-06
13.893
1.0362e-06
13.8943
9.3474e-07
13.8963
8.27947e-07
13.8989
7.17023e-07
13.9021
6.05758e-07
13.9058
4.95205e-07
13.91
3.86471e-07
13.9145
2.8053e-07
13.9193
2.12893e-07
13.9242
3.01075e-07
13.9293
1.08268e-07
13.9342
-3.71859e-07
13.9391
-2.62342e-07
13.9436
-1.4889e-07
13.9477
-1.75173e-07
13.9514
-2.38344e-07
13.9546
-2.90541e-07
13.9571
-3.24328e-07
13.959
-3.47119e-07
13.9602
-3.62906e-07
13.9608
-3.7467e-07
13.9606
-3.85078e-07
13.9599
-3.92263e-07
13.9585
-4.03165e-07
13.9565
-4.07482e-07
13.9541
-4.12364e-07
13.9511
-4.1604e-07
13.9478
-4.18196e-07
13.9441
-4.18398e-07
13.9402
-4.16155e-07
13.9361
-4.1123e-07
13.9318
-4.03149e-07
13.9275
-3.91669e-07
13.9231
-3.76462e-07
13.9187
-3.57451e-07
13.9144
-3.34554e-07
13.9102
-3.07971e-07
13.9061
-2.77859e-07
13.9022
-2.44276e-07
13.8985
-2.07759e-07
13.8949
-1.6877e-07
13.8916
-1.27556e-07
13.8884
-8.46885e-08
13.8855
-4.00923e-08
13.8827
4.99176e-09
13.8802
5.11018e-08
13.8778
9.76192e-08
13.8755
1.44407e-07
13.8734
1.91373e-07
13.8715
2.38608e-07
13.8696
2.86324e-07
13.8678
3.34774e-07
13.866
3.84031e-07
13.8642
4.30802e-07
13.8624
4.22648e-07
13.8605
5.23696e-07
13.8585
6.6263e-07
13.8564
6.68861e-07
13.8542
7.07772e-07
13.8517
7.64049e-07
13.8491
8.24389e-07
13.8462
8.85032e-07
13.8431
9.44956e-07
13.8397
1.00326e-06
13.836
1.05894e-06
13.8321
1.11065e-06
13.828
1.15692e-06
13.8237
1.19618e-06
13.8191
1.2269e-06
13.8145
1.24746e-06
13.8098
1.25633e-06
13.805
1.25222e-06
13.8003
1.23407e-06
13.7958
1.20115e-06
13.7914
1.15313e-06
13.7873
1.09016e-06
13.7835
1.0129e-06
13.7802
9.2249e-07
13.7773
8.20524e-07
13.7749
7.09271e-07
13.7731
5.90875e-07
13.7719
4.6826e-07
13.7713
3.44933e-07
13.7713
2.44127e-07
13.7718
1.65247e-07
13.7727
1.97347e-08
13.7742
-8.66471e-08
13.7761
-1.78726e-07
13.7785
-2.56481e-07
13.7812
-3.17583e-07
13.7841
-3.6201e-07
13.7872
-3.88742e-07
13.7904
-4.00239e-07
13.7936
-3.94931e-07
13.7967
-3.7726e-07
13.7997
-3.45031e-07
13.8026
-3.08364e-07
13.8053
-2.53994e-07
13.8078
-2.08898e-07
13.81
-1.40455e-07
13.812
-9.49981e-08
13.8137
-2.58806e-08
13.8152
2.00848e-08
13.8165
8.09951e-08
13.8175
1.22749e-07
13.8184
1.58232e-07
13.8191
2.08043e-07
13.8197
2.70979e-07
13.8202
4.40747e-07
13.8206
1.25701e-06
13.8209
4.29425e-06
13.8212
1.43812e-05
13.8214
8.46997e-05
13.8214
0.000399784
13.8207
0.00192923
13.8167
0.00939297
13.7971
0.0441946
13.7072
0.201668
13.2763
0.977674
3.62751
11.7265
61.576
0.000184696
61.5764
0.000159222
61.5767
0.000139687
61.577
0.000142771
61.5774
0.00014374
61.5777
0.00014347
61.578
0.000143341
61.5782
0.000143388
61.5784
0.000143321
61.5787
0.000143341
61.579
0.000143348
61.5794
0.000143397
61.5801
0.000143465
61.5808
0.000143482
61.5814
0.000143523
61.5819
0.000143554
61.5823
0.000143572
61.5828
0.00014357
61.5832
0.000143535
61.5836
0.000143404
61.584
0.000143358
61.5844
0.000142985
61.5849
0.000142524
61.5853
0.000141786
61.5858
0.000140681
61.5863
0.000139097
61.5868
0.000136912
61.5873
0.000134003
61.5878
0.000130263
61.5883
0.000125613
61.5888
0.000120013
61.5894
0.000113476
61.5899
0.000106072
61.5905
9.79255e-05
61.5911
8.92111e-05
61.5916
8.01409e-05
61.5922
7.09476e-05
61.5928
6.18669e-05
61.5933
5.31195e-05
61.5939
4.48963e-05
61.5944
3.73476e-05
61.5948
3.05765e-05
61.5953
2.46388e-05
61.5956
1.95452e-05
61.5958
1.52697e-05
61.5959
1.17618e-05
61.5958
8.91993e-06
61.5955
6.68446e-06
61.595
4.96382e-06
61.5942
3.65331e-06
61.593
2.67964e-06
61.5913
1.97041e-06
61.5892
1.46451e-06
61.5864
1.11179e-06
61.583
8.72234e-07
61.5789
7.14809e-07
61.5739
6.16028e-07
61.5681
5.58508e-07
61.5612
5.2964e-07
61.5534
5.20494e-07
61.5445
5.2476e-07
61.5345
5.37989e-07
61.5233
5.57082e-07
61.5112
5.79842e-07
61.498
6.04519e-07
61.4839
6.29751e-07
61.469
6.54444e-07
61.4535
6.77615e-07
61.4376
6.98326e-07
61.4216
7.15628e-07
61.4056
7.28606e-07
61.3902
7.36432e-07
61.3755
7.38464e-07
61.362
7.33978e-07
61.35
7.22579e-07
61.3399
7.04214e-07
61.3319
6.78889e-07
61.3264
6.46887e-07
61.3236
6.09267e-07
61.3236
5.6608e-07
61.3265
5.18159e-07
61.3324
4.67293e-07
61.3412
4.13973e-07
61.3527
3.58465e-07
61.3668
3.02879e-07
61.3832
2.47691e-07
61.4016
1.93447e-07
61.4216
1.41539e-07
61.4428
1.1017e-07
61.4645
1.41721e-07
61.4868
4.68219e-08
61.5088
-1.629e-07
61.53
-1.37827e-07
61.55
-7.92534e-08
61.5683
-8.77399e-08
61.5845
-1.19165e-07
61.5984
-1.45307e-07
61.6096
-1.62229e-07
61.6179
-1.73604e-07
61.6233
-1.81618e-07
61.6258
-1.87523e-07
61.6252
-1.92585e-07
61.6218
-1.96643e-07
61.6157
-2.01421e-07
61.6071
-2.03871e-07
61.5962
-2.06279e-07
61.5832
-2.0808e-07
61.5686
-2.09136e-07
61.5524
-2.09222e-07
61.5351
-2.08088e-07
61.5169
-2.05611e-07
61.4981
-2.0156e-07
61.4788
-1.958e-07
61.4595
-1.88159e-07
61.4402
-1.78673e-07
61.4212
-1.6745e-07
61.4027
-1.54276e-07
61.3847
-1.39001e-07
61.3674
-1.22257e-07
61.3509
-1.03914e-07
61.3352
-8.43461e-08
61.3204
-6.38163e-08
61.3065
-4.23079e-08
61.2935
-2.01951e-08
61.2813
2.62571e-09
61.27
2.55623e-08
61.2594
4.88255e-08
61.2496
7.22177e-08
61.2403
9.56989e-08
61.2316
1.19315e-07
61.2233
1.43173e-07
61.2153
1.67385e-07
61.2074
1.91872e-07
61.1995
2.14198e-07
61.1915
2.14554e-07
61.1832
2.61614e-07
61.1745
3.27857e-07
61.1652
3.35826e-07
61.1553
3.5428e-07
61.1445
3.82046e-07
61.1328
4.12193e-07
61.1201
4.42509e-07
61.1063
4.72467e-07
61.0913
5.01622e-07
61.0752
5.29452e-07
61.058
5.55309e-07
61.0398
5.78445e-07
61.0206
5.98073e-07
61.0007
6.13432e-07
60.9802
6.23717e-07
60.9593
6.28151e-07
60.9383
6.26093e-07
60.9176
6.17021e-07
60.8974
6.00563e-07
60.8781
5.76552e-07
60.8599
5.4507e-07
60.8433
5.06442e-07
60.8286
4.6124e-07
60.8159
4.10252e-07
60.8055
3.54644e-07
60.7976
2.95455e-07
60.7923
2.34156e-07
60.7896
1.72811e-07
60.7896
1.21343e-07
60.7916
8.28395e-08
60.7957
1.09869e-08
60.8022
-4.49775e-08
60.8108
-8.92439e-08
60.8211
-1.28251e-07
60.833
-1.58768e-07
60.8459
-1.81095e-07
60.8595
-1.93918e-07
60.8736
-2.00571e-07
60.8877
-1.96401e-07
60.9016
-1.90129e-07
60.915
-1.6923e-07
60.9277
-1.6024e-07
60.9396
-1.1917e-07
60.9504
-1.16832e-07
60.9602
-5.56054e-08
60.969
-6.07936e-08
60.9766
-5.02723e-10
60.9832
2.1289e-09
60.9888
5.6571e-08
60.9935
6.21981e-08
60.9974
6.61239e-08
61.0007
1.2006e-07
61.0033
2.21318e-07
61.0054
6.01791e-07
61.0071
3.36715e-06
61.0086
1.10485e-05
61.0097
3.69203e-05
61.0106
0.00023359
61.0107
0.00109623
61.0082
0.00529613
60.9927
0.0256967
60.9163
0.121274
60.5722
0.546597
59.1363
2.41435
8.67533
54.0892
61.576
-1.59162e-12
61.5764
4.54747e-13
61.5767
9.09495e-13
61.577
2.27374e-13
61.5774
1.13687e-12
61.5777
4.54747e-13
61.578
-2.27374e-13
61.5782
6.82121e-13
61.5784
2.27374e-12
61.5786
2.27374e-12
61.579
1.81899e-12
61.5794
0
61.5801
-2.27374e-13
61.5808
6.82121e-13
61.5814
6.82121e-13
61.5819
1.36424e-12
61.5823
6.82121e-13
61.5827
2.50111e-12
61.5832
1.59162e-12
61.5836
-2.50111e-12
61.584
1.81899e-12
61.5844
-9.09495e-13
61.5849
-4.54747e-13
61.5853
-1.13687e-12
61.5858
-1.59162e-12
61.5863
-4.54747e-13
61.5867
-9.09495e-13
61.5872
-2.27374e-13
61.5878
4.54747e-13
61.5883
-1.59162e-12
61.5888
-2.50111e-12
61.5894
-2.27374e-13
61.5899
9.09495e-13
61.5905
-1.13687e-12
61.5911
-1.59162e-12
61.5916
-1.59162e-12
61.5922
-1.13687e-12
61.5928
-9.09495e-13
61.5933
-6.82121e-13
61.5939
-1.36424e-12
61.5944
-1.13687e-12
61.5948
-1.13687e-12
61.5952
-1.36424e-12
61.5956
-9.09495e-13
61.5958
-1.13687e-12
61.5959
-1.59162e-12
61.5958
2.27374e-13
61.5955
-2.27374e-13
61.595
9.09495e-13
61.5942
0
61.593
0
61.5913
0
61.5892
1.36424e-12
61.5864
2.27374e-13
61.583
1.13687e-12
61.5789
-2.27374e-13
61.5739
0
61.5681
-2.04636e-12
61.5612
-9.09495e-13
61.5534
-1.59162e-12
61.5445
-6.82121e-13
61.5345
-2.27374e-13
61.5233
0
61.5112
0
61.498
1.36424e-12
61.4839
9.09495e-13
61.469
1.36424e-12
61.4535
4.54747e-13
61.4376
-2.27374e-13
61.4216
-6.82121e-13
61.4056
-9.09495e-13
61.3902
2.27374e-13
61.3755
-9.09495e-13
61.362
4.54747e-13
61.35
-6.82121e-13
61.3399
-2.04636e-12
61.3319
-9.09495e-13
61.3264
2.27374e-13
61.3236
2.27374e-13
61.3236
-4.54747e-13
61.3265
1.36424e-12
61.3324
1.59162e-12
61.3412
-2.27374e-13
61.3527
-6.82121e-13
61.3668
-4.54747e-13
61.3832
0
61.4016
-2.27374e-13
61.4216
-6.82121e-13
61.4428
0
61.4645
9.09495e-13
61.4868
-6.82121e-13
61.5088
-6.82121e-13
61.53
-2.27374e-13
61.55
-4.54747e-13
61.5683
2.27374e-13
61.5845
2.72848e-12
61.5984
-4.54747e-13
61.6096
-6.82121e-13
61.6179
-2.27374e-13
61.6233
-2.27374e-13
61.6258
-4.54747e-13
61.6252
2.27374e-13
61.6218
0
61.6157
1.81899e-12
61.6071
0
61.5962
2.27374e-13
61.5832
-4.54747e-13
61.5686
-4.54747e-13
61.5524
-9.09495e-13
61.5351
-2.27374e-13
61.5169
-1.59162e-12
61.4981
-1.36424e-12
61.4788
2.27374e-13
61.4595
-1.59162e-12
61.4402
-1.59162e-12
61.4212
1.59162e-12
61.4027
2.04636e-12
61.3847
1.81899e-12
61.3674
-2.27374e-13
61.3509
6.82121e-13
61.3352
6.82121e-13
61.3204
-9.09495e-13
61.3065
-1.13687e-12
61.2935
9.09495e-13
61.2813
-1.36424e-12
61.27
-9.09495e-13
61.2594
-6.82121e-13
61.2496
-4.54747e-13
61.2403
-1.13687e-12
61.2316
-2.27374e-13
61.2233
1.59162e-12
61.2153
9.09495e-13
61.2074
-2.27374e-13
61.1995
1.36424e-12
61.1915
2.27374e-13
61.1832
-6.82121e-13
61.1745
-2.04636e-12
61.1652
-4.54747e-13
61.1553
-4.54747e-13
61.1445
-1.36424e-12
61.1328
-6.82121e-13
61.1201
-6.82121e-13
61.1063
2.27374e-13
61.0913
-1.13687e-12
61.0752
6.82121e-13
61.058
-2.04636e-12
61.0398
-1.81899e-12
61.0206
-4.54747e-13
61.0007
9.09495e-13
60.9802
1.81899e-12
60.9593
1.13687e-12
60.9383
4.54747e-13
60.9176
4.54747e-13
60.8974
0
60.8781
-6.82121e-13
60.8599
-6.82121e-13
60.8433
-2.27374e-12
60.8286
-1.59162e-12
60.8159
-4.54747e-13
60.8055
6.82121e-13
60.7976
-2.27374e-13
60.7923
4.54747e-13
60.7896
-2.27374e-13
60.7896
-1.81899e-12
60.7916
7.7307e-12
60.7957
-7.7307e-12
60.8022
-8.6402e-12
60.8108
5.43423e-11
60.8211
-5.88898e-11
60.833
1.62572e-10
60.8459
-3.91083e-10
60.8595
7.55563e-10
60.8736
-1.39948e-09
60.8877
2.76054e-09
60.9016
-4.1191e-09
60.915
8.33165e-09
60.9277
-1.44951e-08
60.9396
1.90398e-08
60.9504
-3.00493e-08
60.9602
3.56176e-08
60.969
-3.3848e-08
60.9766
3.16827e-08
60.9832
-2.0872e-08
60.9888
3.96608e-08
60.9935
-7.23821e-09
60.9974
-2.32778e-08
61.0007
2.18199e-08
61.0033
1.21939e-07
61.0054
2.77123e-07
61.0071
-7.66459e-07
61.0086
2.08029e-05
61.0097
3.76794e-05
61.0107
0.000297085
61.0113
0.00136004
61.0108
0.00657985
61.0054
0.0318548
60.9751
0.152368
60.8197
0.702812
60.0696
3.16519
11.5121
57.2336
61.576
-0.000184696
61.5764
-0.000159222
61.5767
-0.000139687
61.577
-0.000142771
61.5774
-0.00014374
61.5777
-0.00014347
61.578
-0.000143341
61.5782
-0.000143388
61.5784
-0.000143321
61.5786
-0.000143341
61.579
-0.000143348
61.5794
-0.000143397
61.5801
-0.000143465
61.5808
-0.000143482
61.5814
-0.000143523
61.5819
-0.000143554
61.5823
-0.000143572
61.5827
-0.00014357
61.5832
-0.000143535
61.5836
-0.000143404
61.584
-0.000143358
61.5844
-0.000142985
61.5849
-0.000142524
61.5853
-0.000141786
61.5858
-0.000140681
61.5863
-0.000139097
61.5867
-0.000136912
61.5872
-0.000134003
61.5878
-0.000130263
61.5883
-0.000125613
61.5888
-0.000120013
61.5894
-0.000113476
61.5899
-0.000106072
61.5905
-9.79255e-05
61.5911
-8.92111e-05
61.5916
-8.01409e-05
61.5922
-7.09476e-05
61.5928
-6.18669e-05
61.5933
-5.31195e-05
61.5939
-4.48963e-05
61.5944
-3.73476e-05
61.5948
-3.05765e-05
61.5952
-2.46388e-05
61.5956
-1.95452e-05
61.5958
-1.52697e-05
61.5959
-1.17618e-05
61.5958
-8.91993e-06
61.5955
-6.68446e-06
61.595
-4.96382e-06
61.5942
-3.65331e-06
61.593
-2.67964e-06
61.5913
-1.97042e-06
61.5892
-1.4645e-06
61.5864
-1.11179e-06
61.583
-8.72231e-07
61.5789
-7.1481e-07
61.5739
-6.16027e-07
61.5681
-5.58511e-07
61.5612
-5.29642e-07
61.5534
-5.20497e-07
61.5445
-5.24759e-07
61.5345
-5.3799e-07
61.5233
-5.57082e-07
61.5112
-5.79841e-07
61.498
-6.04517e-07
61.4839
-6.29748e-07
61.469
-6.54442e-07
61.4535
-6.77616e-07
61.4376
-6.98327e-07
61.4216
-7.15629e-07
61.4056
-7.28608e-07
61.3902
-7.36432e-07
61.3755
-7.38466e-07
61.362
-7.33977e-07
61.35
-7.22582e-07
61.3399
-7.04218e-07
61.3319
-6.78888e-07
61.3264
-6.46887e-07
61.3236
-6.09265e-07
61.3236
-5.66082e-07
61.3265
-5.18158e-07
61.3324
-4.67291e-07
61.3412
-4.13974e-07
61.3527
-3.58466e-07
61.3668
-3.0288e-07
61.3832
-2.47692e-07
61.4016
-1.93447e-07
61.4216
-1.4154e-07
61.4428
-1.10171e-07
61.4645
-1.4172e-07
61.4868
-4.68247e-08
61.5088
1.62899e-07
61.53
1.37826e-07
61.55
7.92536e-08
61.5683
8.77401e-08
61.5845
1.19172e-07
61.5984
1.45306e-07
61.6096
1.6223e-07
61.6179
1.73604e-07
61.6233
1.81618e-07
61.6258
1.87523e-07
61.6252
1.92586e-07
61.6218
1.96644e-07
61.6157
2.01423e-07
61.6071
2.03871e-07
61.5962
2.0628e-07
61.5832
2.0808e-07
61.5686
2.09136e-07
61.5524
2.0922e-07
61.5351
2.08087e-07
61.5169
2.05608e-07
61.4981
2.01557e-07
61.4788
1.958e-07
61.4595
1.88155e-07
61.4402
1.78668e-07
61.4212
1.67454e-07
61.4027
1.54279e-07
61.3847
1.39004e-07
61.3674
1.22255e-07
61.3509
1.03915e-07
61.3352
8.43465e-08
61.3204
6.38154e-08
61.3065
4.2307e-08
61.2935
2.01978e-08
61.2813
-2.62708e-09
61.27
-2.55627e-08
61.2594
-4.88276e-08
61.2496
-7.22189e-08
61.2403
-9.57007e-08
61.2316
-1.19315e-07
61.2233
-1.43169e-07
61.2153
-1.67384e-07
61.2074
-1.91872e-07
61.1995
-2.14194e-07
61.1915
-2.14552e-07
61.1832
-2.61615e-07
61.1745
-3.27861e-07
61.1652
-3.35827e-07
61.1553
-3.54282e-07
61.1445
-3.82049e-07
61.1328
-4.12196e-07
61.1201
-4.42509e-07
61.1063
-4.72468e-07
61.0913
-5.01625e-07
61.0752
-5.29452e-07
61.058
-5.55312e-07
61.0398
-5.7845e-07
61.0206
-5.98072e-07
61.0007
-6.13431e-07
60.9802
-6.23714e-07
60.9593
-6.2815e-07
60.9383
-6.26093e-07
60.9176
-6.17021e-07
60.8974
-6.00561e-07
60.8781
-5.76553e-07
60.8599
-5.45071e-07
60.8433
-5.06445e-07
60.8286
-4.61244e-07
60.8159
-4.10253e-07
60.8055
-3.54644e-07
60.7976
-2.95456e-07
60.7923
-2.34156e-07
60.7896
-1.7281e-07
60.7896
-1.21349e-07
60.7916
-8.28184e-08
60.7957
-1.10044e-08
60.8022
4.49591e-08
60.8108
8.93488e-08
60.8211
1.28129e-07
60.833
1.59057e-07
60.8459
1.80435e-07
60.8595
1.95155e-07
60.8736
1.98367e-07
60.8877
2.0063e-07
60.9016
1.84051e-07
60.915
1.81202e-07
60.9277
1.39325e-07
60.9396
1.46797e-07
60.9504
7.39458e-08
60.9602
1.07531e-07
60.969
1.0752e-08
60.9766
4.98865e-08
60.9832
-3.7064e-08
60.9888
1.7186e-08
60.9935
-8.58308e-08
60.9974
-9.83466e-08
61.0007
-8.50662e-08
61.0033
-1.48232e-08
61.0054
1.57299e-07
61.0071
1.0064e-06
61.0086
2.20195e-05
61.0097
2.88312e-05
61.0108
0.000238736
61.0119
0.00108569
61.014
0.00533507
61.0206
0.0259962
61.0465
0.127197
61.1413
0.608839
61.2936
3.01358
10.5547
62.2518
61.576
-0.000401457
61.5764
-0.000303501
61.5767
-0.000281671
61.577
-0.000286411
61.5774
-0.000286964
61.5777
-0.00028656
61.578
-0.00028651
61.5782
-0.000286734
61.5784
-0.000286474
61.5787
-0.000286611
61.579
-0.000286616
61.5794
-0.000286742
61.5801
-0.000286903
61.5808
-0.000286927
61.5814
-0.000287013
61.5819
-0.000287078
61.5823
-0.000287116
61.5828
-0.000287112
61.5832
-0.000287022
61.5836
-0.000286767
61.584
-0.000286692
61.5844
-0.000285888
61.5849
-0.000284947
61.5853
-0.000283426
61.5858
-0.000281158
61.5863
-0.000277918
61.5868
-0.000273457
61.5873
-0.000267535
61.5878
-0.000259941
61.5883
-0.000250518
61.5888
-0.000239197
61.5894
-0.00022601
61.5899
-0.000211102
61.5905
-0.00019473
61.5911
-0.000177249
61.5916
-0.000159086
61.5922
-0.000140707
61.5928
-0.000122582
61.5933
-0.000105149
61.5939
-8.8786e-05
61.5944
-7.37865e-05
61.5948
-6.03511e-05
61.5953
-4.85851e-05
61.5956
-3.85054e-05
61.5958
-3.00547e-05
61.5959
-2.31341e-05
61.5958
-1.75233e-05
61.5955
-1.31299e-05
61.595
-9.74121e-06
61.5942
-7.1675e-06
61.593
-5.2571e-06
61.5913
-3.86704e-06
61.5892
-2.87669e-06
61.5864
-2.18712e-06
61.583
-1.71948e-06
61.5789
-1.41274e-06
61.5739
-1.2208e-06
61.5681
-1.1096e-06
61.5612
-1.05445e-06
61.5534
-1.03789e-06
61.5445
-1.04755e-06
61.5345
-1.07477e-06
61.5233
-1.11343e-06
61.5112
-1.15926e-06
61.498
-1.2088e-06
61.4839
-1.2594e-06
61.469
-1.30885e-06
61.4535
-1.35523e-06
61.4376
-1.39668e-06
61.4216
-1.4313e-06
61.4056
-1.45725e-06
61.3902
-1.47289e-06
61.3755
-1.477e-06
61.362
-1.46796e-06
61.35
-1.44518e-06
61.3399
-1.40846e-06
61.3319
-1.35774e-06
61.3264
-1.29366e-06
61.3236
-1.21855e-06
61.3236
-1.13198e-06
61.3265
-1.0362e-06
61.3324
-9.34738e-07
61.3412
-8.27949e-07
61.3527
-7.17025e-07
61.3668
-6.0576e-07
61.3832
-4.95207e-07
61.4016
-3.86471e-07
61.4216
-2.80531e-07
61.4428
-2.12892e-07
61.4645
-3.01075e-07
61.4868
-1.08272e-07
61.5088
3.71856e-07
61.53
2.62341e-07
61.55
1.48889e-07
61.5683
1.75174e-07
61.5845
2.38354e-07
61.5984
2.90541e-07
61.6096
3.24328e-07
61.6179
3.4712e-07
61.6233
3.62909e-07
61.6258
3.74671e-07
61.6252
3.85078e-07
61.6218
3.92267e-07
61.6157
4.03168e-07
61.6071
4.0748e-07
61.5962
4.12365e-07
61.5832
4.16038e-07
61.5686
4.18196e-07
61.5524
4.18398e-07
61.5351
4.16152e-07
61.5169
4.11228e-07
61.4981
4.03147e-07
61.4788
3.9167e-07
61.4595
3.76458e-07
61.4402
3.57443e-07
61.4212
3.34559e-07
61.4027
3.07975e-07
61.3847
2.77861e-07
61.3674
2.44273e-07
61.3509
2.0776e-07
61.3352
1.6877e-07
61.3204
1.27555e-07
61.3065
8.46876e-08
61.2935
4.00969e-08
61.2813
-4.99358e-09
61.27
-5.11018e-08
61.2594
-9.76229e-08
61.2496
-1.44408e-07
61.2403
-1.91372e-07
61.2316
-2.38605e-07
61.2233
-2.86322e-07
61.2153
-3.34774e-07
61.2074
-3.84032e-07
61.1995
-4.30795e-07
61.1915
-4.22643e-07
61.1832
-5.23697e-07
61.1745
-6.62636e-07
61.1652
-6.68861e-07
61.1553
-7.07772e-07
61.1445
-7.64056e-07
61.1328
-8.24391e-07
61.1201
-8.85032e-07
61.1063
-9.44958e-07
61.0913
-1.00326e-06
61.0752
-1.05894e-06
61.058
-1.11065e-06
61.0398
-1.15693e-06
61.0206
-1.19618e-06
61.0007
-1.2269e-06
60.9802
-1.24746e-06
60.9593
-1.25633e-06
60.9383
-1.25222e-06
60.9176
-1.23407e-06
60.8974
-1.20114e-06
60.8781
-1.15313e-06
60.8599
-1.09016e-06
60.8433
-1.0129e-06
60.8286
-9.22493e-07
60.8159
-8.20524e-07
60.8055
-7.09272e-07
60.7976
-5.90876e-07
60.7923
-4.68262e-07
60.7896
-3.44934e-07
60.7896
-2.44134e-07
60.7916
-1.65234e-07
60.7957
-1.97506e-08
60.8022
8.66416e-08
60.8108
1.7877e-07
60.8211
2.56433e-07
60.833
3.17699e-07
60.8459
3.61733e-07
60.8595
3.89277e-07
60.8736
3.99314e-07
60.8877
3.96603e-07
60.9016
3.74813e-07
60.915
3.49841e-07
60.9277
3.00126e-07
60.9396
2.65097e-07
60.9504
1.92124e-07
60.9602
1.61021e-07
60.969
7.47536e-08
60.9766
4.52851e-08
60.9832
-3.41565e-08
60.9888
-5.26311e-08
60.9935
-1.32177e-07
60.9974
-1.69168e-07
61.0007
-1.96568e-07
61.0033
-1.93269e-07
61.0054
-1.5201e-07
61.0071
3.22817e-07
61.0086
8.40428e-06
61.0098
9.95324e-06
61.0109
8.5083e-05
61.0125
0.000396869
61.0167
0.00194806
61.0339
0.00952782
61.1144
0.0475118
61.483
0.240883
62.8814
1.61591
5.42469
68.0122
13.9495
-0.000460001
13.9496
-0.000330411
13.9497
-0.000315772
13.9497
-0.00031905
13.9498
-0.000319314
13.9499
-0.000319078
13.9499
-0.000318982
13.95
-0.000319263
13.95
-0.000318904
13.9501
-0.00031909
13.9502
-0.000319081
13.9503
-0.000319228
13.9504
-0.000319413
13.9506
-0.000319434
13.9507
-0.000319527
13.9508
-0.000319598
13.9509
-0.00031964
13.951
-0.000319635
13.9511
-0.000319525
13.9512
-0.000319245
13.9513
-0.000319168
13.9514
-0.000318251
13.9515
-0.000317198
13.9516
-0.000315489
13.9517
-0.000312945
13.9518
-0.000309311
13.9519
-0.000304312
13.952
-0.000297679
13.9522
-0.000289178
13.9523
-0.000278638
13.9524
-0.000265982
13.9525
-0.000251248
13.9526
-0.000234602
13.9528
-0.000216333
13.9529
-0.000196838
13.953
-0.000176596
13.9532
-0.000156126
13.9533
-0.000135953
13.9534
-0.000116563
13.9535
-9.83739e-05
13.9536
-8.17121e-05
13.9538
-6.67978e-05
13.9538
-5.37456e-05
13.9539
-4.25717e-05
13.954
-3.32099e-05
13.954
-2.55502e-05
13.954
-1.93401e-05
13.9539
-1.44868e-05
13.9538
-1.07417e-05
13.9536
-7.90118e-06
13.9533
-5.79407e-06
13.953
-4.26206e-06
13.9525
-3.1715e-06
13.9518