/*--------------------------------*- C++ -*----------------------------------*\
| =========                 |                                                 |
| \\      /  F ield         | OpenFOAM: The Open Source CFD Toolbox           |
|  \\    /   O peration     | Version:  3.0.x                                 |
|   \\  /    A nd           | Web:      www.OpenFOAM.org                      |
|    \\/     M anipulation  |                                                 |
\*---------------------------------------------------------------------------*/
FoamFile
{
    version     2.0;
    format      ascii;
    class       volScalarField;
    location    "0.12";
    object      rho;
}
// * * * * * * * * * * * * * * * * * * * * * * * * * * * * * * * * * * * * * //

dimensions      [1 -3 0 0 0 0 0];

internalField   nonuniform List<scalar> 
13800
(
50.5045
50.5045
50.5045
50.5045
50.5045
50.5045
50.5045
50.5045
50.5043
50.5042
50.5042
50.5042
50.5044
50.5047
50.505
50.5051
50.5052
50.5052
50.5052
50.5053
50.5053
50.5053
50.5053
50.5054
50.5054
50.5054
50.5055
50.5055
50.5055
50.5056
50.5056
50.5057
50.5057
50.5058
50.5058
50.5059
50.5059
50.506
50.506
50.5061
50.5062
50.5063
50.5063
50.5064
50.5066
50.5067
50.5068
50.507
50.5072
50.5074
50.5077
50.508
50.5084
50.5088
50.5093
50.5098
50.5105
50.5112
50.5121
50.5131
50.5142
50.5154
50.5168
50.5184
50.5201
50.5219
50.524
50.5261
50.5284
50.5309
50.5334
50.5361
50.5387
50.5415
50.5442
50.5469
50.5495
50.552
50.5544
50.5566
50.5586
50.5604
50.562
50.5634
50.5645
50.5654
50.566
50.5663
50.5664
50.5664
50.5661
50.5655
50.5648
50.5639
50.5629
50.5618
50.5606
50.5593
50.5579
50.5564
50.5549
50.5533
50.5517
50.55
50.5483
50.5465
50.5447
50.5429
50.541
50.5392
50.5373
50.5354
50.5335
50.5316
50.5298
50.528
50.5262
50.5245
50.5229
50.5213
50.5198
50.5184
50.5171
50.5159
50.5147
50.5137
50.5128
50.512
50.5113
50.5107
50.5102
50.5098
50.5095
50.5094
50.5094
50.5095
50.5097
50.5101
50.5107
50.5113
50.5122
50.5132
50.5143
50.5157
50.5171
50.5188
50.5206
50.5225
50.5245
50.5266
50.5288
50.531
50.5332
50.5354
50.5375
50.5395
50.5414
50.543
50.5445
50.5458
50.5468
50.5475
50.5479
50.5481
50.548
50.5477
50.5471
50.5463
50.5453
50.544
50.5427
50.5413
50.5398
50.5382
50.5367
50.5352
50.5338
50.5325
50.5312
50.5301
50.5291
50.5282
50.5274
50.5268
50.5262
50.5257
50.5253
50.525
50.5248
50.5245
50.5244
50.5242
50.5241
50.524
50.5239
50.5238
50.5239
50.524
50.5276
50.5186
50.5049
50.5049
50.5049
50.5049
50.5049
50.5049
50.5049
50.5048
50.5047
50.5046
50.5045
50.5046
50.5048
50.5051
50.5053
50.5054
50.5055
50.5055
50.5056
50.5056
50.5056
50.5056
50.5057
50.5057
50.5057
50.5057
50.5058
50.5058
50.5058
50.5059
50.5059
50.5059
50.506
50.506
50.5061
50.5061
50.5062
50.5062
50.5063
50.5064
50.5064
50.5065
50.5066
50.5067
50.5068
50.5069
50.5071
50.5073
50.5075
50.5077
50.508
50.5083
50.5086
50.509
50.5095
50.5101
50.5107
50.5115
50.5124
50.5133
50.5144
50.5157
50.5171
50.5186
50.5203
50.5222
50.5242
50.5264
50.5287
50.5311
50.5337
50.5363
50.539
50.5417
50.5444
50.5471
50.5497
50.5522
50.5546
50.5568
50.5589
50.5607
50.5623
50.5636
50.5648
50.5656
50.5662
50.5666
50.5667
50.5666
50.5663
50.5658
50.565
50.5642
50.5632
50.5621
50.5609
50.5596
50.5582
50.5567
50.5552
50.5536
50.552
50.5503
50.5485
50.5468
50.545
50.5432
50.5413
50.5394
50.5375
50.5356
50.5338
50.5319
50.5301
50.5283
50.5265
50.5248
50.5231
50.5216
50.5201
50.5187
50.5174
50.5161
50.515
50.514
50.5131
50.5122
50.5115
50.5109
50.5104
50.5101
50.5098
50.5097
50.5096
50.5097
50.51
50.5104
50.5109
50.5116
50.5124
50.5134
50.5146
50.5159
50.5174
50.519
50.5208
50.5227
50.5247
50.5269
50.529
50.5312
50.5334
50.5356
50.5377
50.5397
50.5416
50.5433
50.5448
50.546
50.547
50.5477
50.5482
50.5483
50.5482
50.5479
50.5473
50.5465
50.5455
50.5443
50.543
50.5415
50.54
50.5385
50.537
50.5355
50.5341
50.5327
50.5315
50.5304
50.5294
50.5285
50.5277
50.527
50.5265
50.526
50.5256
50.5253
50.525
50.5248
50.5246
50.5245
50.5244
50.5243
50.5242
50.5241
50.5241
50.5241
50.528
50.5155
50.5049
50.5049
50.5049
50.5049
50.5049
50.5049
50.5049
50.5048
50.5047
50.5046
50.5045
50.5046
50.5048
50.5051
50.5053
50.5054
50.5055
50.5055
50.5056
50.5056
50.5056
50.5056
50.5057
50.5057
50.5057
50.5057
50.5058
50.5058
50.5058
50.5059
50.5059
50.5059
50.506
50.506
50.5061
50.5061
50.5062
50.5062
50.5063
50.5064
50.5064
50.5065
50.5066
50.5067
50.5068
50.5069
50.5071
50.5073
50.5075
50.5077
50.508
50.5083
50.5086
50.509
50.5095
50.5101
50.5107
50.5115
50.5124
50.5133
50.5144
50.5157
50.5171
50.5186
50.5203
50.5222
50.5242
50.5264
50.5287
50.5311
50.5337
50.5363
50.539
50.5417
50.5444
50.5471
50.5497
50.5522
50.5546
50.5568
50.5589
50.5607
50.5623
50.5636
50.5648
50.5656
50.5662
50.5666
50.5667
50.5666
50.5663
50.5658
50.565
50.5642
50.5632
50.5621
50.5609
50.5596
50.5582
50.5567
50.5552
50.5536
50.552
50.5503
50.5485
50.5468
50.545
50.5432
50.5413
50.5394
50.5375
50.5356
50.5338
50.5319
50.5301
50.5283
50.5265
50.5248
50.5231
50.5216
50.5201
50.5187
50.5174
50.5161
50.515
50.514
50.5131
50.5122
50.5115
50.5109
50.5104
50.5101
50.5098
50.5097
50.5096
50.5097
50.51
50.5104
50.5109
50.5116
50.5124
50.5134
50.5146
50.5159
50.5174
50.519
50.5208
50.5227
50.5247
50.5269
50.529
50.5312
50.5334
50.5356
50.5377
50.5397
50.5416
50.5433
50.5448
50.546
50.547
50.5477
50.5482
50.5483
50.5482
50.5479
50.5473
50.5465
50.5455
50.5443
50.543
50.5415
50.54
50.5385
50.537
50.5355
50.5341
50.5327
50.5315
50.5304
50.5294
50.5285
50.5277
50.527
50.5265
50.526
50.5256
50.5253
50.525
50.5248
50.5246
50.5245
50.5244
50.5243
50.5242
50.5241
50.5241
50.5241
50.5279
50.5158
50.5049
50.5049
50.5049
50.5049
50.5049
50.5049
50.5049
50.5048
50.5047
50.5046
50.5045
50.5046
50.5048
50.5051
50.5053
50.5054
50.5055
50.5055
50.5056
50.5056
50.5056
50.5056
50.5057
50.5057
50.5057
50.5057
50.5058
50.5058
50.5058
50.5059
50.5059
50.5059
50.506
50.506
50.5061
50.5061
50.5062
50.5062
50.5063
50.5064
50.5064
50.5065
50.5066
50.5067
50.5068
50.5069
50.5071
50.5073
50.5075
50.5077
50.508
50.5083
50.5086
50.509
50.5095
50.5101
50.5107
50.5115
50.5124
50.5133
50.5144
50.5157
50.5171
50.5186
50.5203
50.5222
50.5242
50.5264
50.5287
50.5311
50.5337
50.5363
50.539
50.5417
50.5444
50.5471
50.5497
50.5522
50.5546
50.5568
50.5589
50.5607
50.5623
50.5636
50.5648
50.5656
50.5662
50.5666
50.5667
50.5666
50.5663
50.5658
50.565
50.5642
50.5632
50.5621
50.5609
50.5596
50.5582
50.5567
50.5552
50.5536
50.552
50.5503
50.5485
50.5468
50.545
50.5432
50.5413
50.5394
50.5375
50.5356
50.5338
50.5319
50.5301
50.5283
50.5265
50.5248
50.5231
50.5216
50.5201
50.5187
50.5174
50.5161
50.515
50.514
50.5131
50.5122
50.5115
50.5109
50.5104
50.5101
50.5098
50.5097
50.5096
50.5097
50.51
50.5104
50.5109
50.5116
50.5124
50.5134
50.5146
50.5159
50.5174
50.519
50.5208
50.5227
50.5247
50.5269
50.529
50.5312
50.5334
50.5356
50.5377
50.5397
50.5416
50.5433
50.5448
50.546
50.547
50.5477
50.5482
50.5483
50.5482
50.5479
50.5473
50.5465
50.5455
50.5443
50.543
50.5415
50.54
50.5385
50.537
50.5355
50.5341
50.5327
50.5315
50.5304
50.5294
50.5285
50.5277
50.527
50.5265
50.526
50.5256
50.5253
50.525
50.5248
50.5246
50.5245
50.5244
50.5243
50.5242
50.5241
50.5241
50.5242
50.5273
50.5197
50.5049
50.5049
50.5049
50.5049
50.5049
50.5049
50.5049
50.5048
50.5047
50.5046
50.5045
50.5046
50.5048
50.5051
50.5053
50.5054
50.5055
50.5055
50.5056
50.5056
50.5056
50.5056
50.5057
50.5057
50.5057
50.5057
50.5058
50.5058
50.5058
50.5059
50.5059
50.5059
50.506
50.506
50.5061
50.5061
50.5062
50.5062
50.5063
50.5064
50.5064
50.5065
50.5066
50.5067
50.5068
50.5069
50.5071
50.5073
50.5075
50.5077
50.508
50.5083
50.5086
50.509
50.5095
50.5101
50.5107
50.5115
50.5124
50.5133
50.5144
50.5157
50.5171
50.5186
50.5203
50.5222
50.5242
50.5264
50.5287
50.5311
50.5337
50.5363
50.539
50.5417
50.5444
50.5471
50.5497
50.5522
50.5546
50.5568
50.5589
50.5607
50.5623
50.5636
50.5648
50.5656
50.5662
50.5666
50.5667
50.5666
50.5663
50.5658
50.565
50.5642
50.5632
50.5621
50.5609
50.5596
50.5582
50.5567
50.5552
50.5536
50.552
50.5503
50.5485
50.5468
50.545
50.5432
50.5413
50.5394
50.5375
50.5356
50.5338
50.5319
50.5301
50.5283
50.5265
50.5248
50.5231
50.5216
50.5201
50.5187
50.5174
50.5161
50.515
50.514
50.5131
50.5122
50.5115
50.5109
50.5104
50.5101
50.5098
50.5097
50.5096
50.5097
50.51
50.5104
50.5109
50.5116
50.5124
50.5134
50.5146
50.5159
50.5174
50.519
50.5208
50.5227
50.5247
50.5269
50.529
50.5312
50.5334
50.5356
50.5377
50.5397
50.5416
50.5433
50.5448
50.546
50.547
50.5477
50.5482
50.5483
50.5482
50.5479
50.5473
50.5465
50.5455
50.5443
50.543
50.5415
50.54
50.5385
50.537
50.5355
50.5341
50.5327
50.5315
50.5304
50.5294
50.5285
50.5277
50.527
50.5265
50.526
50.5256
50.5253
50.525
50.5248
50.5246
50.5245
50.5244
50.5243
50.5242
50.5241
50.524
50.5239
50.5255
50.5178
50.5049
50.5049
50.5049
50.5049
50.5049
50.5049
50.5049
50.5048
50.5047
50.5046
50.5045
50.5046
50.5048
50.5051
50.5053
50.5054
50.5055
50.5055
50.5056
50.5056
50.5056
50.5056
50.5057
50.5057
50.5057
50.5057
50.5058
50.5058
50.5058
50.5059
50.5059
50.5059
50.506
50.506
50.5061
50.5061
50.5062
50.5062
50.5063
50.5064
50.5064
50.5065
50.5066
50.5067
50.5068
50.5069
50.5071
50.5073
50.5075
50.5077
50.508
50.5083
50.5086
50.509
50.5095
50.5101
50.5107
50.5115
50.5124
50.5133
50.5144
50.5157
50.5171
50.5186
50.5203
50.5222
50.5242
50.5264
50.5287
50.5311
50.5337
50.5363
50.539
50.5417
50.5444
50.5471
50.5497
50.5522
50.5546
50.5568
50.5589
50.5607
50.5623
50.5636
50.5648
50.5656
50.5662
50.5666
50.5667
50.5666
50.5663
50.5658
50.565
50.5642
50.5632
50.5621
50.5609
50.5596
50.5582
50.5567
50.5552
50.5536
50.552
50.5503
50.5485
50.5468
50.545
50.5432
50.5413
50.5394
50.5375
50.5356
50.5338
50.5319
50.5301
50.5283
50.5265
50.5248
50.5231
50.5216
50.5201
50.5187
50.5174
50.5161
50.515
50.514
50.5131
50.5122
50.5115
50.5109
50.5104
50.5101
50.5098
50.5097
50.5096
50.5097
50.51
50.5104
50.5109
50.5116
50.5124
50.5134
50.5146
50.5159
50.5174
50.519
50.5208
50.5227
50.5247
50.5269
50.529
50.5312
50.5334
50.5356
50.5377
50.5397
50.5416
50.5433
50.5448
50.546
50.547
50.5477
50.5482
50.5483
50.5482
50.5479
50.5473
50.5465
50.5455
50.5443
50.543
50.5415
50.54
50.5385
50.537
50.5355
50.5341
50.5327
50.5315
50.5304
50.5294
50.5285
50.5277
50.527
50.5265
50.526
50.5256
50.5253
50.525
50.5248
50.5246
50.5245
50.5244
50.5242
50.5242
50.5241
50.5239
50.5237
50.5229
50.521
50.5049
50.5049
50.5049
50.5049
50.5049
50.5049
50.5049
50.5048
50.5047
50.5046
50.5045
50.5046
50.5048
50.5051
50.5053
50.5054
50.5055
50.5055
50.5056
50.5056
50.5056
50.5056
50.5057
50.5057
50.5057
50.5057
50.5058
50.5058
50.5058
50.5059
50.5059
50.5059
50.506
50.506
50.5061
50.5061
50.5062
50.5062
50.5063
50.5064
50.5064
50.5065
50.5066
50.5067
50.5068
50.5069
50.5071
50.5073
50.5075
50.5077
50.508
50.5083
50.5086
50.509
50.5095
50.5101
50.5107
50.5115
50.5124
50.5133
50.5144
50.5157
50.5171
50.5186
50.5203
50.5222
50.5242
50.5264
50.5287
50.5311
50.5337
50.5363
50.539
50.5417
50.5444
50.5471
50.5497
50.5522
50.5546
50.5568
50.5589
50.5607
50.5623
50.5636
50.5648
50.5656
50.5662
50.5666
50.5667
50.5666
50.5663
50.5658
50.565
50.5642
50.5632
50.5621
50.5609
50.5596
50.5582
50.5567
50.5552
50.5536
50.552
50.5503
50.5485
50.5468
50.545
50.5432
50.5413
50.5394
50.5375
50.5356
50.5338
50.5319
50.5301
50.5283
50.5265
50.5248
50.5231
50.5216
50.5201
50.5187
50.5174
50.5161
50.515
50.514
50.5131
50.5122
50.5115
50.5109
50.5104
50.5101
50.5098
50.5097
50.5096
50.5097
50.51
50.5104
50.5109
50.5116
50.5124
50.5134
50.5146
50.5159
50.5174
50.519
50.5208
50.5227
50.5247
50.5269
50.529
50.5312
50.5334
50.5356
50.5377
50.5397
50.5416
50.5433
50.5448
50.546
50.547
50.5477
50.5482
50.5483
50.5482
50.5479
50.5473
50.5465
50.5455
50.5443
50.543
50.5415
50.54
50.5385
50.537
50.5355
50.5341
50.5327
50.5315
50.5304
50.5294
50.5285
50.5277
50.527
50.5265
50.526
50.5256
50.5253
50.525
50.5248
50.5246
50.5245
50.5244
50.5243
50.5242
50.524
50.5238
50.5237
50.5199
50.5313
50.5049
50.5049
50.5049
50.5049
50.5049
50.5049
50.5049
50.5048
50.5047
50.5046
50.5045
50.5046
50.5048
50.5051
50.5053
50.5054
50.5055
50.5055
50.5056
50.5056
50.5056
50.5056
50.5057
50.5057
50.5057
50.5057
50.5058
50.5058
50.5058
50.5059
50.5059
50.5059
50.506
50.506
50.5061
50.5061
50.5062
50.5062
50.5063
50.5064
50.5064
50.5065
50.5066
50.5067
50.5068
50.5069
50.5071
50.5073
50.5075
50.5077
50.508
50.5083
50.5086
50.509
50.5095
50.5101
50.5107
50.5115
50.5124
50.5133
50.5144
50.5157
50.5171
50.5186
50.5203
50.5222
50.5242
50.5264
50.5287
50.5311
50.5337
50.5363
50.539
50.5417
50.5444
50.5471
50.5497
50.5522
50.5546
50.5568
50.5589
50.5607
50.5623
50.5636
50.5648
50.5656
50.5662
50.5666
50.5667
50.5666
50.5663
50.5658
50.565
50.5642
50.5632
50.5621
50.5609
50.5596
50.5582
50.5567
50.5552
50.5536
50.552
50.5503
50.5485
50.5468
50.545
50.5432
50.5413
50.5394
50.5375
50.5356
50.5338
50.5319
50.5301
50.5283
50.5265
50.5248
50.5231
50.5216
50.5201
50.5187
50.5174
50.5161
50.515
50.514
50.5131
50.5122
50.5115
50.5109
50.5104
50.5101
50.5098
50.5097
50.5096
50.5097
50.51
50.5104
50.5109
50.5116
50.5124
50.5134
50.5146
50.5159
50.5174
50.519
50.5208
50.5227
50.5247
50.5269
50.529
50.5312
50.5334
50.5356
50.5377
50.5397
50.5416
50.5433
50.5448
50.546
50.547
50.5477
50.5482
50.5483
50.5482
50.5479
50.5473
50.5465
50.5455
50.5443
50.543
50.5415
50.54
50.5385
50.537
50.5355
50.5341
50.5327
50.5315
50.5304
50.5294
50.5285
50.5277
50.527
50.5265
50.526
50.5256
50.5253
50.525
50.5248
50.5246
50.5245
50.5244
50.5243
50.5242
50.524
50.5238
50.5242
50.5169
50.5599
50.5049
50.5049
50.5049
50.5049
50.5049
50.5049
50.5049
50.5048
50.5047
50.5046
50.5045
50.5046
50.5048
50.5051
50.5053
50.5054
50.5055
50.5055
50.5056
50.5056
50.5056
50.5056
50.5057
50.5057
50.5057
50.5057
50.5058
50.5058
50.5058
50.5059
50.5059
50.5059
50.506
50.506
50.5061
50.5061
50.5062
50.5062
50.5063
50.5064
50.5064
50.5065
50.5066
50.5067
50.5068
50.5069
50.5071
50.5073
50.5075
50.5077
50.508
50.5083
50.5086
50.509
50.5095
50.5101
50.5107
50.5115
50.5124
50.5133
50.5144
50.5157
50.5171
50.5186
50.5203
50.5222
50.5242
50.5264
50.5287
50.5311
50.5337
50.5363
50.539
50.5417
50.5444
50.5471
50.5497
50.5522
50.5546
50.5568
50.5589
50.5607
50.5623
50.5636
50.5648
50.5656
50.5662
50.5666
50.5667
50.5666
50.5663
50.5658
50.565
50.5642
50.5632
50.5621
50.5609
50.5596
50.5582
50.5567
50.5552
50.5536
50.552
50.5503
50.5485
50.5468
50.545
50.5432
50.5413
50.5394
50.5375
50.5356
50.5338
50.5319
50.5301
50.5283
50.5265
50.5248
50.5231
50.5216
50.5201
50.5187
50.5174
50.5161
50.515
50.514
50.5131
50.5122
50.5115
50.5109
50.5104
50.5101
50.5098
50.5097
50.5096
50.5097
50.51
50.5104
50.5109
50.5116
50.5124
50.5134
50.5146
50.5159
50.5174
50.519
50.5208
50.5227
50.5247
50.5269
50.529
50.5312
50.5334
50.5356
50.5377
50.5397
50.5416
50.5433
50.5448
50.546
50.547
50.5477
50.5482
50.5483
50.5482
50.5479
50.5473
50.5465
50.5455
50.5443
50.543
50.5415
50.54
50.5385
50.537
50.5355
50.5341
50.5327
50.5315
50.5304
50.5294
50.5285
50.5277
50.527
50.5265
50.526
50.5256
50.5253
50.525
50.5248
50.5246
50.5245
50.5244
50.5243
50.5242
50.5241
50.5238
50.5244
50.5151
50.575
50.5045
50.5045
50.5045
50.5045
50.5045
50.5045
50.5045
50.5045
50.5043
50.5042
50.5042
50.5042
50.5044
50.5047
50.505
50.5051
50.5052
50.5052
50.5052
50.5053
50.5053
50.5053
50.5053
50.5054
50.5054
50.5054
50.5055
50.5055
50.5055
50.5056
50.5056
50.5057
50.5057
50.5058
50.5058
50.5059
50.5059
50.506
50.506
50.5061
50.5062
50.5063
50.5063
50.5064
50.5066
50.5067
50.5068
50.507
50.5072
50.5074
50.5077
50.508
50.5084
50.5088
50.5093
50.5098
50.5105
50.5112
50.5121
50.5131
50.5142
50.5154
50.5168
50.5184
50.5201
50.5219
50.524
50.5261
50.5284
50.5309
50.5334
50.5361
50.5387
50.5415
50.5442
50.5469
50.5495
50.552
50.5544
50.5566
50.5586
50.5604
50.562
50.5634
50.5645
50.5654
50.566
50.5663
50.5664
50.5664
50.5661
50.5655
50.5648
50.5639
50.5629
50.5618
50.5606
50.5593
50.5579
50.5564
50.5549
50.5533
50.5517
50.55
50.5483
50.5465
50.5447
50.5429
50.541
50.5392
50.5373
50.5354
50.5335
50.5316
50.5298
50.528
50.5262
50.5245
50.5229
50.5213
50.5198
50.5184
50.5171
50.5159
50.5147
50.5137
50.5128
50.512
50.5113
50.5107
50.5102
50.5098
50.5095
50.5094
50.5094
50.5095
50.5097
50.5101
50.5107
50.5113
50.5122
50.5132
50.5143
50.5157
50.5171
50.5188
50.5206
50.5225
50.5245
50.5266
50.5288
50.531
50.5332
50.5354
50.5375
50.5395
50.5414
50.543
50.5445
50.5458
50.5468
50.5475
50.5479
50.5481
50.548
50.5477
50.5471
50.5463
50.5453
50.544
50.5427
50.5413
50.5398
50.5382
50.5367
50.5352
50.5338
50.5325
50.5312
50.5301
50.5291
50.5282
50.5274
50.5268
50.5262
50.5257
50.5253
50.525
50.5247
50.5246
50.5244
50.5242
50.5241
50.524
50.5239
50.5238
50.5235
50.5243
50.5134
50.5882
50.612
50.6506
50.6633
50.6651
50.6647
50.6644
50.6638
50.6627
50.6611
50.6593
50.6574
50.6554
50.653
50.6503
50.647
50.6428
50.6374
50.63
50.6198
50.6041
50.6063
50.6404
50.6537
50.6561
50.656
50.6561
50.6557
50.655
50.6536
50.6522
50.6504
50.6486
50.6463
50.6438
50.6405
50.6364
50.6308
50.6234
50.613
50.5972
50.601
50.6354
50.6506
50.6538
50.6539
50.654
50.6536
50.6527
50.6512
50.6496
50.6478
50.6459
50.6436
50.6409
50.6376
50.6335
50.6277
50.6199
50.6088
50.5917
50.583
50.6021
50.6082
50.6076
50.6063
50.6054
50.6044
50.6029
50.6011
50.5993
50.5973
50.5952
50.5926
50.5896
50.5859
50.5814
50.5763
50.5689
50.5592
50.5454
50.5527
50.565
50.5741
50.5807
50.5853
50.5882
50.5895
50.59
50.5898
50.5892
50.588
50.5864
50.5837
50.5806
50.5767
50.5717
50.5651
50.5575
50.5488
50.5384
50.5006
50.491
50.4807
50.47
50.4602
50.452
50.4458
50.4408
50.4366
50.4331
50.4303
50.428
50.4267
50.4255
50.424
50.423
50.4224
50.4231
50.4241
50.4279
50.4434
50.4225
50.4155
50.4163
50.4178
50.4187
50.419
50.4197
50.42
50.4205
50.4205
50.4206
50.4203
50.4202
50.4201
50.4209
50.4222
50.4253
50.4311
50.4417
50.3751
50.3189
50.2763
50.2476
50.228
50.2128
50.201
50.1925
50.1867
50.1833
50.1816
50.1817
50.1835
50.1877
50.1955
50.2055
50.2208
50.2383
50.2638
50.2948
50.3607
50.2999
50.262
50.2404
50.2259
50.215
50.2062
50.2005
50.1969
50.1958
50.196
50.1978
50.2011
50.2065
50.2146
50.2257
50.2402
50.2577
50.2809
50.3103
50.3426
50.2577
50.2101
50.1821
50.1634
50.1474
50.1344
50.1247
50.1191
50.1139
50.112
50.1109
50.1131
50.1166
50.1243
50.1354
50.1503
50.1699
50.1955
50.2305
50.5362
50.4972
50.4864
50.4832
50.4821
50.4818
50.4817
50.4816
50.4815
50.4813
50.4812
50.4811
50.481
50.481
50.481
50.481
50.481
50.4809
50.4809
50.4808
50.4808
50.4808
50.4809
50.481
50.4811
50.4812
50.4814
50.4818
50.4826
50.4837
50.4846
50.4853
50.4857
50.486
50.4858
50.4835
50.472
50.4275
50.328
50.234
50.1644
50.1237
50.1084
50.1082
50.1246
50.1976
50.31
50.3973
50.4563
50.4908
50.5076
50.5133
50.5138
50.5114
50.505
50.4998
50.4964
50.4942
50.4928
50.4919
50.4913
50.4909
50.4906
50.4904
50.4903
50.4901
50.4901
50.49
50.4899
50.4899
50.4899
50.4899
50.4898
50.4898
50.4898
50.4898
50.4898
50.4898
50.4898
50.4898
50.4898
50.4898
50.4897
50.4897
50.4897
50.4897
50.4897
50.4897
50.4897
50.4897
50.4897
50.4897
50.4897
50.4897
50.4897
50.4897
50.4897
50.4897
50.4897
50.4897
50.4897
50.4898
50.4898
50.4898
50.4899
50.4899
50.49
50.4901
50.4902
50.4903
50.4904
50.4906
50.4907
50.491
50.4912
50.4915
50.4918
50.4922
50.4927
50.4932
50.4937
50.4944
50.4951
50.4959
50.4968
50.4977
50.4988
50.4999
50.5012
50.5025
50.5039
50.5054
50.507
50.5086
50.5103
50.512
50.5138
50.5156
50.5175
50.5193
50.521
50.5228
50.5244
50.526
50.5275
50.5288
50.53
50.5311
50.532
50.5328
50.5333
50.5337
50.5339
50.5339
50.5337
50.5334
50.5329
50.5323
50.5315
50.5305
50.5295
50.5284
50.5272
50.526
50.5247
50.5234
50.5221
50.5209
50.5197
50.5185
50.5174
50.5163
50.5154
50.5145
50.5137
50.513
50.5123
50.5118
50.5113
50.5108
50.5105
50.5102
50.5099
50.5097
50.5095
50.5094
50.5092
50.5091
50.509
50.5089
50.5089
50.5088
50.5087
50.5086
50.5086
50.5084
50.508
50.5081
50.4983
50.5515
50.5359
50.4994
50.4889
50.4859
50.485
50.4847
50.4847
50.4846
50.4846
50.4844
50.4842
50.4841
50.4841
50.4841
50.484
50.484
50.484
50.484
50.484
50.4839
50.4839
50.4838
50.4838
50.4839
50.484
50.4843
50.4846
50.4849
50.4851
50.4854
50.4857
50.4863
50.4874
50.4899
50.4934
50.4972
50.5008
50.5036
50.5051
50.5056
50.505
50.5
50.4839
50.4641
50.449
50.44
50.4367
50.4368
50.4395
50.4503
50.4644
50.4751
50.4826
50.4873
50.49
50.4913
50.4918
50.492
50.492
50.4917
50.4914
50.4911
50.4908
50.4906
50.4905
50.4904
50.4903
50.4902
50.4902
50.4902
50.4901
50.4901
50.4901
50.4901
50.4901
50.4901
50.4901
50.49
50.49
50.49
50.49
50.49
50.49
50.49
50.49
50.49
50.49
50.49
50.49
50.49
50.4899
50.4899
50.4899
50.4899
50.4899
50.4899
50.4899
50.49
50.49
50.49
50.49
50.49
50.49
50.4901
50.4901
50.4902
50.4902
50.4903
50.4904
50.4905
50.4907
50.4908
50.491
50.4912
50.4915
50.4918
50.4921
50.4925
50.4929
50.4934
50.494
50.4946
50.4954
50.4962
50.497
50.498
50.499
50.5002
50.5014
50.5027
50.5041
50.5056
50.5072
50.5088
50.5105
50.5123
50.5141
50.5159
50.5177
50.5195
50.5213
50.523
50.5247
50.5262
50.5277
50.5291
50.5303
50.5314
50.5323
50.533
50.5336
50.5339
50.5341
50.5341
50.534
50.5337
50.5332
50.5325
50.5317
50.5308
50.5298
50.5287
50.5275
50.5262
50.5249
50.5237
50.5224
50.5211
50.5199
50.5187
50.5176
50.5166
50.5156
50.5148
50.5139
50.5132
50.5126
50.512
50.5115
50.5111
50.5107
50.5104
50.5102
50.5099
50.5098
50.5096
50.5095
50.5094
50.5093
50.5092
50.5091
50.5091
50.509
50.5089
50.5088
50.5087
50.5082
50.5083
50.4996
50.5421
50.5358
50.5004
50.4893
50.4858
50.4846
50.4842
50.484
50.484
50.4839
50.4837
50.4836
50.4835
50.4834
50.4834
50.4833
50.4833
50.4833
50.4832
50.4832
50.4832
50.4831
50.4832
50.4832
50.4832
50.4833
50.4834
50.4835
50.4837
50.4841
50.4847
50.4852
50.4856
50.4859
50.4863
50.487
50.4885
50.4934
50.5055
50.5178
50.5269
50.5321
50.534
50.5342
50.5321
50.5214
50.4998
50.4823
50.4716
50.4669
50.4661
50.4671
50.4718
50.4789
50.4842
50.4877
50.4898
50.4909
50.4913
50.4914
50.4914
50.4912
50.491
50.4908
50.4906
50.4905
50.4904
50.4903
50.4902
50.4902
50.4902
50.4901
50.4901
50.4901
50.4901
50.4901
50.4901
50.4901
50.49
50.49
50.49
50.49
50.49
50.49
50.49
50.49
50.49
50.49
50.49
50.49
50.49
50.4899
50.4899
50.4899
50.4899
50.4899
50.4899
50.4899
50.49
50.49
50.49
50.49
50.49
50.49
50.4901
50.4901
50.4902
50.4902
50.4903
50.4904
50.4905
50.4907
50.4908
50.491
50.4912
50.4915
50.4918
50.4921
50.4925
50.4929
50.4934
50.494
50.4946
50.4954
50.4962
50.497
50.498
50.499
50.5002
50.5014
50.5027
50.5041
50.5056
50.5072
50.5088
50.5105
50.5123
50.5141
50.5159
50.5177
50.5195
50.5213
50.523
50.5247
50.5262
50.5277
50.5291
50.5303
50.5314
50.5323
50.533
50.5336
50.5339
50.5341
50.5341
50.534
50.5337
50.5332
50.5325
50.5317
50.5308
50.5298
50.5287
50.5275
50.5262
50.5249
50.5237
50.5224
50.5211
50.5199
50.5187
50.5176
50.5166
50.5156
50.5148
50.5139
50.5132
50.5126
50.512
50.5115
50.5111
50.5107
50.5104
50.5102
50.5099
50.5098
50.5096
50.5095
50.5094
50.5093
50.5092
50.5091
50.5091
50.509
50.5089
50.5088
50.5087
50.5082
50.5081
50.5011
50.5285
50.5066
50.4819
50.4755
50.4752
50.4758
50.4762
50.4765
50.4765
50.4765
50.4765
50.4764
50.4764
50.4763
50.4762
50.4761
50.4761
50.4761
50.4761
50.476
50.476
50.476
50.476
50.4761
50.4762
50.4763
50.4764
50.4766
50.477
50.4776
50.4782
50.4788
50.4792
50.4796
50.4801
50.4807
50.4821
50.4861
50.4932
50.4997
50.5045
50.5073
50.5084
50.5085
50.5074
50.502
50.4942
50.4884
50.4851
50.4837
50.4835
50.4839
50.4854
50.4876
50.4892
50.4901
50.4906
50.4908
50.4909
50.4909
50.4908
50.4906
50.4905
50.4904
50.4903
50.4903
50.4902
50.4902
50.4902
50.4901
50.4901
50.4901
50.4901
50.4901
50.4901
50.4901
50.4901
50.49
50.49
50.49
50.49
50.49
50.49
50.49
50.49
50.49
50.49
50.49
50.49
50.49
50.49
50.4899
50.4899
50.4899
50.4899
50.4899
50.4899
50.4899
50.49
50.49
50.49
50.49
50.49
50.49
50.4901
50.4901
50.4902
50.4902
50.4903
50.4904
50.4905
50.4907
50.4908
50.491
50.4912
50.4915
50.4918
50.4921
50.4925
50.4929
50.4934
50.494
50.4946
50.4954
50.4962
50.497
50.498
50.499
50.5002
50.5014
50.5027
50.5041
50.5056
50.5072
50.5088
50.5105
50.5123
50.5141
50.5159
50.5177
50.5195
50.5213
50.523
50.5247
50.5262
50.5277
50.5291
50.5303
50.5314
50.5323
50.533
50.5336
50.5339
50.5341
50.5341
50.534
50.5337
50.5332
50.5325
50.5317
50.5308
50.5298
50.5287
50.5275
50.5262
50.5249
50.5237
50.5224
50.5211
50.5199
50.5187
50.5176
50.5166
50.5156
50.5148
50.5139
50.5132
50.5126
50.512
50.5115
50.5111
50.5107
50.5104
50.5102
50.5099
50.5098
50.5096
50.5095
50.5094
50.5093
50.5092
50.5091
50.5091
50.509
50.5089
50.5088
50.5087
50.5083
50.5074
50.503
50.5053
50.5138
50.5038
50.4979
50.4925
50.489
50.4871
50.4863
50.4859
50.4857
50.4855
50.4853
50.4852
50.4851
50.4851
50.485
50.485
50.4849
50.4849
50.4849
50.4848
50.4848
50.4848
50.4847
50.4847
50.4847
50.4848
50.4847
50.4847
50.4847
50.4848
50.485
50.4852
50.4853
50.4852
50.4849
50.4847
50.4848
50.4851
50.4856
50.4874
50.49
50.4918
50.4927
50.493
50.493
50.4924
50.4913
50.4906
50.4902
50.4901
50.4902
50.4904
50.4905
50.4906
50.4907
50.4907
50.4906
50.4906
50.4905
50.4904
50.4903
50.4903
50.4902
50.4902
50.4902
50.4902
50.4901
50.4901
50.4901
50.4901
50.4901
50.4901
50.4901
50.4901
50.4901
50.4901
50.49
50.49
50.49
50.49
50.49
50.49
50.49
50.49
50.49
50.49
50.49
50.49
50.49
50.49
50.4899
50.4899
50.4899
50.4899
50.4899
50.4899
50.4899
50.49
50.49
50.49
50.49
50.49
50.49
50.4901
50.4901
50.4902
50.4902
50.4903
50.4904
50.4905
50.4907
50.4908
50.491
50.4912
50.4915
50.4918
50.4921
50.4925
50.4929
50.4934
50.494
50.4946
50.4954
50.4962
50.497
50.498
50.499
50.5002
50.5014
50.5027
50.5041
50.5056
50.5072
50.5088
50.5105
50.5123
50.5141
50.5159
50.5177
50.5195
50.5213
50.523
50.5247
50.5262
50.5277
50.5291
50.5303
50.5314
50.5323
50.533
50.5336
50.5339
50.5341
50.5341
50.534
50.5337
50.5332
50.5325
50.5317
50.5308
50.5298
50.5287
50.5275
50.5262
50.5249
50.5237
50.5224
50.5211
50.5199
50.5187
50.5176
50.5166
50.5156
50.5148
50.5139
50.5132
50.5126
50.512
50.5115
50.5111
50.5107
50.5104
50.5102
50.5099
50.5098
50.5096
50.5095
50.5094
50.5093
50.5092
50.5091
50.5091
50.509
50.5089
50.5088
50.5087
50.5086
50.5082
50.507
50.5031
50.4355
50.4455
50.4515
50.4563
50.4594
50.4608
50.4613
50.4616
50.4617
50.4617
50.4616
50.4616
50.4616
50.4616
50.4616
50.4615
50.4615
50.4614
50.4614
50.4615
50.4616
50.4617
50.4619
50.4623
50.4626
50.463
50.4635
50.4641
50.4647
50.4655
50.4664
50.4672
50.4679
50.4685
50.469
50.4698
50.4712
50.4746
50.4795
50.4843
50.4884
50.4915
50.4935
50.4944
50.4947
50.4947
50.4938
50.4924
50.4913
50.4905
50.4899
50.4895
50.4893
50.4892
50.4892
50.4893
50.4893
50.4894
50.4895
50.4897
50.4898
50.4898
50.4899
50.4899
50.49
50.49
50.49
50.4901
50.4901
50.4901
50.4901
50.4901
50.4901
50.4901
50.4901
50.4901
50.49
50.49
50.49
50.49
50.49
50.49
50.49
50.49
50.49
50.49
50.49
50.49
50.49
50.49
50.4899
50.4899
50.4899
50.4899
50.4899
50.4899
50.4899
50.49
50.49
50.49
50.49
50.49
50.49
50.4901
50.4901
50.4902
50.4902
50.4903
50.4904
50.4905
50.4907
50.4908
50.491
50.4912
50.4915
50.4918
50.4921
50.4925
50.4929
50.4934
50.494
50.4946
50.4954
50.4962
50.497
50.498
50.499
50.5002
50.5014
50.5027
50.5041
50.5056
50.5072
50.5088
50.5105
50.5123
50.5141
50.5159
50.5177
50.5195
50.5213
50.523
50.5247
50.5262
50.5277
50.5291
50.5303
50.5314
50.5323
50.533
50.5336
50.5339
50.5341
50.5341
50.534
50.5337
50.5332
50.5325
50.5317
50.5308
50.5298
50.5287
50.5275
50.5262
50.5249
50.5237
50.5224
50.5211
50.5199
50.5187
50.5176
50.5166
50.5156
50.5148
50.5139
50.5132
50.5126
50.512
50.5115
50.5111
50.5107
50.5104
50.5102
50.5099
50.5098
50.5096
50.5095
50.5094
50.5093
50.5092
50.5091
50.509
50.509
50.5089
50.5089
50.5088
50.5088
50.509
50.5108
50.5069
50.4776
50.4989
50.5019
50.4999
50.4983
50.4976
50.4971
50.4967
50.4964
50.4962
50.496
50.4959
50.4959
50.496
50.496
50.4959
50.4959
50.4959
50.4959
50.4959
50.4958
50.4958
50.4958
50.4957
50.4957
50.4957
50.4957
50.4958
50.4959
50.4959
50.4957
50.4953
50.4952
50.4952
50.4952
50.4947
50.4932
50.4917
50.4909
50.4909
50.4913
50.4928
50.4972
50.5012
50.5034
50.5041
50.504
50.5028
50.4992
50.4959
50.4935
50.4918
50.4906
50.4899
50.4895
50.4893
50.4893
50.4893
50.4894
50.4895
50.4896
50.4897
50.4898
50.4899
50.49
50.49
50.49
50.49
50.4901
50.4901
50.4901
50.4901
50.4901
50.4901
50.4901
50.4901
50.49
50.49
50.49
50.49
50.49
50.49
50.49
50.49
50.49
50.49
50.49
50.49
50.49
50.49
50.4899
50.4899
50.4899
50.4899
50.4899
50.4899
50.4899
50.49
50.49
50.49
50.49
50.49
50.49
50.4901
50.4901
50.4902
50.4902
50.4903
50.4904
50.4905
50.4907
50.4908
50.491
50.4912
50.4915
50.4918
50.4921
50.4925
50.4929
50.4934
50.494
50.4946
50.4954
50.4962
50.497
50.498
50.499
50.5002
50.5014
50.5027
50.5041
50.5056
50.5072
50.5088
50.5105
50.5123
50.5141
50.5159
50.5177
50.5195
50.5213
50.523
50.5247
50.5262
50.5277
50.5291
50.5303
50.5314
50.5323
50.533
50.5336
50.5339
50.5341
50.5341
50.534
50.5337
50.5332
50.5325
50.5317
50.5308
50.5298
50.5287
50.5275
50.5262
50.5249
50.5237
50.5224
50.5211
50.5199
50.5187
50.5176
50.5166
50.5156
50.5148
50.5139
50.5132
50.5126
50.512
50.5115
50.5111
50.5107
50.5104
50.5102
50.5099
50.5098
50.5096
50.5095
50.5094
50.5093
50.5092
50.5091
50.5091
50.509
50.5089
50.5089
50.5089
50.509
50.5098
50.5136
50.513
50.4019
50.4466
50.4584
50.4623
50.4632
50.4633
50.4631
50.4628
50.4625
50.4623
50.4622
50.4621
50.4621
50.4623
50.4624
50.4624
50.4624
50.4624
50.4622
50.4621
50.462
50.462
50.462
50.4619
50.4618
50.4619
50.4621
50.4624
50.4626
50.4629
50.4632
50.4632
50.4629
50.463
50.4633
50.4637
50.4649
50.4686
50.4763
50.4837
50.4899
50.4946
50.4977
50.4993
50.4998
50.4999
50.4991
50.4966
50.4939
50.4918
50.4903
50.4893
50.4887
50.4884
50.4884
50.4884
50.4885
50.4887
50.489
50.4892
50.4894
50.4896
50.4897
50.4898
50.4899
50.4899
50.49
50.49
50.49
50.49
50.4901
50.4901
50.4901
50.4901
50.4901
50.4901
50.49
50.49
50.49
50.49
50.49
50.49
50.49
50.49
50.49
50.49
50.49
50.49
50.49
50.49
50.4899
50.4899
50.4899
50.4899
50.4899
50.4899
50.4899
50.49
50.49
50.49
50.49
50.49
50.49
50.4901
50.4901
50.4902
50.4902
50.4903
50.4904
50.4905
50.4907
50.4908
50.491
50.4912
50.4915
50.4918
50.4921
50.4925
50.4929
50.4934
50.494
50.4946
50.4954
50.4962
50.497
50.498
50.499
50.5002
50.5014
50.5027
50.5041