/*--------------------------------*- C++ -*----------------------------------*\
| =========                 |                                                 |
| \\      /  F ield         | OpenFOAM: The Open Source CFD Toolbox           |
|  \\    /   O peration     | Version:  3.0.x                                 |
|   \\  /    A nd           | Web:      www.OpenFOAM.org                      |
|    \\/     M anipulation  |                                                 |
\*---------------------------------------------------------------------------*/
FoamFile
{
    version     2.0;
    format      ascii;
    class       volScalarField;
    location    "0.59";
    object      T;
}
// * * * * * * * * * * * * * * * * * * * * * * * * * * * * * * * * * * * * * //

dimensions      [0 0 0 1 0 0 0];

internalField   nonuniform List<scalar> 
6900
(
787.002
786.97
786.914
786.856
786.8
786.746
786.694
786.646
786.605
786.568
786.535
786.507
786.485
786.469
786.458
786.449
786.443
786.438
786.435
786.434
786.434
786.434
786.434
786.433
786.432
786.431
786.43
786.428
786.426
786.424
786.422
786.42
786.417
786.415
786.412
786.409
786.405
786.401
786.398
786.394
786.389
786.385
786.38
786.376
786.371
786.365
786.36
786.354
786.349
786.343
786.337
786.33
786.322
786.313
786.304
786.294
786.284
786.275
786.267
786.258
786.249
786.24
786.23
786.22
786.209
786.197
786.185
786.171
786.157
786.144
786.131
786.119
786.107
786.095
786.084
786.072
786.06
786.047
786.033
786.02
786.006
785.992
785.979
785.965
785.952
785.939
785.927
785.914
785.902
785.89
785.877
785.865
785.852
785.84
785.827
785.814
785.802
785.789
785.776
785.763
785.75
785.736
785.723
785.71
785.696
785.683
785.669
785.655
785.641
785.627
785.613
785.599
785.585
785.571
785.557
785.542
785.528
785.513
785.499
785.484
785.47
785.455
785.44
785.426
785.411
785.396
785.382
785.367
785.352
785.337
785.322
785.308
785.293
785.278
785.263
785.248
785.233
785.219
785.204
785.189
785.174
785.16
785.145
785.13
785.116
785.101
785.086
785.072
785.057
785.042
785.028
785.013
784.999
784.984
784.97
784.955
784.94
784.926
784.912
784.897
784.883
784.868
784.854
784.84
784.826
784.812
784.798
784.784
784.77
784.757
784.743
784.73
784.716
784.703
784.69
784.677
784.664
784.652
784.639
784.627
784.614
784.603
784.59
784.58
784.566
784.557
784.543
784.535
784.521
784.513
784.499
784.492
784.478
784.47
784.457
784.447
784.44
784.426
784.419
784.411
786.998
786.966
786.91
786.852
786.796
786.741
786.69
786.642
786.601
786.564
786.531
786.503
786.481
786.465
786.454
786.445
786.439
786.434
786.431
786.43
786.43
786.43
786.43
786.429
786.428
786.427
786.426
786.424
786.422
786.42
786.418
786.416
786.414
786.411
786.408
786.405
786.401
786.398
786.394
786.39
786.386
786.381
786.377
786.372
786.367
786.362
786.356
786.351
786.345
786.34
786.334
786.327
786.319
786.31
786.301
786.291
786.281
786.272
786.263
786.255
786.246
786.237
786.227
786.217
786.206
786.195
786.182
786.169
786.155
786.141
786.128
786.116
786.104
786.093
786.081
786.069
786.057
786.044
786.031
786.017
786.003
785.99
785.976
785.963
785.95
785.937
785.924
785.912
785.899
785.887
785.875
785.862
785.85
785.837
785.825
785.812
785.799
785.786
785.773
785.76
785.747
785.734
785.721
785.707
785.694
785.68
785.666
785.653
785.639
785.625
785.611
785.597
785.583
785.568
785.554
785.54
785.525
785.511
785.496
785.482
785.467
785.453
785.438
785.423
785.409
785.394
785.379
785.364
785.35
785.335
785.32
785.305
785.29
785.275
785.261
785.246
785.231
785.216
785.201
785.187
785.172
785.157
785.142
785.128
785.113
785.098
785.084
785.069
785.055
785.04
785.025
785.011
784.996
784.982
784.967
784.953
784.938
784.924
784.909
784.895
784.88
784.866
784.852
784.838
784.824
784.809
784.796
784.782
784.768
784.754
784.741
784.727
784.714
784.701
784.688
784.675
784.662
784.649
784.637
784.625
784.612
784.601
784.587
784.578
784.564
784.555
784.541
784.533
784.518
784.511
784.497
784.489
784.475
784.468
784.454
784.448
784.434
784.427
784.415
784.406
786.998
786.966
786.91
786.852
786.796
786.742
786.69
786.642
786.601
786.564
786.531
786.503
786.481
786.466
786.454
786.445
786.439
786.434
786.431
786.43
786.43
786.43
786.43
786.429
786.428
786.427
786.426
786.424
786.423
786.421
786.418
786.416
786.414
786.411
786.408
786.405
786.402
786.398
786.394
786.39
786.386
786.382
786.377
786.372
786.367
786.362
786.356
786.351
786.345
786.34
786.334
786.327
786.319
786.31
786.301
786.291
786.281
786.272
786.263
786.255
786.246
786.237
786.227
786.217
786.206
786.195
786.182
786.169
786.155
786.141
786.128
786.116
786.104
786.093
786.081
786.069
786.057
786.044
786.031
786.017
786.003
785.99
785.976
785.963
785.95
785.937
785.924
785.912
785.899
785.887
785.875
785.862
785.85
785.837
785.825
785.812
785.799
785.786
785.773
785.76
785.747
785.734
785.721
785.707
785.694
785.68
785.666
785.653
785.639
785.625
785.611
785.597
785.583
785.568
785.554
785.54
785.525
785.511
785.496
785.482
785.467
785.453
785.438
785.423
785.409
785.394
785.379
785.364
785.35
785.335
785.32
785.305
785.29
785.275
785.261
785.246
785.231
785.216
785.201
785.187
785.172
785.157
785.142
785.128
785.113
785.098
785.084
785.069
785.055
785.04
785.025
785.011
784.996
784.982
784.967
784.953
784.938
784.924
784.909
784.895
784.88
784.866
784.852
784.838
784.824
784.809
784.796
784.782
784.768
784.754
784.741
784.727
784.714
784.701
784.688
784.675
784.662
784.649
784.637
784.625
784.612
784.6
784.588
784.577
784.564
784.554
784.542
784.531
784.52
784.509
784.498
784.489
784.475
784.468
784.456
784.445
784.436
784.427
784.415
784.406
786.998
786.966
786.91
786.852
786.796
786.741
786.69
786.642
786.601
786.564
786.531
786.503
786.481
786.465
786.454
786.445
786.439
786.434
786.431
786.43
786.43
786.43
786.43
786.429
786.428
786.427
786.426
786.424
786.422
786.42
786.418
786.416
786.414
786.411
786.408
786.405
786.401
786.398
786.394
786.39
786.386
786.381
786.377
786.372
786.367
786.362
786.356
786.351
786.345
786.34
786.334
786.327
786.319
786.31
786.301
786.291
786.281
786.272
786.263
786.255
786.246
786.237
786.227
786.217
786.206
786.195
786.182
786.169
786.155
786.141
786.128
786.116
786.104
786.093
786.081
786.069
786.057
786.044
786.031
786.017
786.003
785.99
785.976
785.963
785.95
785.937
785.924
785.912
785.899
785.887
785.875
785.862
785.85
785.837
785.825
785.812
785.799
785.786
785.773
785.76
785.747
785.734
785.721
785.707
785.694
785.68
785.666
785.653
785.639
785.625
785.611
785.597
785.583
785.568
785.554
785.54
785.525
785.511
785.496
785.482
785.467
785.453
785.438
785.423
785.409
785.394
785.379
785.364
785.35
785.335
785.32
785.305
785.29
785.275
785.261
785.246
785.231
785.216
785.201
785.187
785.172
785.157
785.142
785.128
785.113
785.098
785.084
785.069
785.055
785.04
785.025
785.011
784.996
784.982
784.967
784.953
784.938
784.924
784.909
784.895
784.88
784.866
784.852
784.838
784.824
784.809
784.796
784.782
784.768
784.754
784.741
784.727
784.714
784.701
784.688
784.675
784.662
784.649
784.637
784.624
784.613
784.599
784.589
784.575
784.566
784.552
784.544
784.529
784.522
784.507
784.5
784.486
784.479
784.465
784.458
784.444
784.437
784.425
784.412
784.409
787.002
786.97
786.914
786.856
786.8
786.746
786.694
786.646
786.605
786.568
786.535
786.507
786.485
786.469
786.458
786.449
786.443
786.438
786.435
786.434
786.434
786.434
786.434
786.433
786.432
786.431
786.43
786.428
786.426
786.424
786.422
786.42
786.417
786.415
786.412
786.409
786.405
786.401
786.398
786.394
786.389
786.385
786.38
786.376
786.371
786.365
786.36
786.354
786.349
786.343
786.337
786.33
786.322
786.313
786.304
786.294
786.284
786.275
786.267
786.258
786.249
786.24
786.23
786.22
786.209
786.197
786.185
786.171
786.157
786.144
786.131
786.119
786.107
786.095
786.084
786.072
786.06
786.047
786.033
786.02
786.006
785.992
785.979
785.965
785.952
785.939
785.927
785.914
785.902
785.89
785.877
785.865
785.852
785.84
785.827
785.814
785.802
785.789
785.776
785.763
785.75
785.736
785.723
785.71
785.696
785.683
785.669
785.655
785.641
785.627
785.613
785.599
785.585
785.571
785.557
785.542
785.528
785.513
785.499
785.484
785.47
785.455
785.44
785.426
785.411
785.396
785.382
785.367
785.352
785.337
785.322
785.308
785.293
785.278
785.263
785.248
785.233
785.219
785.204
785.189
785.174
785.16
785.145
785.13
785.116
785.101
785.086
785.072
785.057
785.042
785.028
785.013
784.999
784.984
784.97
784.955
784.94
784.926
784.912
784.897
784.883
784.868
784.854
784.84
784.826
784.812
784.798
784.784
784.77
784.757
784.743
784.73
784.716
784.703
784.69
784.677
784.664
784.651
784.639
784.626
784.615
784.602
784.592
784.578
784.569
784.554
784.546
784.532
784.524
784.51
784.503
784.488
784.481
784.467
784.46
784.447
784.439
784.429
784.412
784.411
784.405
784.404
784.401
784.399
784.398
784.398
784.398
784.399
784.4
784.399
784.397
784.395
784.393
784.392
784.396
784.413
784.419
784.412
784.405
784.394
784.403
784.402
784.401
784.4
784.399
784.398
784.398
784.4
784.4
784.398
784.394
784.393
784.393
784.392
784.393
784.399
784.407
784.404
784.399
784.397
784.4
784.399
784.396
784.395
784.394
784.392
784.391
784.39
784.389
784.388
784.388
784.387
784.387
784.387
784.39
784.393
784.395
784.396
784.401
784.405
784.406
784.404
784.4
784.396
784.393
784.39
784.386
784.384
784.38
784.376
784.373
784.37
784.366
784.363
784.361
784.359
784.355
784.352
784.351
784.351
784.409
784.408
784.406
784.404
784.402
784.4
784.397
784.394
784.391
784.387
784.383
784.378
784.374
784.37
784.366
784.362
784.358
784.354
784.351
784.346
784.386
784.39
784.388
784.386
784.389
784.394
784.393
784.386
784.367
784.353
784.349
784.352
784.349
784.342
784.339
784.322
784.322
784.323
784.337
784.335
784.324
784.311
784.287
784.287
784.307
784.303
784.31
784.296
784.26
784.239
784.247
784.246
784.253
784.216
784.182
784.168
784.165
784.166
784.169
784.176
784.192
784.199
784.202
784.206
784.207
784.207
784.167
784.133
784.122
784.121
784.122
784.121
784.12
784.117
784.115
784.112
784.109
784.106
784.104
784.101
784.099
784.097
784.095
784.093
784.091
784.09
784.088
784.086
784.085
784.083
784.081
784.079
784.077
784.075
784.073
784.072
784.07
784.068
784.066
784.065
784.063
784.062
784.06
784.059
784.057
784.056
784.056
784.056
784.056
784.057
784.058
784.059
784.06
784.065
784.07
784.07
784.064
784.075
784.077
784.07
784.061
784.055
784.053
784.052
784.054
784.06
784.062
784.061
784.06
784.063
784.073
784.078
784.077
784.076
784.087
784.146
784.195
784.197
784.151
784.057
784.013
784.004
784.009
784.017
784.021
784.024
784.025
784.026
784.027
784.028
784.028
784.028
784.028
784.028
784.028
784.028
784.028
784.028
784.029
784.029
784.029
784.029
784.029
784.029
784.029
784.029
784.03
784.03
784.03
784.03
784.03
784.031
784.031
784.031
784.031
784.031
784.032
784.032
784.032
784.032
784.033
784.033
784.033
784.033
784.034
784.034
784.035
784.035
784.035
784.035
784.036
784.036
784.037
784.037
784.038
784.038
784.039
784.039
784.04
784.04
784.041
784.041
784.043
784.042
784.044
784.044
784.046
784.045
784.047
784.047
784.049
784.049
784.05
784.05
784.052
784.052
784.052
784.055
784.054
784.054
784.414
784.42
784.402
784.415
784.481
784.498
784.456
784.426
784.476
784.504
784.456
784.422
784.471
784.532
784.507
784.403
784.384
784.464
784.535
784.528
784.455
784.348
784.356
784.453
784.501
784.488
784.457
784.332
784.304
784.376
784.436
784.428
784.401
784.273
784.212
784.192
784.187
784.187
784.187
784.188
784.193
784.267
784.366
784.375
784.366
784.335
784.212
784.159
784.143
784.14
784.139
784.138
784.135
784.133
784.13
784.127
784.124
784.121
784.119
784.117
784.115
784.113
784.111
784.109
784.108
784.106
784.104
784.102
784.099
784.097
784.095
784.092
784.09
784.088
784.086
784.084
784.083
784.081
784.079
784.078
784.077
784.075
784.074
784.074
784.074
784.074
784.074
784.073
784.072
784.071
784.073
784.077
784.09
784.1
784.101
784.097
784.095
784.104
784.106
784.091
784.079
784.076
784.078
784.08
784.08
784.08
784.085
784.097
784.101
784.099
784.096
784.099
784.13
784.191
784.22
784.224
784.205
784.133
784.06
784.019
784.008
784.009
784.016
784.02
784.022
784.024
784.025
784.025
784.026
784.026
784.026
784.026
784.026
784.026
784.026
784.026
784.026
784.026
784.027
784.027
784.027
784.027
784.027
784.027
784.027
784.027
784.028
784.028
784.028
784.028
784.028
784.029
784.029
784.029
784.029
784.029
784.03
784.03
784.03
784.03
784.031
784.031
784.031
784.032
784.032
784.032
784.033
784.033
784.033
784.033
784.034
784.034
784.035
784.035
784.036
784.036
784.037
784.037
784.038
784.038
784.039
784.039
784.041
784.041
784.042
784.042
784.044
784.044
784.045
784.045
784.047
784.047
784.048
784.048
784.05
784.05
784.051
784.052
784.051
784.054
784.436
784.483
784.515
784.549
784.581
784.603
784.62
784.642
784.663
784.664
784.661
784.67
784.685
784.677
784.65
784.645
784.656
784.673
784.668
784.631
784.604
784.609
784.631
784.649
784.642
784.602
784.56
784.56
784.583
784.604
784.596
784.549
784.495
784.471
784.465
784.461
784.457
784.456
784.46
784.474
784.502
784.537
784.553
784.533
784.478
784.424
784.402
784.396
784.392
784.388
784.384
784.38
784.377
784.374
784.371
784.369
784.367
784.365
784.363
784.361
784.358
784.356
784.354
784.351
784.35
784.348
784.347
784.347
784.346
784.345
784.345
784.347
784.349
784.351
784.353
784.355
784.357
784.362
784.364
784.363
784.355
784.333
784.306
784.271
784.225
784.185
784.152
784.123
784.101
784.087
784.082
784.083
784.087
784.09
784.093
784.094
784.088
784.08
784.074
784.073
784.074
784.075
784.076
784.076
784.075
784.074
784.072
784.069
784.066
784.062
784.059
784.056
784.053
784.049
784.045
784.041
784.037
784.034
784.032
784.031
784.031
784.03
784.03
784.029
784.029
784.028
784.028
784.028
784.027
784.027
784.027
784.027
784.027
784.027
784.026
784.026
784.026
784.026
784.027
784.027
784.027
784.027
784.027
784.027
784.027
784.027
784.028
784.028
784.028
784.028
784.028
784.029
784.029
784.029
784.029
784.029
784.03
784.03
784.03
784.03
784.031
784.031
784.031
784.032
784.032
784.032
784.033
784.033
784.033
784.034
784.034
784.034
784.035
784.035
784.036
784.036
784.037
784.037
784.038
784.039
784.039
784.04
784.04
784.041
784.042
784.042
784.043
784.044
784.044
784.046
784.046
784.047
784.048
784.048
784.049
784.051
784.051
784.052
784.053
784.054
784.352
784.357
784.372
784.392
784.394
784.385
784.376
784.387
784.399
784.391
784.376
784.38
784.392
784.386
784.358
784.347
784.356
784.381
784.38
784.352
784.315
784.307
784.325
784.355
784.357
784.334
784.288
784.267
784.276
784.301
784.301
784.278
784.241
784.222
784.216
784.214
784.212
784.208
784.202
784.199
784.199
784.216
784.232
784.229
784.207
784.171
784.149
784.145
784.145
784.144
784.142
784.139
784.135
784.131
784.128
784.124
784.121
784.118
784.115
784.112
784.109
784.106
784.104
784.101
784.099
784.097
784.095
784.093
784.091
784.09
784.089
784.087
784.086
784.085
784.083
784.082
784.081
784.079
784.078
784.077
784.075
784.073
784.072
784.071
784.07
784.069
784.068
784.068
784.068
784.067
784.065
784.064
784.063
784.062
784.062
784.065
784.078
784.088
784.087
784.083
784.082
784.087
784.096
784.103
784.119
784.147
784.159
784.161
784.168
784.195
784.215
784.218
784.21
784.162
784.087
784.035
784.01
784.005
784.008
784.014
784.019
784.021
784.023
784.024
784.025
784.026
784.026
784.026
784.026
784.026
784.026
784.026
784.026
784.026
784.026
784.026
784.026
784.026
784.027
784.027
784.027
784.027
784.027
784.027
784.027
784.027
784.028
784.028
784.028
784.028
784.028
784.029
784.029
784.029
784.029
784.029
784.03
784.03
784.03
784.03
784.031
784.031
784.031
784.032
784.032
784.032
784.033
784.033
784.033
784.034
784.034
784.034
784.035
784.035
784.036
784.036
784.037
784.037
784.038
784.039
784.039
784.04
784.04
784.041
784.041
784.043
784.043
784.044
784.044
784.046
784.046
784.048
784.048
784.049
784.049
784.051
784.051
784.052
784.052
784.053
784.335
784.322
784.313
784.311
784.31
784.306
784.3
784.3
784.308
784.314
784.313
784.313
784.321
784.333
784.333
784.331
784.329
784.337
784.353
784.355
784.348
784.339
784.338
784.35
784.364
784.365
784.352
784.336
784.331
784.34
784.347
784.344
784.325
784.315
784.314
784.313
784.312
784.311
784.31
784.306
784.294
784.292
784.298
784.302
784.298
784.276
784.267
784.266
784.266
784.265
784.263
784.261
784.258
784.255
784.252
784.248
784.245
784.243
784.24
784.238
784.235
784.233
784.231
784.229
784.227
784.225
784.222
784.22
784.218
784.216
784.214
784.212
784.209
784.207
784.205
784.203
784.2
784.198
784.196
784.194
784.192
784.19
784.187
784.186
784.185
784.184
784.183
784.183
784.183
784.184
784.185
784.184
784.179
784.177
784.178
784.188
784.19
784.185
784.176
784.179
784.189
784.189
784.186
784.203
784.279
784.313
784.291
784.205
784.138
784.096
784.073
784.058
784.048
784.042
784.038
784.035
784.033
784.033
784.033
784.033
784.032
784.032
784.032
784.031
784.031
784.03
784.03
784.03
784.029
784.029
784.029
784.029
784.029
784.028
784.028
784.028
784.028
784.028
784.029
784.029
784.029
784.029
784.029
784.029
784.029
784.029
784.03
784.03
784.03
784.03
784.03
784.031
784.031
784.031
784.031
784.031
784.032
784.032
784.032
784.032
784.033
784.033
784.033
784.034
784.034
784.034
784.034
784.035
784.035
784.035
784.036
784.036
784.037
784.037
784.038
784.038
784.039
784.039
784.04
784.041
784.041
784.042
784.042
784.043
784.043
784.045
784.045
784.046
784.046
784.048
784.048
784.049
784.049
784.05
784.052
784.051
784.054
784.054
784.054
784.055
784.054
784.055
784.055
784.057
784.058
784.059
784.059
784.059
784.059
784.059
784.059
784.058
784.058
784.057
784.055
784.053
784.053
784.051
784.051
784.05
784.056
784.056
784.056
784.056
784.056
784.056
784.055
784.054
784.053
784.052
784.052
784.05
784.049
784.049
784.05
784.051
784.052
784.052
784.052
784.052
784.055
784.055
784.055
784.055
784.055
784.055
784.055
784.055
784.056
784.058
784.06
784.061
784.064
784.065
784.068
784.072
784.082
784.087
784.092
784.095
784.054
784.055
784.056
784.057
784.057
784.058
784.058
784.059
784.062
784.067
784.071
784.071
784.069
784.068
784.068
784.07
784.075
784.08
784.08
784.079
784.056
784.058
784.059
784.06
784.061
784.061
784.062
784.063
784.065
784.07
784.073
784.073
784.072
784.07
784.069
784.069
784.069
784.071
784.071
784.073
784.046
784.047
784.046
784.043
784.043
784.048
784.065
784.071
784.071
784.07
784.073
784.084
784.097
784.102
784.106
784.111
784.125
784.142
784.15
784.152
784.153
784.159
784.178
784.199
784.2
784.197
784.194
784.198
784.215
784.24
784.241
784.23
784.217
784.216
784.226
784.245
784.257
784.263
784.265
784.255
784.238
784.226
784.223
784.226
784.231
784.235
784.237
784.239
784.24
784.241
784.241
784.241
784.241
784.241
784.242
784.242
784.243
784.244
784.244
784.245
784.246
784.247
784.249
784.25
784.25
784.251
784.252
784.253
784.254
784.255
784.258
784.26
784.259
784.249
784.238
784.237
784.241
784.255
784.271
784.279
784.278
784.267
784.259
784.257
784.261
784.267
784.271
784.273
784.274
784.276
784.285
784.289
784.295
784.367
784.45
784.396
784.307
784.281
784.282
784.272
784.06
784.092
784.105
784.108
784.119
784.16
784.198
784.203
784.187
784.182
784.207
784.231
784.222
784.202
784.207
784.243
784.256
784.24
784.201
784.197
784.223
784.265
784.268
784.248
784.205
784.196
784.212
784.262
784.277
784.272
784.237
784.201
784.197
784.219
784.268
784.295
784.304
784.302
784.276
784.217
784.178
784.149
784.139
784.144
784.156
784.162
784.164
784.164
784.162
784.159
784.156
784.153
784.15
784.147
784.145
784.143
784.141
784.139
784.138
784.137
784.135
784.134
784.134
784.133
784.133
784.133
784.134
784.135
784.138
784.141
784.147
784.152
784.154
784.156
784.16
784.171
784.189
784.201
784.211
784.217
784.216
784.206
784.173
784.154
784.151
784.153
784.157
784.163
784.17
784.176
784.18
784.192
784.203
784.216
784.251
784.266
784.27
784.274
784.289
784.289
784.113
784.175
784.225
784.261
784.293
784.329
784.37
784.397
784.411
784.425
784.447
784.46
784.456
784.455
784.468
784.482
784.475
784.463
784.463
784.476
784.482
784.472
784.46
784.455
784.462
784.473
784.475
784.465
784.454
784.448
784.452
784.463
784.476
784.483
784.485
784.483
784.479
784.474
784.466
784.447
784.414
784.378
784.363
784.364
784.367
784.369
784.371
784.371
784.371
784.371
784.371
784.371
784.371
784.371
784.372
784.374
784.376
784.378
784.379
784.381
784.383
784.386
784.389
784.392
784.395
784.4
784.407
784.411
784.409
784.401
784.392
784.385
784.376
784.366
784.352
784.325
784.288
784.253
784.23
784.214
784.196
784.173
784.154
784.15
784.154
784.16
784.164
784.169
784.173
784.176
784.178
784.182
784.182
784.184
784.184
784.178
784.175
784.17
784.164
784.157
784.09
784.146
784.19
784.198
784.161
784.152
784.235
784.331
784.327
784.245
784.241
784.357
784.382
784.306
784.255
784.347
784.425
784.421
784.325
784.274
784.35
784.423
784.428
784.407
784.297
784.282
784.35
784.41
784.418
784.415
784.344
784.268
784.272
784.313
784.344
784.356
784.355
784.352
784.348
784.346
784.348
784.335
784.213
784.132
784.105
784.104
784.109
784.115
784.118
784.12
784.122
784.123
784.124
784.124
784.125
784.126
784.128
784.129
784.13
784.131
784.133
784.135
784.136
784.137
784.138
784.139
784.14
784.145
784.142
784.141
784.142
784.144
784.148
784.155
784.197
784.222
784.211
784.195
784.178
784.167
784.17
784.202
784.222
784.197
784.167
784.157
784.157
784.16
784.165
784.169
784.171
784.176
784.181
784.185
784.187
784.189
784.193
784.205
784.211
784.211
784.09
784.109
784.13
784.132
784.125
784.117
784.12
784.168
784.185
784.175
784.162
784.175
784.198
784.189
784.17
784.164
784.217
784.25
784.243
784.211
784.179
784.208
784.278
784.287
784.279
784.237
784.19
784.22
784.287
784.303
784.298
784.282
784.216
784.178
784.202
784.229
784.241
784.246
784.25
784.253
784.265
784.289
784.255
784.165
784.104
784.09
784.091
784.097
784.102
784.105
784.107
784.108
784.109
784.11
784.111
784.112
784.113
784.114
784.115
784.116
784.117
784.119
784.12
784.121
784.123
784.124
784.126
784.127
784.127
784.128
784.129
784.133
784.14
784.156
784.157
784.158
784.16
784.16
784.154
784.151
784.155
784.188
784.21
784.196
784.159
784.137
784.136
784.14
784.147
784.151
784.154
784.157
784.16
784.161
784.164
784.168
784.172
784.173
784.174
784.173
784.276
784.274
784.275
784.274
784.274
784.271
784.266
784.256
784.201
784.147
784.171
784.183
784.179
784.157
784.145
784.138
784.133
784.131
784.131
784.131
784.293
784.296
784.3
784.304
784.308
784.311
784.311
784.31
784.303
784.274
784.264
784.257
784.232
784.199
784.178
784.16
784.144
784.135
784.134
784.138
784.163
784.177
784.184
784.188
784.19
784.192
784.192
784.191
784.19
784.186
784.183
784.18
784.178
784.18
784.184
784.191
784.199
784.208
784.213
784.213
784.21
784.21
784.209
784.21
784.21
784.21
784.21
784.21
784.214
784.229
784.252
784.275
784.295
784.311
784.324
784.335
784.349
784.357
784.365
784.377
784.175
784.176
784.178
784.181
784.184
784.188
784.191
784.194
784.196
784.196
784.196
784.196
784.194
784.19
784.185
784.181
784.193
784.221
784.26
784.345
784.144
784.141
784.136
784.136
784.144
784.162
784.165
784.163
784.162
784.167
784.183
784.19
784.19
784.192
784.197
784.213
784.227
784.236
784.239
784.24
784.24
784.246
784.261
784.28
784.297
784.302
784.299
784.292
784.29
784.294
784.312
784.331
784.343
784.347
784.347
784.347
784.342
784.329
784.317
784.306
784.302
784.304
784.309
784.313
784.316
784.318
784.32
784.321
784.323
784.323
784.324
784.329
784.33
784.323
784.321
784.324
784.324
784.316
784.301
784.292
784.289
784.291
784.297
784.321
784.334
784.33
784.315
784.305
784.307
784.32
784.335
784.339
784.336
784.325
784.317
784.314
784.316
784.321
784.323
784.323
784.326
784.33
784.334
784.394
784.519
784.388
784.291
784.266
784.24
784.221
784.208
784.199
784.192
784.188
784.187
784.187
784.188
784.188
784.189
784.189
784.189
784.188
784.188
784.188
784.188
784.187
784.187
784.187
784.187
784.187
784.186
784.186
784.186
784.186
784.186
784.186
784.186
784.185
784.185
784.185
784.185
784.185
784.185
784.185
784.185
784.185
784.185
784.185
784.184
784.184
784.184
784.184
784.184
784.184
784.184
784.184
784.184
784.183
784.183
784.183
784.183
784.183
784.183
784.183
784.183
784.183
784.183
784.183
784.183
784.183
784.183
784.183
784.183
784.183
784.183
784.183
784.183
784.183
784.183
784.183
784.184
784.184
784.184
784.184
784.185
784.185
784.185
784.186
784.186
784.186
784.187
784.187
784.188
784.188
784.188
784.189
784.189
784.19
784.19
784.191
784.191
784.192
784.192
784.194
784.193
784.195
784.194
784.196
784.195
784.197
784.196
784.198
784.197
784.199
784.199
784.198
784.202
784.2
784.2
784.203
784.178
784.198
784.199
784.209
784.249
784.287
784.289
784.277
784.278
784.315
784.341
784.33
784.301
784.301
784.331
784.375
784.379
784.354
784.3
784.287
784.297
784.352
784.394
784.4
784.388
784.333
784.293
784.286
784.303
784.36
784.402
784.422
784.429
784.429
784.42
784.384
784.333
784.29
784.266
784.246
784.242
784.249
784.261
784.266
784.267
784.265
784.261
784.257
784.25
784.25
784.256
784.256
784.248
784.234
784.228
784.228
784.228
784.228
784.232
784.238
784.248
784.283
784.31
784.316
784.315
784.306
784.284
784.276
784.276
784.282
784.29
784.295
784.292
784.274
784.238
784.214
784.206
784.206
784.21
784.219
784.225
784.235
784.244
784.258
784.299
784.322
784.326
784.328
784.332
784.352
784.379
784.378
784.322
784.211
784.17
784.166
784.171
784.177
784.18
784.182
784.184
784.184
784.185
784.185
784.185
784.185
784.185
784.185
784.185
784.185
784.185
784.185
784.185
784.184
784.184
784.184
784.184
784.184
784.184
784.184
784.184
784.184
784.183
784.183
784.183
784.183
784.183
784.183
784.183
784.183
784.183
784.183
784.183
784.182
784.182
784.182
784.182
784.182
784.182
784.182
784.182
784.182
784.181
784.181
784.181
784.181
784.181
784.181
784.181
784.181
784.181
784.181
784.181
784.181
784.181
784.181
784.181
784.182
784.182
784.182
784.182
784.182
784.183
784.183
784.183
784.183
784.184
784.184
784.185
784.185
784.185
784.186
784.186
784.187
784.187
784.188
784.188
784.189
784.189
784.19
784.19
784.191
784.19
784.192
784.191
784.193
784.192
784.195
784.193
784.196
784.194
784.197
784.195
784.198
784.197
784.199
784.198
784.2
784.199
784.2
784.226
784.279
784.325
784.361
784.398
784.439
784.469
784.489
784.508
784.531
784.541
784.539
784.54
784.55
784.56
784.554
784.545
784.542
784.548
784.554
784.557
784.551
784.543
784.54
784.543
784.546
784.549
784.556
784.562
784.564
784.564
784.563
784.561
784.56
784.557
784.554
784.548
784.534
784.507
784.473
784.458
784.458
784.46
784.462
784.462
784.461
784.46
784.459
784.46
784.469
784.504
784.513
784.48
784.457
784.46
784.475
784.504
784.544
784.579
784.594
784.584
784.558
784.523
784.485
784.443
784.402
784.369
784.335
784.305
784.287
784.275
784.263
784.25
784.235
784.22
784.212
784.213
784.216
784.22
784.223
784.225
784.228
784.229
784.23
784.23
784.225
784.221
784.218
784.217
784.215
784.213
784.209
784.204
784.2
784.197
784.192
784.188
784.187
784.187
784.187
784.187
784.187
784.187
784.186
784.186
784.186
784.186
784.186
784.185
784.185
784.185
784.185
784.185
784.184
784.184
784.184
784.184
784.184
784.184
784.184
784.184
784.184
784.183
784.183
784.183
784.183
784.183
784.183
784.183
784.183
784.183
784.183
784.183
784.182
784.182
784.182
784.182
784.182
784.182
784.182
784.182
784.182
784.181
784.181
784.181
784.181
784.181
784.181
784.181
784.181
784.181
784.181
784.181
784.181
784.181
784.181
784.181
784.182
784.182
784.182
784.182
784.182
784.183
784.183
784.183
784.183
784.184
784.184
784.185
784.185
784.185
784.186
784.186
784.187
784.187
784.188
784.188
784.189
784.189
784.19
784.19
784.191
784.191
784.192
784.192
784.192
784.193
784.194
784.194
784.195
784.194
784.196
784.196
784.196
784.198
784.198
784.198
784.2
784.2
784.201
784.296
784.254
784.273
784.251
784.236
784.304
784.401
784.39
784.316
784.34
784.468
784.486
784.411
784.353
784.425
784.511
784.524
784.512
784.413
784.372
784.419
784.485
784.516
784.519
784.513
784.434
784.368
784.368
784.399
784.429
784.443
784.446
784.446
784.445
784.444
784.442
784.439
784.439
784.439
784.43
784.31
784.223
784.191
784.187
784.191
784.198
784.202
784.204
784.206
784.213
784.241
784.34
784.347
784.282
784.224
784.211
784.209
784.211
784.299
784.473
784.531
784.531
784.513
784.497
784.429
784.337
784.288
784.267
784.253
784.235
784.218
784.215
784.226
784.251
784.279
784.268
784.231
784.211
784.207
784.209
784.214
784.218
784.222
784.226
784.228
784.228
784.229
784.234
784.246
784.251
784.252
784.255
784.276
784.343
784.375
784.366
784.288
784.202
784.174
784.175
784.18
784.183
784.184
784.185
784.185
784.185
784.185
784.185
784.185
784.185
784.185
784.185
784.185
784.184
784.184
784.184
784.184
784.184
784.184
784.184
784.184
784.184
784.183
784.183
784.183
784.183
784.183
784.183
784.183
784.183
784.183
784.183
784.183
784.182
784.182
784.182
784.182
784.182
784.182
784.182
784.182
784.182
784.181
784.181
784.181
784.181
784.181
784.181
784.181
784.181
784.181
784.181
784.181
784.181
784.181
784.181
784.182
784.182
784.182
784.182
784.182
784.182
784.183
784.183
784.183
784.183
784.184
784.184
784.185
784.185
784.185
784.186
784.186
784.187
784.187
784.187
784.188
784.188
784.189
784.189
784.191
784.19
784.192
784.191
784.193
784.192
784.194
784.193
784.195
784.194
784.196
784.195
784.197
784.196
784.199
784.197
784.199
784.2
784.197
784.202
784.339
784.235
784.217
784.204
784.193
784.195
784.243
784.26
784.253
784.244
784.264
784.31
784.305
784.278
784.258
784.28
784.374
784.393
784.386
784.355
784.297
784.301
784.382
784.425
784.429
784.422
784.408
784.351
784.297
784.308
784.33
784.341
784.346
784.35
784.353
784.356
784.358
784.362
784.373
784.408
784.386
784.303
784.211
784.179
784.175
784.178
784.183
784.188
784.192
784.208
784.224
784.212
784.211
784.204
784.198
784.197
784.2
784.21
784.213
784.287
784.411
784.448
784.449
784.443
784.432
784.411
784.34
784.254
784.232
784.223
784.216
784.213
784.217
784.241
784.284
784.28
784.254
784.206
784.19
784.189
784.193
784.199
784.203
784.205
784.207
784.209
784.212
784.214
784.214
784.214
784.214
784.22
784.227
784.229