/*--------------------------------*- C++ -*----------------------------------*\
| =========                 |                                                 |
| \\      /  F ield         | OpenFOAM: The Open Source CFD Toolbox           |
|  \\    /   O peration     | Version:  3.0.x                                 |
|   \\  /    A nd           | Web:      www.OpenFOAM.org                      |
|    \\/     M anipulation  |                                                 |
\*---------------------------------------------------------------------------*/
FoamFile
{
    version     2.0;
    format      ascii;
    class       volVectorField;
    location    "0.21";
    object      U;
}
// * * * * * * * * * * * * * * * * * * * * * * * * * * * * * * * * * * * * * //

dimensions      [0 1 -1 0 0 0 0];

internalField   nonuniform List<vector> 
6900
(
(42.6982 0.000101354 0)
(42.6961 9.27891e-05 0)
(42.6935 9.02105e-05 0)
(42.6909 9.11685e-05 0)
(42.6886 9.19357e-05 0)
(42.6864 9.23991e-05 0)
(42.6843 9.27666e-05 0)
(42.6822 9.30731e-05 0)
(42.6802 9.3321e-05 0)
(42.6782 9.35214e-05 0)
(42.6763 9.36844e-05 0)
(42.6744 9.38175e-05 0)
(42.6725 9.39262e-05 0)
(42.6706 9.4015e-05 0)
(42.6688 9.4087e-05 0)
(42.6669 9.41443e-05 0)
(42.665 9.41857e-05 0)
(42.663 9.42075e-05 0)
(42.6609 9.41942e-05 0)
(42.6587 9.41473e-05 0)
(42.6563 9.40114e-05 0)
(42.6538 9.37697e-05 0)
(42.6511 9.33619e-05 0)
(42.6481 9.27228e-05 0)
(42.6449 9.17751e-05 0)
(42.6414 9.04342e-05 0)
(42.6377 8.86143e-05 0)
(42.6337 8.62377e-05 0)
(42.6293 8.3244e-05 0)
(42.6247 7.96001e-05 0)
(42.6198 7.53077e-05 0)
(42.6146 7.0408e-05 0)
(42.6092 6.49824e-05 0)
(42.6034 5.9148e-05 0)
(42.5974 5.30497e-05 0)
(42.5911 4.68487e-05 0)
(42.5846 4.07098e-05 0)
(42.5778 3.47883e-05 0)
(42.5708 2.9219e-05 0)
(42.5635 2.41085e-05 0)
(42.5559 1.95301e-05 0)
(42.5482 1.55232e-05 0)
(42.5401 1.20954e-05 0)
(42.5318 9.22758e-06 0)
(42.5232 6.87991e-06 0)
(42.5143 4.99832e-06 0)
(42.5052 3.52088e-06 0)
(42.4957 2.38349e-06 0)
(42.486 1.52464e-06 0)
(42.476 8.8945e-07 0)
(42.4656 4.306e-07 0)
(42.455 1.07379e-07 0)
(42.444 -1.21281e-07 0)
(42.4327 -2.76689e-07 0)
(42.421 -3.80084e-07 0)
(42.409 -4.47586e-07 0)
(42.3966 -4.91179e-07 0)
(42.3839 -5.17859e-07 0)
(42.3709 -5.33327e-07 0)
(42.3574 -5.42118e-07 0)
(42.3436 -5.46339e-07 0)
(42.3294 -5.48186e-07 0)
(42.3149 -5.48316e-07 0)
(42.3 -5.47699e-07 0)
(42.2848 -5.46683e-07 0)
(42.2693 -5.45398e-07 0)
(42.2535 -5.44882e-07 0)
(42.2374 -5.42834e-07 0)
(42.2211 -5.42e-07 0)
(42.2046 -5.41444e-07 0)
(42.1879 -5.41093e-07 0)
(42.171 -5.41039e-07 0)
(42.1541 -5.4155e-07 0)
(42.1371 -5.42153e-07 0)
(42.12 -5.43143e-07 0)
(42.103 -5.4471e-07 0)
(42.086 -5.46694e-07 0)
(42.069 -5.48917e-07 0)
(42.0522 -5.51531e-07 0)
(42.0354 -5.54334e-07 0)
(42.0188 -5.57152e-07 0)
(42.0024 -5.59887e-07 0)
(41.986 -5.62617e-07 0)
(41.9699 -5.6522e-07 0)
(41.9539 -5.67371e-07 0)
(41.938 -5.67805e-07 0)
(41.9223 -5.72961e-07 0)
(41.9067 -5.75725e-07 0)
(41.8913 -5.77349e-07 0)
(41.876 -5.79113e-07 0)
(41.8607 -5.80363e-07 0)
(41.8454 -5.82535e-07 0)
(41.8302 -5.83581e-07 0)
(41.815 -5.84508e-07 0)
(41.7997 -5.85246e-07 0)
(41.7844 -5.85584e-07 0)
(41.7689 -5.85576e-07 0)
(41.7534 -5.85285e-07 0)
(41.7377 -5.84736e-07 0)
(41.7219 -5.83959e-07 0)
(41.7059 -5.8307e-07 0)
(41.6898 -5.82054e-07 0)
(41.6735 -5.80874e-07 0)
(41.657 -5.79735e-07 0)
(41.6405 -5.7853e-07 0)
(41.6238 -5.77334e-07 0)
(41.607 -5.7624e-07 0)
(41.5901 -5.7519e-07 0)
(41.5732 -5.74218e-07 0)
(41.5563 -5.73374e-07 0)
(41.5395 -5.72718e-07 0)
(41.5228 -5.72269e-07 0)
(41.5061 -5.72046e-07 0)
(41.4897 -5.72073e-07 0)
(41.4734 -5.72302e-07 0)
(41.4574 -5.72753e-07 0)
(41.4416 -5.73384e-07 0)
(41.4261 -5.74183e-07 0)
(41.4109 -5.75161e-07 0)
(41.396 -5.76296e-07 0)
(41.3814 -5.77513e-07 0)
(41.3671 -5.78776e-07 0)
(41.3532 -5.8033e-07 0)
(41.3396 -5.8182e-07 0)
(41.3263 -5.82074e-07 0)
(41.3133 -5.83168e-07 0)
(41.3007 -5.84581e-07 0)
(41.2883 -5.85891e-07 0)
(41.2762 -5.86979e-07 0)
(41.2643 -5.87932e-07 0)
(41.2527 -5.88389e-07 0)
(41.2413 -5.88574e-07 0)
(41.23 -5.88706e-07 0)
(41.2189 -5.89109e-07 0)
(41.2079 -5.8972e-07 0)
(41.1971 -5.90094e-07 0)
(41.1863 -5.90024e-07 0)
(41.1755 -5.89467e-07 0)
(41.1648 -5.88567e-07 0)
(41.1542 -5.87595e-07 0)
(41.1436 -5.86608e-07 0)
(41.1331 -5.85714e-07 0)
(41.1227 -5.84879e-07 0)
(41.1124 -5.85442e-07 0)
(41.1022 -5.85089e-07 0)
(41.0923 -5.84166e-07 0)
(41.0825 -5.83582e-07 0)
(41.0731 -5.83602e-07 0)
(41.0639 -5.84064e-07 0)
(41.055 -5.84811e-07 0)
(41.0465 -5.86433e-07 0)
(41.0383 -5.86541e-07 0)
(41.0305 -5.86632e-07 0)
(41.0231 -5.87199e-07 0)
(41.016 -5.88749e-07 0)
(41.0092 -5.90726e-07 0)
(41.0027 -5.92291e-07 0)
(40.9964 -5.93451e-07 0)
(40.9904 -5.94316e-07 0)
(40.9846 -5.95249e-07 0)
(40.9789 -5.95893e-07 0)
(40.9733 -5.96736e-07 0)
(40.9679 -5.97087e-07 0)
(40.9624 -5.97715e-07 0)
(40.9571 -5.97819e-07 0)
(40.9517 -5.98389e-07 0)
(40.9463 -5.98476e-07 0)
(40.9408 -5.98756e-07 0)
(40.9351 -5.98652e-07 0)
(40.9293 -5.98265e-07 0)
(40.9232 -5.97805e-07 0)
(40.9168 -5.96855e-07 0)
(40.91 -5.96128e-07 0)
(40.9028 -5.95113e-07 0)
(40.8952 -5.93632e-07 0)
(40.887 -5.91679e-07 0)
(40.8783 -5.89539e-07 0)
(40.8692 -5.87305e-07 0)
(40.8596 -5.84575e-07 0)
(40.8495 -5.81826e-07 0)
(40.8391 -5.79597e-07 0)
(40.8283 -5.78225e-07 0)
(40.8174 -5.77121e-07 0)
(40.8064 -5.76042e-07 0)
(40.7953 -5.75278e-07 0)
(40.7845 -5.74926e-07 0)
(40.7739 -5.75928e-07 0)
(40.7636 -5.76567e-07 0)
(40.7537 -5.78576e-07 0)
(40.7443 -5.78964e-07 0)
(40.7353 -5.77415e-07 0)
(40.7268 -5.63086e-07 0)
(40.7187 -4.95876e-07 0)
(40.7108 1.00016e-07 0)
(40.7031 4.4679e-06 0)
(40.6948 3.50688e-05 0)
(40.682 0.000249121 0)
(40.6367 0.00176157 0)
(40.4583 0.0159307 0)
(38.0268 0.0821302 0)
(42.7 0.000128564 0)
(42.6996 9.92515e-05 0)
(42.6989 8.62292e-05 0)
(42.6981 8.56683e-05 0)
(42.6975 8.57133e-05 0)
(42.6972 8.53685e-05 0)
(42.6969 8.51313e-05 0)
(42.6966 8.50099e-05 0)
(42.6963 8.49358e-05 0)
(42.6961 8.48886e-05 0)
(42.696 8.48609e-05 0)
(42.6959 8.48468e-05 0)
(42.6958 8.48416e-05 0)
(42.6958 8.48424e-05 0)
(42.6958 8.48467e-05 0)
(42.6957 8.48523e-05 0)
(42.6956 8.48549e-05 0)
(42.6954 8.4849e-05 0)
(42.6951 8.48164e-05 0)
(42.6947 8.47679e-05 0)
(42.6941 8.46378e-05 0)
(42.6934 8.44206e-05 0)
(42.6925 8.40575e-05 0)
(42.6913 8.34907e-05 0)
(42.6899 8.26502e-05 0)
(42.6881 8.14593e-05 0)
(42.6861 7.984e-05 0)
(42.6838 7.77215e-05 0)
(42.6811 7.5048e-05 0)
(42.678 7.17886e-05 0)
(42.6746 6.79434e-05 0)
(42.6708 6.35483e-05 0)
(42.6666 5.86755e-05 0)
(42.6621 5.34298e-05 0)
(42.6572 4.79414e-05 0)
(42.6518 4.23554e-05 0)
(42.6461 3.68208e-05 0)
(42.6401 3.14779e-05 0)
(42.6337 2.64494e-05 0)
(42.6269 2.1832e-05 0)
(42.6198 1.76929e-05 0)
(42.6123 1.40683e-05 0)
(42.6045 1.09661e-05 0)
(42.5964 8.36963e-06 0)
(42.5879 6.24369e-06 0)
(42.5792 4.53997e-06 0)
(42.5701 3.20297e-06 0)
(42.5607 2.17514e-06 0)
(42.551 1.40082e-06 0)
(42.541 8.2906e-07 0)
(42.5307 4.14569e-07 0)
(42.52 1.19499e-07 0)
(42.5091 -8.68339e-08 0)
(42.4977 -2.26804e-07 0)
(42.4861 -3.19971e-07 0)
(42.474 -3.8035e-07 0)
(42.4617 -4.19104e-07 0)
(42.449 -4.41927e-07 0)
(42.4359 -4.53711e-07 0)
(42.4224 -4.59789e-07 0)
(42.4086 -4.61669e-07 0)
(42.3944 -4.61571e-07 0)
(42.3799 -4.60008e-07 0)
(42.365 -4.57961e-07 0)
(42.3498 -4.55625e-07 0)
(42.3342 -4.53056e-07 0)
(42.3184 -4.51929e-07 0)
(42.3023 -4.48989e-07 0)
(42.286 -4.47914e-07 0)
(42.2695 -4.47173e-07 0)
(42.2527 -4.46854e-07 0)
(42.2359 -4.47122e-07 0)
(42.2189 -4.48372e-07 0)
(42.2019 -4.49863e-07 0)
(42.1848 -4.52048e-07 0)
(42.1678 -4.55152e-07 0)
(42.1508 -4.58845e-07 0)
(42.1338 -4.62916e-07 0)
(42.1169 -4.67624e-07 0)
(42.1002 -4.72724e-07 0)
(42.0836 -4.77946e-07 0)
(42.0671 -4.83167e-07 0)
(42.0508 -4.88489e-07 0)
(42.0346 -4.93687e-07 0)
(42.0186 -4.98143e-07 0)
(42.0027 -4.99869e-07 0)
(41.987 -5.097e-07 0)
(41.9714 -5.15382e-07 0)
(41.956 -5.18926e-07 0)
(41.9406 -5.2262e-07 0)
(41.9253 -5.25414e-07 0)
(41.91 -5.29734e-07 0)
(41.8948 -5.32014e-07 0)
(41.8796 -5.34143e-07 0)
(41.8643 -5.35894e-07 0)
(41.8489 -5.36961e-07 0)
(41.8335 -5.37456e-07 0)
(41.8179 -5.37482e-07 0)
(41.8023 -5.37056e-07 0)
(41.7864 -5.3622e-07 0)
(41.7704 -5.35176e-07 0)
(41.7543 -5.33886e-07 0)
(41.738 -5.3236e-07 0)
(41.7215 -5.30907e-07 0)
(41.7049 -5.29369e-07 0)
(41.6882 -5.27879e-07 0)
(41.6714 -5.26582e-07 0)
(41.6545 -5.25383e-07 0)
(41.6376 -5.2435e-07 0)
(41.6207 -5.23634e-07 0)
(41.6039 -5.23216e-07 0)
(41.5871 -5.23155e-07 0)
(41.5705 -5.23479e-07 0)
(41.554 -5.24195e-07 0)
(41.5377 -5.25249e-07 0)
(41.5217 -5.26672e-07 0)
(41.5059 -5.28385e-07 0)
(41.4904 -5.30356e-07 0)
(41.4751 -5.32599e-07 0)
(41.4602 -5.35081e-07 0)
(41.4456 -5.377e-07 0)
(41.4313 -5.40426e-07 0)
(41.4174 -5.43632e-07 0)
(41.4038 -5.46606e-07 0)
(41.3905 -5.47688e-07 0)
(41.3775 -5.50321e-07 0)
(41.3648 -5.53349e-07 0)
(41.3524 -5.56065e-07 0)
(41.3403 -5.58278e-07 0)
(41.3285 -5.60155e-07 0)
(41.3168 -5.61138e-07 0)
(41.3054 -5.6171e-07 0)
(41.2941 -5.62166e-07 0)
(41.283 -5.62865e-07 0)
(41.272 -5.63668e-07 0)
(41.2611 -5.63956e-07 0)
(41.2503 -5.6361e-07 0)
(41.2395 -5.62655e-07 0)
(41.2288 -5.61323e-07 0)
(41.2182 -5.5993e-07 0)
(41.2076 -5.58517e-07 0)
(41.1971 -5.57229e-07 0)
(41.1866 -5.56112e-07 0)
(41.1763 -5.56942e-07 0)
(41.1662 -5.56231e-07 0)
(41.1562 -5.54835e-07 0)
(41.1464 -5.54282e-07 0)
(41.137 -5.5473e-07 0)
(41.1278 -5.55749e-07 0)
(41.1189 -5.57139e-07 0)
(41.1104 -5.59519e-07 0)
(41.1022 -5.59821e-07 0)
(41.0944 -5.60405e-07 0)
(41.0869 -5.61793e-07 0)
(41.0798 -5.64254e-07 0)
(41.073 -5.66999e-07 0)
(41.0665 -5.69046e-07 0)
(41.0602 -5.70569e-07 0)
(41.0542 -5.7173e-07 0)
(41.0483 -5.7302e-07 0)
(41.0426 -5.7389e-07 0)
(41.037 -5.75075e-07 0)
(41.0316 -5.75531e-07 0)
(41.0261 -5.76481e-07 0)
(41.0208 -5.76731e-07 0)
(41.0154 -5.77548e-07 0)
(41.01 -5.77452e-07 0)
(41.0044 -5.77822e-07 0)
(40.9988 -5.77458e-07 0)
(40.9929 -5.76871e-07 0)
(40.9868 -5.75886e-07 0)
(40.9804 -5.74287e-07 0)
(40.9736 -5.72018e-07 0)
(40.9664 -5.6901e-07 0)
(40.9587 -5.6608e-07 0)
(40.9506 -5.62663e-07 0)
(40.9419 -5.59794e-07 0)
(40.9327 -5.56492e-07 0)
(40.9231 -5.52953e-07 0)
(40.913 -5.49805e-07 0)
(40.9026 -5.47131e-07 0)
(40.8918 -5.45905e-07 0)
(40.8809 -5.4507e-07 0)
(40.8698 -5.44505e-07 0)
(40.8588 -5.44682e-07 0)
(40.8479 -5.45915e-07 0)
(40.8373 -5.48058e-07 0)
(40.827 -5.48584e-07 0)
(40.8171 -5.5265e-07 0)
(40.8077 -5.52243e-07 0)
(40.7987 -5.44991e-07 0)
(40.7902 -4.63811e-07 0)
(40.782 1.00275e-07 0)
(40.7741 3.90058e-06 0)
(40.7664 3.05005e-05 0)
(40.7581 0.000216095 0)
(40.7454 0.00150874 0)
(40.7012 0.0104753 0)
(40.5277 0.0751464 0)
(38.6459 0.354831 0)
(42.6999 1.12212e-12 0)
(42.6996 2.97808e-12 0)
(42.6988 1.61139e-12 0)
(42.698 5.90005e-13 0)
(42.6975 -1.03345e-12 0)
(42.6972 -2.63957e-12 0)
(42.6969 -6.22785e-12 0)
(42.6966 -7.77323e-12 0)
(42.6963 -6.15487e-12 0)
(42.6961 -3.89343e-12 0)
(42.696 -3.97789e-12 0)
(42.6959 -7.49391e-12 0)
(42.6958 -1.10528e-11 0)
(42.6958 -1.32696e-11 0)
(42.6957 -1.31712e-11 0)
(42.6957 -1.43019e-11 0)
(42.6955 -1.54936e-11 0)
(42.6954 -1.44317e-11 0)
(42.6951 -1.35632e-11 0)
(42.6947 -1.49149e-11 0)
(42.6941 -1.75423e-11 0)
(42.6934 -1.90532e-11 0)
(42.6924 -2.02236e-11 0)
(42.6913 -1.97508e-11 0)
(42.6898 -1.96194e-11 0)
(42.6881 -1.79252e-11 0)
(42.6861 -1.51833e-11 0)
(42.6837 -1.5565e-11 0)
(42.6811 -1.61266e-11 0)
(42.678 -1.51355e-11 0)
(42.6746 -1.48763e-11 0)
(42.6708 -1.39485e-11 0)
(42.6666 -1.35909e-11 0)
(42.6621 -1.42167e-11 0)
(42.6571 -1.54538e-11 0)
(42.6518 -1.5278e-11 0)
(42.6461 -1.56271e-11 0)
(42.6401 -1.58388e-11 0)
(42.6337 -1.44557e-11 0)
(42.6269 -1.56767e-11 0)
(42.6198 -1.60641e-11 0)
(42.6123 -1.64269e-11 0)
(42.6045 -1.65898e-11 0)
(42.5964 -1.5893e-11 0)
(42.5879 -1.41289e-11 0)
(42.5792 -1.17202e-11 0)
(42.5701 -8.90455e-12 0)
(42.5607 -9.13838e-12 0)
(42.551 -8.90717e-12 0)
(42.541 -6.85843e-12 0)
(42.5307 -3.37652e-12 0)
(42.52 -5.76158e-13 0)
(42.5091 1.74551e-12 0)
(42.4977 2.94721e-12 0)
(42.4861 2.09645e-12 0)
(42.4741 2.14448e-12 0)
(42.4617 1.95902e-12 0)
(42.449 1.80749e-12 0)
(42.4359 3.32946e-12 0)
(42.4224 4.79261e-12 0)
(42.4086 7.0098e-12 0)
(42.3944 7.87428e-12 0)
(42.3799 7.74778e-12 0)
(42.365 5.3073e-12 0)
(42.3498 4.027e-12 0)
(42.3342 4.18826e-12 0)
(42.3184 3.36795e-12 0)
(42.3023 5.28606e-12 0)
(42.286 4.89093e-12 0)
(42.2695 3.34743e-12 0)
(42.2527 1.57509e-12 0)
(42.2359 1.81914e-13 0)
(42.2189 1.85615e-12 0)
(42.2019 2.35087e-12 0)
(42.1848 3.35796e-12 0)
(42.1678 2.51085e-12 0)
(42.1508 2.27431e-12 0)
(42.1338 -7.90536e-13 0)
(42.1169 -2.74101e-12 0)
(42.1002 -5.7593e-12 0)
(42.0836 -1.08101e-11 0)
(42.0671 -1.30077e-11 0)
(42.0508 -1.57665e-11 0)
(42.0346 -1.52523e-11 0)
(42.0186 -1.44782e-11 0)
(42.0027 -1.28645e-11 0)
(41.987 -1.36078e-11 0)
(41.9714 -1.59413e-11 0)
(41.956 -1.66569e-11 0)
(41.9406 -1.7673e-11 0)
(41.9253 -1.73978e-11 0)
(41.9101 -1.56821e-11 0)
(41.8948 -1.4114e-11 0)
(41.8796 -1.52882e-11 0)
(41.8643 -1.68224e-11 0)
(41.8489 -1.80689e-11 0)
(41.8335 -1.90358e-11 0)
(41.818 -1.99605e-11 0)
(41.8023 -2.00653e-11 0)
(41.7864 -1.99546e-11 0)
(41.7704 -1.96897e-11 0)
(41.7543 -1.77984e-11 0)
(41.738 -1.58497e-11 0)
(41.7215 -1.59485e-11 0)
(41.7049 -1.47984e-11 0)
(41.6882 -1.57484e-11 0)
(41.6714 -1.63855e-11 0)
(41.6545 -1.52131e-11 0)
(41.6376 -1.55793e-11 0)
(41.6207 -1.42336e-11 0)
(41.6039 -9.33581e-12 0)
(41.5871 -1.97516e-12 0)
(41.5705 3.18892e-12 0)
(41.554 6.04622e-12 0)
(41.5377 7.85458e-12 0)
(41.5217 8.01114e-12 0)
(41.5059 8.31819e-12 0)
(41.4904 9.62101e-12 0)
(41.4751 9.62774e-12 0)
(41.4602 1.01729e-11 0)
(41.4456 1.14487e-11 0)
(41.4314 1.21781e-11 0)
(41.4174 1.34716e-11 0)
(41.4038 1.31751e-11 0)
(41.3905 1.22086e-11 0)
(41.3775 1.30711e-11 0)
(41.3648 1.22877e-11 0)
(41.3525 1.13927e-11 0)
(41.3403 1.02108e-11 0)
(41.3285 8.67645e-12 0)
(41.3168 7.24838e-12 0)
(41.3054 6.30267e-12 0)
(41.2941 6.07226e-12 0)
(41.283 4.76341e-12 0)
(41.272 4.7673e-12 0)
(41.2611 3.77558e-12 0)
(41.2503 2.6391e-12 0)
(41.2396 1.23107e-12 0)
(41.2289 6.99796e-13 0)
(41.2182 3.07371e-13 0)
(41.2076 2.47051e-13 0)
(41.1971 -2.22326e-13 0)
(41.1866 3.28458e-13 0)
(41.1763 -2.74013e-13 0)
(41.1662 -5.4914e-14 0)
(41.1562 2.76406e-13 0)
(41.1465 1.04048e-12 0)
(41.137 5.62826e-13 0)
(41.1278 1.95039e-13 0)
(41.1189 6.78954e-14 0)
(41.1104 1.78927e-12 0)
(41.1022 5.67398e-12 0)
(41.0944 9.22245e-12 0)
(41.0869 1.02507e-11 0)
(41.0798 1.20156e-11 0)
(41.073 5.86299e-12 0)
(41.0665 9.81672e-12 0)
(41.0602 -8.4583e-12 0)
(41.0542 1.3263e-11 0)
(41.0483 -3.25864e-11 0)
(41.0426 4.08337e-11 0)
(41.0371 -5.39353e-11 0)
(41.0316 1.1452e-10 0)
(41.0262 -1.6994e-11 0)
(41.0208 1.17378e-10 0)
(41.0154 -9.06503e-11 0)
(41.01 3.58551e-10 0)
(41.0044 -7.80785e-11 0)
(40.9988 3.20537e-10 0)
(40.9929 -3.30737e-10 0)
(40.9868 -1.41578e-11 0)
(40.9804 -1.40223e-09 0)
(40.9736 -1.28273e-09 0)
(40.9664 -1.70016e-09 0)
(40.9587 -2.29396e-09 0)
(40.9506 -2.26672e-09 0)
(40.9419 -4.21025e-09 0)
(40.9327 -3.94818e-09 0)
(40.9231 -5.21218e-09 0)
(40.913 -4.15739e-09 0)
(40.9026 -4.12919e-09 0)
(40.8918 -4.90503e-09 0)
(40.8809 -4.83029e-09 0)
(40.8698 -4.56194e-09 0)
(40.8588 -5.79065e-09 0)
(40.8479 -5.71482e-09 0)
(40.8373 -6.21491e-09 0)
(40.827 -2.66159e-09 0)
(40.8171 -4.95287e-09 0)
(40.8077 1.83437e-11 0)
(40.7987 1.64643e-08 0)
(40.7902 1.60455e-07 0)
(40.782 1.2418e-06 0)
(40.7741 8.76899e-06 0)
(40.7665 6.19334e-05 0)
(40.759 0.000437691 0)
(40.7514 0.003091 0)
(40.7422 0.0217251 0)
(40.719 0.153733 0)
(40.5701 0.700804 0)
(42.7 -0.000128564 0)
(42.6996 -9.92515e-05 0)
(42.6989 -8.62292e-05 0)
(42.6981 -8.56683e-05 0)
(42.6975 -8.57133e-05 0)
(42.6972 -8.53685e-05 0)
(42.6969 -8.51313e-05 0)
(42.6966 -8.50099e-05 0)
(42.6963 -8.49358e-05 0)
(42.6961 -8.48886e-05 0)
(42.696 -8.48609e-05 0)
(42.6959 -8.48468e-05 0)
(42.6958 -8.48416e-05 0)
(42.6958 -8.48424e-05 0)
(42.6958 -8.48467e-05 0)
(42.6957 -8.48523e-05 0)
(42.6956 -8.48549e-05 0)
(42.6954 -8.4849e-05 0)
(42.6951 -8.48164e-05 0)
(42.6947 -8.47679e-05 0)
(42.6941 -8.46378e-05 0)
(42.6934 -8.44206e-05 0)
(42.6925 -8.40575e-05 0)
(42.6913 -8.34907e-05 0)
(42.6899 -8.26502e-05 0)
(42.6881 -8.14593e-05 0)
(42.6861 -7.984e-05 0)
(42.6838 -7.77215e-05 0)
(42.6811 -7.5048e-05 0)
(42.678 -7.17886e-05 0)
(42.6746 -6.79434e-05 0)
(42.6708 -6.35483e-05 0)
(42.6666 -5.86755e-05 0)
(42.6621 -5.34298e-05 0)
(42.6572 -4.79414e-05 0)
(42.6518 -4.23554e-05 0)
(42.6461 -3.68208e-05 0)
(42.6401 -3.14779e-05 0)
(42.6337 -2.64494e-05 0)
(42.6269 -2.1832e-05 0)
(42.6198 -1.76929e-05 0)
(42.6123 -1.40683e-05 0)
(42.6045 -1.09661e-05 0)
(42.5964 -8.36962e-06 0)
(42.5879 -6.24369e-06 0)
(42.5792 -4.53997e-06 0)
(42.5701 -3.20296e-06 0)
(42.5607 -2.17514e-06 0)
(42.551 -1.40081e-06 0)
(42.541 -8.29055e-07 0)
(42.5307 -4.14569e-07 0)
(42.52 -1.19498e-07 0)
(42.5091 8.68327e-08 0)
(42.4977 2.26808e-07 0)
(42.4861 3.19972e-07 0)
(42.474 3.80351e-07 0)
(42.4617 4.19104e-07 0)
(42.449 4.41929e-07 0)
(42.4359 4.5371e-07 0)
(42.4224 4.59791e-07 0)
(42.4086 4.61668e-07 0)
(42.3944 4.61568e-07 0)
(42.3799 4.60009e-07 0)
(42.365 4.57961e-07 0)
(42.3498 4.55625e-07 0)
(42.3342 4.53057e-07 0)
(42.3184 4.51925e-07 0)
(42.3023 4.48987e-07 0)
(42.286 4.47913e-07 0)
(42.2695 4.47174e-07 0)
(42.2527 4.46855e-07 0)
(42.2359 4.4712e-07 0)
(42.2189 4.4837e-07 0)
(42.2019 4.49861e-07 0)
(42.1848 4.52047e-07 0)
(42.1678 4.55148e-07 0)
(42.1508 4.58848e-07 0)
(42.1338 4.62922e-07 0)
(42.1169 4.67628e-07 0)
(42.1002 4.72734e-07 0)
(42.0836 4.77953e-07 0)
(42.0671 4.83174e-07 0)
(42.0508 4.88497e-07 0)
(42.0346 4.9369e-07 0)
(42.0186 4.98145e-07 0)
(42.0027 4.99871e-07 0)
(41.987 5.09702e-07 0)
(41.9714 5.15386e-07 0)
(41.956 5.18929e-07 0)
(41.9406 5.22624e-07 0)
(41.9253 5.25417e-07 0)
(41.91 5.29735e-07 0)
(41.8948 5.32018e-07 0)
(41.8796 5.34147e-07 0)
(41.8643 5.359e-07 0)
(41.8489 5.36964e-07 0)
(41.8335 5.37461e-07 0)
(41.8179 5.37485e-07 0)
(41.8023 5.37058e-07 0)
(41.7864 5.36223e-07 0)
(41.7704 5.35177e-07 0)
(41.7543 5.33891e-07 0)
(41.738 5.32365e-07 0)
(41.7215 5.3091e-07 0)
(41.7049 5.29372e-07 0)
(41.6882 5.27883e-07 0)
(41.6714 5.26585e-07 0)
(41.6545 5.25383e-07 0)
(41.6376 5.24356e-07 0)
(41.6207 5.23635e-07 0)
(41.6039 5.23211e-07 0)
(41.5871 5.23148e-07 0)
(41.5705 5.23474e-07 0)
(41.554 5.24192e-07 0)
(41.5377 5.2525e-07 0)
(41.5217 5.26672e-07 0)
(41.5059 5.28382e-07 0)
(41.4904 5.30355e-07 0)
(41.4751 5.326e-07 0)
(41.4602 5.35078e-07 0)
(41.4456 5.37697e-07 0)
(41.4313 5.4042e-07 0)
(41.4174 5.43627e-07 0)
(41.4038 5.46603e-07 0)
(41.3905 5.47684e-07 0)
(41.3775 5.50318e-07 0)
(41.3648 5.53345e-07 0)
(41.3524 5.56062e-07 0)
(41.3403 5.58277e-07 0)
(41.3285 5.60152e-07 0)
(41.3168 5.61137e-07 0)
(41.3054 5.61708e-07 0)
(41.2941 5.62167e-07 0)
(41.283 5.62864e-07 0)
(41.272 5.63665e-07 0)
(41.2611 5.63954e-07 0)
(41.2503 5.63611e-07 0)
(41.2395 5.6266e-07 0)
(41.2288 5.61324e-07 0)
(41.2182 5.59932e-07 0)
(41.2076 5.58521e-07 0)
(41.1971 5.57232e-07 0)
(41.1866 5.56114e-07 0)
(41.1763 5.56945e-07 0)
(41.1662 5.56232e-07 0)
(41.1562 5.54834e-07 0)
(41.1464 5.54284e-07 0)
(41.137 5.54727e-07 0)
(41.1278 5.5575e-07 0)
(41.1189 5.57143e-07 0)
(41.1104 5.59521e-07 0)
(41.1022 5.59818e-07 0)
(41.0944 5.60405e-07 0)
(41.0869 5.61787e-07 0)
(41.0798 5.64256e-07 0)
(41.073 5.66987e-07 0)
(41.0665 5.6906e-07 0)
(41.0602 5.7054e-07 0)
(41.0542 5.71781e-07 0)
(41.0483 5.72954e-07 0)
(41.0426 5.74017e-07 0)
(41.037 5.74916e-07 0)
(41.0316 5.75711e-07 0)
(41.0261 5.76314e-07 0)
(41.0208 5.76965e-07 0)
(41.0154 5.77273e-07 0)
(41.01 5.77829e-07 0)
(41.0044 5.77543e-07 0)
(40.9988 5.77721e-07 0)
(40.9929 5.76556e-07 0)
(40.9868 5.76071e-07 0)
(40.9804 5.73524e-07 0)
(40.9736 5.71527e-07 0)
(40.9664 5.68319e-07 0)
(40.9587 5.64864e-07 0)
(40.9506 5.62263e-07 0)
(40.9419 5.57351e-07 0)
(40.9327 5.55623e-07 0)
(40.9231 5.50616e-07 0)
(40.913 5.48621e-07 0)
(40.9026 5.45363e-07 0)
(40.8918 5.43813e-07 0)
(40.8809 5.42796e-07 0)
(40.8698 5.43213e-07 0)
(40.8588 5.41772e-07 0)
(40.8479 5.4394e-07 0)
(40.8373 5.44275e-07 0)
(40.827 5.49347e-07 0)
(40.8171 5.49109e-07 0)
(40.8077 5.55554e-07 0)
(40.7987 5.68578e-07 0)
(40.7902 6.64728e-07 0)
(40.782 1.37739e-06 0)
(40.7742 6.50543e-06 0)
(40.7667 4.30333e-05 0)
(40.7603 0.000303706 0)
(40.7604 0.00216995 0)
(40.8068 0.0156623 0)
(40.9967 0.129689 0)
(43.9828 0.544437 0)
(42.6982 -0.000101354 0)
(42.6961 -9.27891e-05 0)
(42.6935 -9.02105e-05 0)
(42.6909 -9.11685e-05 0)
(42.6886 -9.19357e-05 0)
(42.6864 -9.23992e-05 0)
(42.6843 -9.27666e-05 0)
(42.6822 -9.30731e-05 0)
(42.6802 -9.3321e-05 0)
(42.6782 -9.35214e-05 0)
(42.6763 -9.36844e-05 0)
(42.6744 -9.38175e-05 0)
(42.6725 -9.39262e-05 0)
(42.6706 -9.4015e-05 0)
(42.6688 -9.4087e-05 0)
(42.6669 -9.41443e-05 0)
(42.665 -9.41857e-05 0)
(42.663 -9.42075e-05 0)
(42.6609 -9.41942e-05 0)
(42.6587 -9.41473e-05 0)
(42.6563 -9.40114e-05 0)
(42.6538 -9.37697e-05 0)
(42.6511 -9.33619e-05 0)
(42.6481 -9.27228e-05 0)
(42.6449 -9.17751e-05 0)
(42.6414 -9.04342e-05 0)
(42.6377 -8.86143e-05 0)
(42.6337 -8.62377e-05 0)
(42.6293 -8.3244e-05 0)
(42.6247 -7.96001e-05 0)
(42.6198 -7.53077e-05 0)
(42.6146 -7.0408e-05 0)
(42.6092 -6.49824e-05 0)
(42.6034 -5.9148e-05 0)
(42.5974 -5.30497e-05 0)
(42.5911 -4.68487e-05 0)
(42.5846 -4.07098e-05 0)
(42.5778 -3.47883e-05 0)
(42.5708 -2.9219e-05 0)
(42.5635 -2.41085e-05 0)
(42.5559 -1.95301e-05 0)
(42.5482 -1.55232e-05 0)
(42.5401 -1.20954e-05 0)
(42.5318 -9.22758e-06 0)
(42.5232 -6.8799e-06 0)
(42.5143 -4.99832e-06 0)
(42.5052 -3.52088e-06 0)
(42.4957 -2.38349e-06 0)
(42.486 -1.52465e-06 0)
(42.476 -8.89451e-07 0)
(42.4656 -4.30601e-07 0)
(42.455 -1.07379e-07 0)
(42.444 1.2128e-07 0)
(42.4327 2.7669e-07 0)
(42.421 3.80081e-07 0)
(42.409 4.47584e-07 0)
(42.3966 4.91179e-07 0)
(42.3839 5.17857e-07 0)
(42.3709 5.33324e-07 0)
(42.3574 5.42116e-07 0)
(42.3436 5.46343e-07 0)
(42.3294 5.48187e-07 0)
(42.3149 5.48319e-07 0)
(42.3 5.477e-07 0)
(42.2848 5.46681e-07 0)
(42.2693 5.45398e-07 0)
(42.2535 5.4488e-07 0)
(42.2374 5.42835e-07 0)
(42.2211 5.42002e-07 0)
(42.2046 5.41448e-07 0)
(42.1879 5.41092e-07 0)
(42.171 5.41041e-07 0)
(42.1541 5.41551e-07 0)
(42.1371 5.42154e-07 0)
(42.12 5.43142e-07 0)
(42.103 5.44709e-07 0)
(42.086 5.46691e-07 0)
(42.069 5.48912e-07 0)
(42.0522 5.5151e-07 0)
(42.0354 5.54324e-07 0)
(42.0188 5.57142e-07 0)
(42.0024 5.59882e-07 0)
(41.986 5.6261e-07 0)
(41.9699 5.65215e-07 0)
(41.9539 5.67369e-07 0)
(41.938 5.67805e-07 0)
(41.9223 5.7296e-07 0)
(41.9067 5.75723e-07 0)
(41.8913 5.77353e-07 0)
(41.876 5.7911e-07 0)
(41.8607 5.80362e-07 0)
(41.8454 5.82532e-07 0)
(41.8302 5.83579e-07 0)
(41.815 5.84504e-07 0)
(41.7997 5.85243e-07 0)
(41.7844 5.85579e-07 0)
(41.7689 5.85577e-07 0)
(41.7534 5.85286e-07 0)
(41.7377 5.84736e-07 0)
(41.7219 5.83956e-07 0)
(41.7059 5.83069e-07 0)
(41.6898 5.82052e-07 0)
(41.6735 5.80873e-07 0)
(41.657 5.79736e-07 0)
(41.6405 5.78531e-07 0)
(41.6238 5.77333e-07 0)
(41.607 5.76237e-07 0)
(41.5901 5.7519e-07 0)
(41.5732 5.74213e-07 0)
(41.5563 5.73391e-07 0)
(41.5395 5.72726e-07 0)
(41.5228 5.72272e-07 0)
(41.5061 5.72049e-07 0)
(41.4897 5.72073e-07 0)
(41.4734 5.723e-07 0)
(41.4574 5.72751e-07 0)
(41.4416 5.73383e-07 0)
(41.4261 5.74186e-07 0)
(41.4109 5.75162e-07 0)
(41.396 5.76294e-07 0)
(41.3814 5.77516e-07 0)
(41.3671 5.78778e-07 0)
(41.3532 5.80335e-07 0)
(41.3396 5.81821e-07 0)
(41.3263 5.8208e-07 0)
(41.3133 5.83171e-07 0)
(41.3007 5.84582e-07 0)
(41.2883 5.85895e-07 0)
(41.2762 5.86977e-07 0)
(41.2643 5.87935e-07 0)
(41.2527 5.88389e-07 0)
(41.2413 5.88569e-07 0)
(41.23 5.88703e-07 0)
(41.2189 5.89107e-07 0)
(41.2079 5.89725e-07 0)
(41.1971 5.90093e-07 0)
(41.1863 5.90028e-07 0)
(41.1755 5.89463e-07 0)
(41.1648 5.88567e-07 0)
(41.1542 5.8759e-07 0)
(41.1436 5.86604e-07 0)
(41.1331 5.85711e-07 0)
(41.1227 5.84875e-07 0)
(41.1124 5.85437e-07 0)
(41.1022 5.85087e-07 0)
(41.0923 5.84168e-07 0)
(41.0825 5.83573e-07 0)
(41.0731 5.83603e-07 0)
(41.0639 5.84061e-07 0)
(41.055 5.84807e-07 0)
(41.0465 5.86431e-07 0)
(41.0383 5.86541e-07 0)
(41.0305 5.86635e-07 0)
(41.0231 5.87202e-07 0)
(41.016 5.88754e-07 0)
(41.0092 5.90725e-07 0)
(41.0027 5.92306e-07 0)
(40.9964 5.93429e-07 0)
(40.9904 5.9434e-07 0)
(40.9846 5.95193e-07 0)
(40.9789 5.95964e-07 0)
(40.9733 5.96624e-07 0)
(40.9679 5.97154e-07 0)
(40.9624 5.97567e-07 0)
(40.9571 5.97928e-07 0)
(40.9517 5.982e-07 0)
(40.9463 5.98497e-07 0)
(40.9408 5.98556e-07 0)
(40.9351 5.98601e-07 0)
(40.9293 5.98293e-07 0)
(40.9232 5.98017e-07 0)
(40.9168 5.97511e-07 0)
(40.91 5.96922e-07 0)
(40.9028 5.96132e-07 0)
(40.8952 5.94721e-07 0)
(40.887 5.93559e-07 0)
(40.8783 5.91323e-07 0)
(40.8692 5.90401e-07 0)
(40.8596 5.87459e-07 0)
(40.8495 5.84807e-07 0)
(40.8391 5.81965e-07 0)
(40.8283 5.81039e-07 0)
(40.8174 5.79681e-07 0)
(40.8064 5.79319e-07 0)
(40.7953 5.7816e-07 0)
(40.7845 5.78665e-07 0)
(40.7739 5.78346e-07 0)
(40.7636 5.79985e-07 0)
(40.7537 5.79971e-07 0)
(40.7443 5.82249e-07 0)
(40.7353 5.84532e-07 0)
(40.7268 6.03593e-07 0)
(40.7187 7.32072e-07 0)
(40.7108 1.53943e-06 0)
(40.7034 7.14973e-06 0)
(40.697 4.71687e-05 0)
(40.6973 0.000339819 0)
(40.7469 0.00268019 0)
(40.9532 0.0379099 0)
(45.9842 0.15432 0)
(36.6646 1.24857 -3.17501e-15)
(35.6197 3.58261 6.36836e-15)
(35.2018 6.23447 -1.19395e-14)
(34.7839 8.91344 2.46724e-14)
(34.1297 11.5626 -2.54562e-14)
(33.2871 14.1834 -1.58964e-15)
(32.4478 16.8502 5.11045e-20)
(31.6656 19.6648 -2.21442e-14)
(30.6074 22.4346 -1.02666e-13)
(28.9488 24.7958 1.01083e-13)
(26.708 26.6079 -2.52868e-14)
(24.0976 27.9265 -5.22672e-14)
(21.3772 29.0202 2.70075e-14)
(19.1546 30.8648 0)
(17.6816 34.4076 2.50509e-14)
(16.3601 39.4597 2.46806e-14)
(14.3967 44.7046 -2.43874e-14)
(11.4884 48.3459 2.4276e-14)
(8.00553 49.5146 1.89621e-16)
(4.47422 49.5982 -1.89304e-16)
(37.8019 1.96637 0)
(37.1775 4.79905 0)
(36.7605 7.91686 -1.61712e-15)
(36.2324 11.0139 -3.23135e-15)
(35.4427 14.0513 8.06942e-15)
(34.4406 17.0056 1.61147e-14)
(33.4621 19.8896 0)
(32.5021 22.9636 9.59819e-15)
(31.0521 26.2871 1.59794e-14)
(28.8123 29.3192 -3.83554e-14)
(25.9305 31.6801 2.55475e-14)
(22.6626 33.3432 1.27878e-14)
(19.5479 34.2259 -1.28274e-14)
(17.8127 34.8824 1.28094e-14)
(17.0902 36.9551 0)
(15.9877 40.9941 -1.55724e-15)
(13.361 46.2695 1.53875e-15)
(8.83841 51.079 -5.36243e-15)
(3.54072 53.5052 -7.66382e-16)
(-0.702963 53.6012 0)
(40.5228 1.54332 -4.12805e-17)
(40.5239 2.54647 -2.09786e-14)
(40.6247 3.56842 2.13066e-14)
(40.8076 4.59145 -2.04788e-14)
(41.0241 5.68546 -2.24625e-14)
(41.2329 6.92261 8.36077e-14)
(41.3849 8.33444 -4.23234e-14)
(41.4715 9.8791 4.10292e-14)
(41.5486 11.5209 -8.34642e-14)
(41.601 13.3572 1.33236e-15)
(41.5037 15.4955 4.11104e-14)
(41.1134 17.9478 0)
(40.2932 20.6759 -4.11044e-14)
(38.8167 23.5558 4.11296e-14)
(36.7691 26.2513 -3.31861e-16)
(34.715 28.463 0)
(33.2848 30.2214 3.33411e-16)
(32.6283 31.9126 0)
(32.2134 33.9481 0)
(31.491 36.3801 0)
(44.4898 2.51902 6.33179e-16)
(44.2232 5.79971 -6.35237e-15)
(43.2588 9.70113 -1.27298e-15)
(42.1262 13.6973 2.54238e-15)
(41.0943 17.6394 -2.53162e-15)
(40.0885 21.5185 -4.46995e-19)
(38.9521 25.3296 -1.00124e-14)
(37.5454 29.0322 0)
(35.8291 32.6107 0)
(33.8055 36.0567 -4.92837e-15)
(31.4517 39.3186 4.90446e-15)
(28.7937 42.3914 0)
(25.8288 45.2262 -4.85965e-15)
(22.585 47.7911 4.84323e-15)
(19.0934 50.067 -4.82636e-15)
(15.3764 52.0354 9.62061e-15)
(11.4506 53.6643 -4.79957e-15)
(7.35265 54.909 0)
(3.17816 55.7595 -2.38896e-15)
(-0.643515 56.1722 0)
(47.3807 1.74727 -9.66551e-16)
(48.3089 4.47914 7.40928e-15)
(48.0321 7.75854 5.15423e-15)
(47.2615 11.1957 1.02983e-14)
(46.4763 14.7577 0)
(45.6888 18.4398 0)
(44.765 22.2025 1.01969e-14)
(43.5893 25.9615 2.53799e-15)
(42.0954 29.7001 -5.05327e-15)
(40.2895 33.3476 2.51652e-15)
(38.1304 36.8735 2.00491e-14)
(35.6412 40.2288 -1.24848e-14)
(32.8194 43.3687 1.24468e-14)
(29.6812 46.259 -2.48142e-15)
(26.2568 48.8639 -9.90136e-15)
(22.5854 51.1304 -1.7298e-14)
(18.7123 52.9806 -8.64005e-15)
(14.6838 54.3131 -1.23441e-15)
(10.5674 54.9853 7.10345e-15)
(6.61576 54.6762 3.09764e-16)
(1.59605 51.2225 0)
(0.996986 53.3957 0)
(0.910756 56.0317 0)
(1.01807 57.007 0)
(1.04107 56.6386 0)
(1.04438 56.2841 0)
(1.02122 56.3786 0)
(1.01974 56.6257 0)
(1.03145 56.7148 0)
(1.03496 56.6787 0)
(1.03502 56.6455 0)
(1.03248 56.6525 0)
(1.0326 56.671 0)
(1.03328 56.6691 0)
(1.03358 56.6511 0)
(1.03321 56.63 0)
(1.03243 56.6088 0)
(1.03142 56.5876 0)
(1.03034 56.5656 0)
(1.02922 56.5427 0)
(1.02788 56.5218 0)
(1.02552 56.5144 0)
(1.02105 56.5435 0)
(1.01973 56.6015 0)
(1.02198 56.6426 0)
(1.02311 56.6487 0)
(1.02205 56.6323 0)
(1.01874 56.6015 0)
(1.01256 56.5592 0)
(1.00155 56.5179 0)
(0.981072 56.5341 0)
(0.953529 56.6723 0)
(0.933391 56.8675 0)
(0.919739 56.975 0)
(0.898909 56.9499 0)
(0.868468 56.8401 0)
(0.829997 56.6754 0)
(0.785217 56.457 0)
(0.735527 56.1828 0)
(0.682274 55.8486 0)
(0.626714 55.4477 0)
(0.569978 54.9707 0)
(0.512993 54.4058 0)
(0.456421 53.7398 0)
(0.401323 52.9594 0)
(0.347785 52.0581 0)
(0.297063 51.0402 0)
(0.250023 49.9221 0)
(0.207264 48.7365 0)
(0.169227 47.5299 0)
(0.136666 46.3531 0)
(0.109048 45.2543 0)
(0.0861762 44.273 0)
(0.0675435 43.4323 0)
(0.0525728 42.7392 0)
(0.0405534 42.1866 0)
(0.0309934 41.7589 0)
(0.0234294 41.436 0)
(0.0174934 41.1974 0)
(0.0128863 41.0242 0)
(0.00935868 40.9005 0)
(0.00669811 40.8133 0)
(0.00472351 40.7527 0)
(0.0032823 40.7111 0)
(0.00224725 40.6828 0)
(0.00151666 40.664 0)
(0.00100903 40.6516 0)
(0.000661949 40.6436 0)
(0.000428317 40.6387 0)
(0.000273438 40.6358 0)
(0.000172285 40.6343 0)
(0.000107176 40.6337 0)
(6.58599e-05 40.6337 0)
(4.00151e-05 40.634 0)
(2.40568e-05 40.6346 0)
(1.43397e-05 40.6354 0)
(8.49693e-06 40.6362 0)
(5.02931e-06 40.6371 0)
(2.99744e-06 40.6379 0)
(1.82254e-06 40.6387 0)
(1.14652e-06 40.6394 0)
(7.63288e-07 40.64 0)
(5.47696e-07 40.6405 0)
(4.33235e-07 40.6409 0)
(3.69163e-07 40.6412 0)
(3.34386e-07 40.6412 0)
(3.15721e-07 40.6412 0)
(3.05509e-07 40.6409 0)
(3.0051e-07 40.6406 0)
(2.98178e-07 40.64 0)
(2.97343e-07 40.6393 0)
(2.97496e-07 40.6385 0)
(2.98263e-07 40.6376 0)
(2.99472e-07 40.6365 0)
(3.01027e-07 40.6353 0)
(3.02827e-07 40.6341 0)