/*--------------------------------*- C++ -*----------------------------------*\
| =========                 |                                                 |
| \\      /  F ield         | OpenFOAM: The Open Source CFD Toolbox           |
|  \\    /   O peration     | Version:  3.0.x                                 |
|   \\  /    A nd           | Web:      www.OpenFOAM.org                      |
|    \\/     M anipulation  |                                                 |
\*---------------------------------------------------------------------------*/
FoamFile
{
    version     2.0;
    format      ascii;
    class       volScalarField;
    location    "0.47";
    object      T;
}
// * * * * * * * * * * * * * * * * * * * * * * * * * * * * * * * * * * * * * //

dimensions      [0 0 0 1 0 0 0];

internalField   nonuniform List<scalar> 
6900
(
774.498
774.498
774.498
774.498
774.498
774.498
774.498
774.498
774.498
774.498
774.499
774.499
774.499
774.499
774.5
774.5
774.5
774.501
774.501
774.501
774.501
774.501
774.502
774.502
774.502
774.503
774.503
774.503
774.504
774.504
774.505
774.505
774.506
774.507
774.507
774.508
774.508
774.507
774.505
774.504
774.503
774.503
774.504
774.505
774.506
774.507
774.508
774.508
774.508
774.508
774.507
774.506
774.504
774.503
774.502
774.501
774.501
774.502
774.504
774.506
774.507
774.509
774.51
774.511
774.511
774.512
774.513
774.515
774.516
774.519
774.522
774.525
774.529
774.533
774.537
774.542
774.547
774.552
774.557
774.563
774.569
774.574
774.58
774.586
774.593
774.599
774.605
774.612
774.619
774.625
774.632
774.639
774.646
774.654
774.661
774.669
774.676
774.684
774.692
774.7
774.709
774.717
774.726
774.735
774.745
774.754
774.764
774.774
774.784
774.794
774.805
774.816
774.827
774.839
774.85
774.862
774.874
774.886
774.898
774.91
774.923
774.935
774.948
774.961
774.974
774.987
775
775.014
775.027
775.041
775.055
775.069
775.083
775.097
775.112
775.127
775.142
775.157
775.172
775.188
775.204
775.221
775.237
775.254
775.271
775.289
775.306
775.324
775.343
775.361
775.38
775.399
775.418
775.437
775.457
775.477
775.497
775.517
775.537
775.557
775.578
775.598
775.619
775.64
775.661
775.682
775.703
775.724
775.746
775.768
775.789
775.812
775.834
775.856
775.879
775.902
775.925
775.949
775.972
775.996
776.021
776.045
776.07
776.095
776.12
776.146
776.172
776.199
776.225
776.253
776.278
776.309
776.332
776.365
776.387
776.422
776.442
776.481
776.501
776.564
774.494
774.494
774.494
774.494
774.494
774.494
774.495
774.495
774.495
774.495
774.495
774.495
774.496
774.496
774.496
774.497
774.497
774.497
774.498
774.498
774.498
774.498
774.499
774.499
774.499
774.499
774.5
774.5
774.501
774.501
774.502
774.502
774.503
774.504
774.505
774.505
774.505
774.504
774.502
774.501
774.5
774.5
774.501
774.502
774.503
774.504
774.505
774.506
774.506
774.506
774.505
774.504
774.502
774.5
774.499
774.498
774.499
774.5
774.501
774.503
774.505
774.506
774.508
774.508
774.509
774.51
774.511
774.512
774.514
774.516
774.519
774.523
774.527
774.531
774.535
774.54
774.545
774.55
774.555
774.561
774.566
774.572
774.578
774.584
774.591
774.597
774.603
774.61
774.616
774.623
774.63
774.637
774.644
774.651
774.659
774.666
774.674
774.682
774.69
774.698
774.707
774.715
774.724
774.733
774.742
774.752
774.762
774.772
774.782
774.792
774.803
774.814
774.825
774.836
774.848
774.86
774.871
774.884
774.896
774.908
774.921
774.933
774.946
774.959
774.972
774.985
774.998
775.012
775.025
775.039
775.053
775.067
775.081
775.095
775.11
775.125
775.14
775.155
775.17
775.186
775.202
775.218
775.235
775.252
775.269
775.286
775.304
775.322
775.34
775.359
775.378
775.397
775.416
775.435
775.455
775.475
775.495
775.515
775.535
775.555
775.575
775.596
775.617
775.637
775.658
775.679
775.701
775.722
775.744
775.765
775.787
775.809
775.832
775.854
775.877
775.9
775.923
775.947
775.97
775.994
776.018
776.043
776.068
776.093
776.118
776.144
776.17
776.197
776.222
776.251
776.276
776.306
776.33
776.363
776.385
776.42
776.44
776.478
776.499
776.562
774.494
774.494
774.494
774.494
774.494
774.495
774.495
774.495
774.495
774.495
774.495
774.496
774.496
774.496
774.496
774.497
774.497
774.497
774.498
774.498
774.498
774.498
774.499
774.499
774.499
774.5
774.5
774.5
774.501
774.501
774.502
774.502
774.503
774.504
774.505
774.505
774.505
774.504
774.502
774.501
774.5
774.5
774.501
774.502
774.503
774.504
774.505
774.506
774.506
774.506
774.505
774.504
774.502
774.501
774.499
774.498
774.499
774.5
774.501
774.503
774.505
774.506
774.508
774.509
774.509
774.51
774.511
774.512
774.514
774.516
774.519
774.523
774.527
774.531
774.535
774.54
774.545
774.55
774.555
774.561
774.566
774.572
774.578
774.584
774.591
774.597
774.603
774.61
774.616
774.623
774.63
774.637
774.644
774.651
774.659
774.666
774.674
774.682
774.69
774.698
774.707
774.715
774.724
774.733
774.742
774.752
774.762
774.772
774.782
774.792
774.803
774.814
774.825
774.836
774.848
774.86
774.871
774.884
774.896
774.908
774.921
774.933
774.946
774.959
774.972
774.985
774.998
775.012
775.025
775.039
775.053
775.067
775.081
775.095
775.11
775.125
775.14
775.155
775.17
775.186
775.202
775.218
775.235
775.252
775.269
775.286
775.304
775.322
775.34
775.359
775.378
775.397
775.416
775.435
775.455
775.475
775.495
775.515
775.535
775.555
775.575
775.596
775.617
775.637
775.658
775.679
775.701
775.722
775.744
775.765
775.787
775.809
775.832
775.854
775.877
775.9
775.923
775.947
775.97
775.994
776.018
776.043
776.068
776.093
776.118
776.144
776.17
776.197
776.223
776.25
776.277
776.305
776.331
776.361
776.388
776.416
776.445
776.474
776.498
776.534
774.494
774.494
774.494
774.494
774.494
774.494
774.495
774.495
774.495
774.495
774.495
774.495
774.496
774.496
774.496
774.497
774.497
774.497
774.498
774.498
774.498
774.498
774.499
774.499
774.499
774.499
774.5
774.5
774.501
774.501
774.502
774.502
774.503
774.504
774.505
774.505
774.505
774.504
774.502
774.501
774.5
774.5
774.501
774.502
774.503
774.504
774.505
774.506
774.506
774.506
774.505
774.504
774.502
774.5
774.499
774.498
774.499
774.5
774.501
774.503
774.505
774.506
774.508
774.508
774.509
774.51
774.511
774.512
774.514
774.516
774.519
774.523
774.527
774.531
774.535
774.54
774.545
774.55
774.555
774.561
774.566
774.572
774.578
774.584
774.591
774.597
774.603
774.61
774.616
774.623
774.63
774.637
774.644
774.651
774.659
774.666
774.674
774.682
774.69
774.698
774.707
774.715
774.724
774.733
774.742
774.752
774.762
774.772
774.782
774.792
774.803
774.814
774.825
774.836
774.848
774.86
774.871
774.884
774.896
774.908
774.921
774.933
774.946
774.959
774.972
774.985
774.998
775.012
775.025
775.039
775.053
775.067
775.081
775.095
775.11
775.125
775.14
775.155
775.17
775.186
775.202
775.218
775.235
775.252
775.269
775.286
775.304
775.322
775.34
775.359
775.378
775.397
775.416
775.435
775.455
775.475
775.495
775.515
775.535
775.555
775.575
775.596
775.617
775.637
775.658
775.679
775.701
775.722
775.744
775.765
775.787
775.809
775.832
775.854
775.877
775.9
775.923
775.947
775.97
775.994
776.018
776.043
776.068
776.093
776.118
776.144
776.17
776.196
776.224
776.249
776.279
776.303
776.334
776.358
776.391
776.413
776.449
776.467
776.515
776.483
774.498
774.498
774.498
774.498
774.498
774.498
774.498
774.498
774.498
774.498
774.499
774.499
774.499
774.499
774.5
774.5
774.5
774.501
774.501
774.501
774.501
774.501
774.502
774.502
774.502
774.503
774.503
774.503
774.504
774.504
774.505
774.505
774.506
774.507
774.507
774.508
774.508
774.507
774.505
774.504
774.503
774.503
774.504
774.505
774.506
774.507
774.508
774.508
774.508
774.508
774.507
774.506
774.504
774.503
774.502
774.501
774.501
774.502
774.504
774.506
774.507
774.509
774.51
774.511
774.511
774.512
774.513
774.515
774.516
774.519
774.522
774.525
774.529
774.533
774.537
774.542
774.547
774.552
774.557
774.563
774.569
774.574
774.58
774.586
774.593
774.599
774.605
774.612
774.619
774.625
774.632
774.639
774.646
774.654
774.661
774.669
774.676
774.684
774.692
774.7
774.709
774.717
774.726
774.735
774.745
774.754
774.764
774.774
774.784
774.794
774.805
774.816
774.827
774.839
774.85
774.862
774.874
774.886
774.898
774.91
774.923
774.935
774.948
774.961
774.974
774.987
775
775.014
775.027
775.041
775.055
775.069
775.083
775.097
775.112
775.127
775.142
775.157
775.172
775.188
775.204
775.221
775.237
775.254
775.271
775.289
775.306
775.324
775.343
775.361
775.38
775.399
775.418
775.437
775.457
775.477
775.497
775.517
775.537
775.557
775.578
775.598
775.619
775.64
775.661
775.682
775.703
775.724
775.746
775.768
775.789
775.812
775.834
775.856
775.879
775.902
775.925
775.949
775.972
775.996
776.021
776.045
776.07
776.095
776.121
776.146
776.173
776.198
776.226
776.251
776.281
776.305
776.337
776.359
776.394
776.414
776.451
776.469
776.522
776.43
776.591
776.612
776.618
776.623
776.628
776.633
776.638
776.645
776.659
776.666
776.656
776.64
776.63
776.631
776.616
776.612
776.619
776.639
776.67
776.596
776.583
776.596
776.6
776.605
776.608
776.609
776.612
776.617
776.625
776.634
776.622
776.603
776.598
776.6
776.585
776.569
776.577
776.595
776.624
776.589
776.552
776.556
776.56
776.562
776.564
776.565
776.565
776.565
776.565
776.566
776.568
776.573
776.577
776.579
776.58
776.582
776.587
776.594
776.599
776.609
776.5
776.505
776.509
776.51
776.508
776.501
776.496
776.489
776.483
776.475
776.464
776.459
776.455
776.447
776.444
776.438
776.434
776.431
776.43
776.425
776.464
776.454
776.457
776.459
776.46
776.456
776.455
776.451
776.446
776.44
776.436
776.429
776.426
776.422
776.42
776.419
776.419
776.422
776.429
776.45
776.507
776.511
776.529
776.517
776.541
776.592
776.607
776.615
776.631
776.663
776.688
776.709
776.731
776.756
776.782
776.806
776.83
776.855
776.88
776.906
776.931
776.957
776.983
777.009
777.035
777.06
777.086
777.112
777.139
777.165
777.192
777.218
777.244
777.271
777.297
777.324
777.35
777.376
777.403
777.429
777.456
777.483
777.51
777.537
777.564
777.591
777.619
777.647
777.675
777.703
777.731
777.759
777.787
777.815
777.843
777.871
777.899
777.927
777.955
777.983
778.011
778.039
778.067
778.096
778.124
778.153
778.181
778.21
778.239
778.268
778.298
778.327
778.357
778.387
778.417
778.447
778.476
778.505
778.533
778.562
778.592
778.623
778.656
778.687
778.719
778.749
778.776
778.804
778.832
778.861
778.89
778.92
778.951
778.983
779.017
779.049
779.078
779.104
779.135
779.175
779.219
779.253
779.273
779.289
779.322
779.403
779.506
779.585
779.626
779.633
779.623
779.587
779.561
779.553
779.554
779.571
779.61
779.648
779.683
779.716
779.748
779.78
779.81
779.841
779.871
779.9
779.93
779.959
779.988
780.017
780.046
780.074
780.103
780.132
780.16
780.189
780.217
780.245
780.273
780.301
780.329
780.357
780.385
780.413
780.44
780.468
780.495
780.522
780.549
780.577
780.604
780.63
780.657
780.684
780.711
780.737
780.764
780.79
780.817
780.843
780.869
780.895
780.921
780.947
780.973
780.999
781.025
781.051
781.076
781.102
781.127
781.153
781.178
781.203
781.228
781.253
781.278
781.302
781.328
781.351
781.378
781.4
781.427
781.448
781.476
781.495
781.524
781.542
781.572
781.588
781.619
781.634
781.666
781.68
781.711
781.725
781.756
781.772
781.793
781.829
776.5
776.524
776.54
776.536
776.575
776.619
776.629
776.635
776.658
776.694
776.713
776.732
776.755
776.779
776.804
776.827
776.851
776.875
776.899
776.924
776.949
776.975
777.001
777.027
777.052
777.078
777.104
777.131
777.158
777.184
777.21
777.236
777.262
777.288
777.314
777.34
777.366
777.392
777.419
777.445
777.471
777.498
777.525
777.552
777.58
777.607
777.635
777.663
777.691
777.719
777.747
777.775
777.803
777.83
777.858
777.886
777.913
777.941
777.968
777.996
778.024
778.052
778.081
778.109
778.138
778.167
778.195
778.224
778.254
778.284
778.314
778.344
778.374
778.404
778.434
778.464
778.493
778.522
778.553
778.586
778.621
778.657
778.691
778.721
778.747
778.772
778.798
778.823
778.851
778.882
778.913
778.945
778.977
779.009
779.039
779.067
779.1
779.14
779.184
779.217
779.236
779.254
779.29
779.358
779.444
779.526
779.583
779.609
779.611
779.599
779.563
779.542
779.535
779.536
779.549
779.584
779.62
779.653
779.686
779.718
779.749
779.779
779.81
779.84
779.869
779.899
779.928
779.957
779.986
780.015
780.044
780.073
780.101
780.13
780.158
780.187
780.215
780.243
780.271
780.299
780.327
780.355
780.383
780.411
780.438
780.466
780.493
780.52
780.547
780.575
780.602
780.629
780.655
780.682
780.709
780.735
780.762
780.788
780.815
780.841
780.867
780.893
780.919
780.945
780.971
780.997
781.023
781.049
781.074
781.1
781.125
781.151
781.176
781.201
781.226
781.251
781.276
781.301
781.326
781.349
781.376
781.398
781.425
781.446
781.473
781.493
781.522
781.54
781.57
781.587
781.617
781.632
781.664
781.678
781.709
781.724
781.754
781.769
781.795
781.821
776.666
776.69
776.74
776.784
776.819
776.846
776.873
776.899
776.926
776.95
776.974
776.997
777.021
777.045
777.068
777.092
777.116
777.141
777.165
777.191
777.216
777.241
777.266
777.291
777.315
777.34
777.365
777.389
777.414
777.439
777.464
777.49
777.516
777.543
777.569
777.595
777.621
777.647
777.672
777.697
777.722
777.747
777.773
777.798
777.824
777.849
777.875
777.902
777.929
777.957
777.985
778.013
778.042
778.071
778.099
778.128
778.156
778.184
778.213
778.24
778.269
778.298
778.327
778.357
778.387
778.417
778.447
778.478
778.51
778.543
778.576
778.609
778.641
778.674
778.708
778.742
778.774
778.801
778.819
778.827
778.828
778.819
778.802
778.796
778.795
778.796
778.803
778.821
778.845
778.871
778.899
778.93
778.962
778.994
779.027
779.059
779.091
779.122
779.151
779.18
779.208
779.236
779.262
779.288
779.314
779.339
779.364
779.389
779.415
779.441
779.468
779.496
779.524
779.553
779.582
779.611
779.639
779.668
779.697
779.726
779.755
779.784
779.813
779.842
779.871
779.9
779.929
779.958
779.986
780.015
780.044
780.073
780.101
780.13
780.158
780.187
780.215
780.243
780.271
780.299
780.327
780.355
780.383
780.411
780.438
780.466
780.493
780.52
780.547
780.575
780.602
780.629
780.655
780.682
780.709
780.735
780.762
780.788
780.815
780.841
780.867
780.893
780.919
780.946
780.971
780.997
781.023
781.049
781.074
781.1
781.125
781.151
781.176
781.201
781.226
781.251
781.276
781.301
781.325
781.351
781.374
781.4
781.423
781.448
781.471
781.496
781.52
781.543
781.567
781.591
781.612
781.638
781.658
781.683
781.706
781.727
781.75
781.774
781.794
781.816
776.436
776.45
776.472
776.504
776.532
776.557
776.583
776.61
776.638
776.664
776.69
776.715
776.741
776.767
776.793
776.817
776.842
776.867
776.892
776.917
776.942
776.967
776.993
777.018
777.043
777.069
777.095
777.12
777.147
777.173
777.199
777.225
777.251
777.278
777.304
777.331
777.358
777.385
777.411
777.438
777.465
777.492
777.519
777.546
777.573
777.6
777.627
777.655
777.682
777.71
777.738
777.766
777.794
777.822
777.85
777.879
777.907
777.936
777.964
777.992
778.021
778.049
778.078
778.106
778.135
778.163
778.192
778.221
778.25
778.279
778.308
778.336
778.366
778.394
778.423
778.452
778.481
778.509
778.538
778.569
778.6
778.633
778.664
778.693
778.724
778.756
778.785
778.813
778.844
778.879
778.915
778.946
778.978
779.014
779.054
779.094
779.129
779.164
779.203
779.25
779.306
779.367
779.421
779.46
779.479
779.483
779.478
779.46
779.448
779.445
779.447
779.461
779.494
779.529
779.563
779.596
779.628
779.659
779.69
779.721
779.751
779.781
779.811
779.84
779.87
779.899
779.928
779.957
779.986
780.015
780.044
780.073
780.101
780.13
780.158
780.187
780.215
780.243
780.271
780.299
780.327
780.355
780.383
780.411
780.438
780.466
780.493
780.52
780.547
780.575
780.602
780.629
780.655
780.682
780.709
780.735
780.762
780.788
780.815
780.841
780.867
780.893
780.919
780.946
780.971
780.997
781.023
781.049
781.074
781.1
781.125
781.151
781.176
781.201
781.226
781.251
781.276
781.301
781.325
781.351
781.374
781.4
781.422
781.449
781.47
781.498
781.517
781.546
781.563
781.593
781.61
781.64
781.655
781.686
781.701
781.732
781.746
781.776
781.792
781.819
776.492
776.531
776.557
776.589
776.623
776.653
776.681
776.711
776.743
776.774
776.803
776.831
776.859
776.886
776.913
776.939
776.965
776.99
777.016
777.042
777.067
777.093
777.119
777.145
777.171
777.197
777.223
777.249
777.276
777.302
777.329
777.355
777.382
777.408
777.435
777.461
777.488
777.514
777.541
777.567
777.593
777.619
777.646
777.673
777.699
777.727
777.754
777.782
777.809
777.837
777.865
777.893
777.921
777.948
777.976
778.004
778.032
778.059
778.087
778.115
778.143
778.171
778.199
778.226
778.254
778.282
778.31
778.338
778.366
778.395
778.423
778.452
778.481
778.511
778.54
778.571
778.601
778.63
778.661
778.692
778.722
778.752
778.781
778.809
778.838
778.868
778.899
778.929
778.957
778.985
779.017
779.059
779.101
779.131
779.147
779.164
779.205
779.295
779.388
779.455
779.486
779.491
779.481
779.442
779.414
779.405
779.404
779.407
779.421
779.445
779.471
779.498
779.526
779.555
779.583
779.612
779.641
779.67
779.699
779.728
779.757
779.786
779.815
779.844
779.873
779.902
779.931
779.96
779.988
780.017
780.046
780.075
780.103
780.132
780.16
780.189
780.217
780.245
780.273
780.301
780.329
780.357
780.385
780.413
780.44
780.468
780.495
780.522
780.549
780.577
780.604
780.63
780.657
780.684
780.711
780.737
780.764
780.79
780.817
780.843
780.869
780.895
780.921
780.947
780.973
780.999
781.025
781.051
781.076
781.102
781.127
781.153
781.178
781.203
781.228
781.253
781.278
781.303
781.327
781.353
781.376
781.402
781.424
781.451
781.472
781.5
781.519
781.548
781.565
781.595
781.612
781.642
781.658
781.687
781.705
781.729
781.755
781.77
781.798
781.821
781.836
781.837
781.838
781.84
781.842
781.844
781.845
781.846
781.847
781.849
781.85
781.851
781.852
781.853
781.855
781.856
781.858
781.861
781.864
781.868
781.83
781.833
781.835
781.837
781.839
781.841
781.842
781.844
781.845
781.847
781.85
781.852
781.854
781.855
781.858
781.863
781.869
781.874
781.88
781.884
781.829
781.835
781.841
781.847
781.852
781.858
781.863
781.868
781.875
781.879
781.885
781.896
781.904
781.909
781.92
781.936
781.95
781.956
781.968
781.978
781.833
781.841
781.848
781.856
781.864
781.871
781.876
781.883
781.889
781.893
781.898
781.91
781.93
781.94
781.942
781.934
781.931
781.93
781.936
781.949
781.836
781.844
781.851
781.858
781.865
781.872
781.88
781.887
781.892
781.897
781.907
781.927
781.946
781.954
781.954
781.948
781.94
781.936
781.938
781.941
781.883
781.911
781.942
781.967
781.994
782.028
782.062
782.091
782.117
782.146
782.179
782.209
782.234
782.26
782.29
782.319
782.343
782.364
782.388
782.414
782.44
782.46
782.478
782.498
782.518
782.539
782.558
782.575
782.592
782.609
782.626
782.643
782.659
782.676
782.692
782.707
782.723
782.738
782.754
782.769
782.783
782.798
782.812
782.827
782.841
782.855
782.869
782.883
782.898
782.912
782.926
782.94
782.954
782.967
782.981
782.994
783.007
783.019
783.031
783.044
783.056
783.068
783.08
783.092
783.104
783.115
783.127
783.139
783.151
783.163
783.174
783.185
783.196
783.207
783.219
783.231
783.242
783.252
783.262
783.274
783.289
783.298
783.302
783.311
783.335
783.364
783.374
783.372
783.371
783.395
783.506
783.596
783.613
783.6
783.536
783.458
783.41
783.385
783.375
783.359
781.897
781.933
781.959
781.977
782.005
782.042
782.074
782.094
782.11
782.135
782.164
782.186
782.202
782.223
782.248
782.269
782.284
782.3
782.32
782.343
782.362
782.375
782.388
782.404
782.423
782.442
782.458
782.471
782.484
782.499
782.514
782.53
782.545
782.56
782.575
782.59
782.605
782.619
782.634
782.648
782.663
782.677
782.692
782.706
782.72
782.735
782.749
782.763
782.778
782.791
782.805
782.819
782.833
782.846
782.86
782.874
782.887
782.9
782.914
782.927
782.939
782.952
782.965
782.977
782.989
783.001
783.013
783.024
783.036
783.047
783.059
783.071
783.082
783.092
783.104
783.117
783.128
783.137
783.149
783.164
783.176
783.184
783.195
783.212
783.229
783.24
783.253
783.273
783.292
783.312
783.337
783.358
783.382
783.424
783.472
783.498
783.499
783.492
783.463
783.407
782.038
782.1
782.152
782.196
782.241
782.291
782.336
782.369
782.397
782.429
782.459
782.478
782.494
782.516
782.542
782.557
782.565
782.577
782.596
782.618
782.633
782.636
782.643
782.657
782.675
782.695
782.707
782.713
782.724
782.738
782.754
782.77
782.786
782.802
782.818
782.833
782.848
782.862
782.876
782.89
782.904
782.918
782.933
782.947
782.962
782.977
782.992
783.007
783.021
783.036
783.05
783.064
783.078
783.091
783.106
783.12
783.135
783.15
783.164
783.178
783.192
783.207
783.222
783.237
783.251
783.266
783.283
783.302
783.319
783.332
783.333
783.324
783.309
783.283
783.25
783.224
783.203
783.186
783.174
783.171
783.175
783.184
783.193
783.206
783.218
783.232
783.245
783.257
783.267
783.28
783.286
783.298
783.302
783.311
783.318
783.321
783.327
783.331
783.334
783.335
781.974
781.991
782.056
782.082
782.076
782.083
782.148
782.185
782.179
782.181
782.229
782.258
782.252
782.255
782.293
782.337
782.332
782.321
782.328
782.371
782.423
782.42
782.406
782.405
782.419
782.466
782.493
782.491
782.488
782.494
782.508
782.523
782.538
782.554
782.57
782.585
782.601
782.617
782.633
782.648
782.664
782.679
782.694
782.709
782.724
782.739
782.754
782.769
782.784
782.799
782.813
782.828
782.842
782.856
782.869
782.882
782.895
782.908
782.92
782.933
782.945
782.957
782.969
782.981
782.993
783.006
783.019
783.031
783.041
783.06
783.077
783.083
783.092
783.102
783.113
783.124
783.135
783.146
783.156
783.166
783.178
783.191
783.204
783.214
783.225
783.238
783.252
783.262
783.27
783.284
783.308
783.331
783.341
783.34
783.339
783.347
783.398
783.495
783.555
783.567
781.981
781.986
782.002
782.042
782.054
782.057
782.068
782.099
782.124
782.142
782.153
782.163
782.182
782.212
782.232
782.239
782.25
782.272
782.295
782.315
782.329
782.342
782.357
782.374
782.393
782.415
782.428
782.442
782.458
782.473
782.488
782.505
782.521
782.538
782.554
782.57
782.586
782.602
782.618
782.633
782.649
782.664
782.68
782.695
782.71
782.724
782.739
782.754
782.768
782.783
782.797
782.811
782.826
782.84
782.853
782.867
782.88
782.893
782.906
782.918
782.931
782.943
782.955
782.967
782.979
782.991
783.003
783.015
783.027
783.04
783.052
783.063
783.074
783.085
783.096
783.107
783.118
783.13
783.14
783.151
783.162
783.171
783.182
783.194
783.206
783.216
783.226
783.239
783.254
783.263
783.267
783.275
783.296
783.323
783.338
783.338
783.336
783.34
783.395
783.495
783.355
783.351
783.348
783.345
783.343
783.341
783.339
783.337
783.335
783.333
783.33
783.328
783.326
783.325
783.324
783.322
783.322
783.321
783.321
783.322
783.382
783.375
783.369
783.362
783.356
783.35
783.344
783.338
783.332
783.325
783.319
783.314
783.312
783.311
783.311
783.312
783.315
783.318
783.323
783.325
783.34
783.341
783.343
783.344
783.346
783.347
783.348
783.35
783.352
783.354
783.358
783.364
783.368
783.372
783.382
783.389
783.399
783.407
783.423
783.431
783.567
783.566
783.563
783.551
783.534
783.512
783.488
783.465
783.445
783.426
783.409
783.394
783.383
783.374
783.367
783.364
783.369
783.383
783.398
783.406
783.539
783.554
783.566
783.574
783.579
783.58
783.573
783.552
783.524
783.496
783.468
783.439
783.414
783.395
783.381
783.369
783.361
783.361
783.365
783.362
783.326
783.338
783.354
783.365
783.376
783.391
783.411
783.427
783.437
783.45
783.47
783.489
783.5
783.51
783.522
783.542
783.563
783.575
783.581
783.588
783.598
783.609
783.626
783.64
783.641
783.638
783.638
783.644
783.649
783.653
783.657
783.66
783.662
783.665
783.668
783.671
783.673
783.676
783.678
783.681
783.683
783.685
783.687
783.689
783.69
783.692
783.693
783.694
783.696
783.698
783.699
783.701
783.705
783.704
783.703
783.709
783.713
783.71
783.704
783.706
783.71
783.714
783.713
783.712
783.713
783.715
783.718
783.72
783.722
783.722
783.722
783.728
783.731
783.729
783.727
783.73
783.749
783.758
783.755
783.747
783.767
783.893
783.982
783.984
783.921
783.806
783.734
783.692
783.663
783.639
783.623
783.616
783.615
783.615
783.615
783.615
783.615
783.615
783.615
783.616
783.616
783.616
783.616
783.617
783.617
783.617
783.617
783.618
783.618
783.618
783.618
783.619
783.619
783.619
783.62
783.62
783.62
783.621
783.621
783.621
783.621
783.622
783.622
783.622
783.623
783.623
783.623
783.624
783.624
783.624
783.625
783.625
783.625
783.626
783.626
783.626
783.627
783.627
783.627
783.628
783.628
783.628
783.628
783.629
783.629
783.629
783.629
783.629
783.629
783.629
783.629
783.629
783.629
783.629
783.629
783.629
783.628
783.628
783.628
783.628
783.627
783.627
783.627
783.626
783.626
783.625
783.625
783.624
783.624
783.623
783.623
783.622
783.622
783.621
783.62
783.62
783.619
783.619
783.617
783.618
783.616
783.617
783.614
783.615
783.612
783.614
783.61
783.613
783.608
783.611
783.606
783.609
783.604
783.606
783.604
783.6
783.604
783.599
783.598
783.599
783.331
783.37
783.394
783.402
783.413
783.439
783.465
783.469
783.47
783.481
783.508
783.514
783.509
783.507
783.517
783.547
783.559
783.552
783.538
783.534
783.54
783.561
783.583
783.583
783.571
783.555
783.551
783.554
783.56
783.563
783.565
783.567
783.567
783.568
783.568
783.568
783.568
783.568
783.569
783.57
783.571
783.572
783.573
783.575
783.576
783.577
783.579
783.58
783.581
783.583
783.584
783.587
783.588
783.589
783.598
783.611
783.608
783.602
783.593
783.594
783.601
783.601
783.599
783.599
783.599
783.6
783.601
783.606
783.608
783.608
783.609
783.615
783.619
783.619
783.621
783.629
783.637
783.641
783.646
783.658
783.67
783.696
783.713
783.729
783.768
783.805
783.814
783.812
783.79
783.723
783.657
783.612
783.589
783.586
783.591
783.599
783.603
783.606
783.609
783.61
783.612
783.613
783.614
783.614
783.615
783.615
783.616
783.616
783.616
783.617
783.617
783.617
783.617
783.618
783.618
783.618
783.619
783.619
783.619
783.62
783.62
783.62
783.621
783.621
783.621
783.622
783.622
783.622
783.623
783.623
783.623
783.624
783.624
783.624
783.625
783.625
783.625
783.626
783.626
783.626
783.626
783.627
783.627
783.627
783.627
783.627
783.628
783.628
783.628
783.628
783.628
783.628
783.628
783.628
783.627
783.627
783.627
783.627
783.626
783.626
783.626
783.625
783.625
783.625
783.624
783.624
783.623
783.623
783.622
783.622
783.621
783.621
783.62
783.62
783.619
783.619
783.618
783.617
783.616
783.616
783.614
783.615
783.612
783.614
783.61
783.613
783.608
783.611
783.607
783.609
783.605
783.607
783.603
783.605
783.6
783.603
783.598
783.6
783.597
783.597
783.458
783.516
783.563
783.6
783.631
783.669
783.708
783.731
783.744
783.764
783.789
783.799
783.79
783.789
783.801
783.823
783.838
783.823
783.794
783.789
783.801
783.823
783.85
783.853
783.822
783.788
783.779
783.781
783.783
783.786
783.788
783.79
783.792
783.794
783.797
783.799
783.801
783.804
783.806
783.808
783.81
783.813
783.815
783.817
783.819
783.82
783.822
783.825
783.827
783.83
783.832
783.836
783.843
783.859
783.887
783.923
783.912
783.878
783.873
783.886
783.904
783.897
783.859
783.829
783.795
783.749
783.711
783.679
783.651
783.63
783.618
783.613
783.613
783.615
783.619
783.624
783.629
783.633
783.636
783.639
783.641
783.643
783.643
783.642
783.641
783.639
783.636
783.633
783.63
783.626
783.622
783.618
783.614
783.613
783.613
783.613
783.614
783.614
783.614
783.614
783.615
783.615
783.615
783.615
783.615
783.616
783.616
783.616
783.616
783.617
783.617
783.617
783.618
783.618
783.618
783.618
783.619
783.619
783.619
783.62
783.62
783.62
783.621
783.621
783.621
783.622
783.622
783.622
783.623
783.623
783.623
783.624
783.624
783.624
783.625
783.625
783.625
783.626
783.626
783.626
783.626
783.627
783.627
783.627
783.627
783.627
783.628
783.628
783.628
783.628
783.628
783.628
783.628
783.628
783.627
783.627
783.627
783.627
783.626
783.626
783.626
783.625
783.625
783.625
783.624
783.624
783.623
783.623
783.622
783.622
783.621
783.621
783.62
783.62
783.619
783.618
783.618
783.617
783.616
783.616
783.615
783.614
783.613
783.613
783.612
783.611
783.61
783.609
783.608
783.609
783.605
783.607
783.604
783.603
783.603
783.601
783.599
783.6
783.597
783.597
783.4
783.403
783.471
783.51
783.493
783.476
783.519
783.573
783.549
783.524
783.555
783.634
783.623
783.563
783.541
783.577
783.675
783.688
783.664
783.577
783.544
783.554
783.64
783.706
783.705
783.658
783.568
783.539
783.534
783.536
783.541
783.544
783.547
783.55
783.553
783.556
783.559
783.562
783.565
783.567
783.57
783.572
783.574
783.576
783.577
783.579
783.581
783.583
783.586
783.586
783.588
783.593
783.596
783.598
783.614
783.693
783.751
783.728
783.644
783.616
783.63
783.683
783.664
783.625
783.612
783.609
783.609
783.611
783.613
783.614
783.614
783.616
783.62
783.624
783.627
783.628
783.631
783.635
783.636
783.637
783.639
783.655
783.673
783.677
783.674
783.667
783.671
783.716
783.814
783.86
783.866
783.835
783.735
783.649
783.602
783.587
783.59
783.599
783.605
783.608
783.61
783.612
783.613
783.614
783.614
783.615
783.615
783.616
783.616
783.617
783.617
783.617
783.617
783.618
783.618
783.618
783.619
783.619
783.619
783.62
783.62
783.62
783.621
783.621
783.621
783.622
783.622
783.622
783.623
783.623
783.623
783.624
783.624
783.624
783.625
783.625
783.625
783.626
783.626
783.626
783.626
783.627
783.627
783.627
783.627
783.627
783.628
783.628
783.628
783.628
783.628
783.628
783.628
783.628
783.627
783.627
783.627
783.627
783.626
783.626
783.626
783.625
783.625
783.625
783.624
783.624
783.623
783.623
783.622
783.622
783.621
783.621
783.62
783.62
783.619
783.618
783.618
783.617
783.617
783.615
783.616
783.613
783.615
783.611
783.613
783.61
783.612
783.608
783.61
783.606
783.608
783.604
783.606
783.602
783.604
783.599
783.601
783.599
783.594
783.6
783.374
783.393
783.419
783.442
783.451
783.446
783.443
783.451
783.467
783.473
783.483
783.488
783.487
783.485
783.49
783.507
783.53
783.523
783.525
783.515
783.51
783.513
783.537
783.552
783.547
783.544
783.526
783.512
783.512
783.518
783.524
783.528
783.531
783.534
783.537
783.54
783.543
783.546
783.549
783.552
783.555
783.557
783.559
783.562
783.563
783.565
783.567
783.569
783.571
783.573
783.574
783.577
783.58
783.587
783.612
783.608
783.606
783.611
783.599
783.594
783.597
783.594
783.597
783.593
783.59
783.591
783.593
783.594
783.596
783.598
783.6
783.602
783.603
783.603
783.606
783.61
783.613
783.614
783.618
783.623
783.624
783.622
783.621
783.626
783.646
783.655
783.655
783.648
783.651
783.705
783.82
783.858