/*--------------------------------*- C++ -*----------------------------------*\
| =========                 |                                                 |
| \\      /  F ield         | OpenFOAM: The Open Source CFD Toolbox           |
|  \\    /   O peration     | Version:  3.0.x                                 |
|   \\  /    A nd           | Web:      www.OpenFOAM.org                      |
|    \\/     M anipulation  |                                                 |
\*---------------------------------------------------------------------------*/
FoamFile
{
    version     2.0;
    format      ascii;
    class       surfaceScalarField;
    location    "0.35";
    object      phi;
}
// * * * * * * * * * * * * * * * * * * * * * * * * * * * * * * * * * * * * * //

dimensions      [1 0 -1 0 0 0 0];

internalField   nonuniform List<scalar> 
12415
(
5.79687
0.000327728
5.79664
0.000234939
5.79641
0.0002248
5.79618
0.000226677
5.79594
0.000227126
5.79569
0.000226953
5.79542
0.000226793
5.79515
0.000226841
5.79486
0.000226851
5.79456
0.000226853
5.79425
0.000226864
5.79392
0.000226887
5.79358
0.000226921
5.79324
0.000226946
5.79288
0.000227028
5.79252
0.000227071
5.79217
0.000227456
5.79182
0.000226976
5.79146
0.000227322
5.79111
0.000227413
5.79076
0.0002275
5.7904
0.000227586
5.79005
0.000227674
5.78971
0.000227763
5.78939
0.000227854
5.78908
0.000227948
5.78878
0.000228049
5.78851
0.000228151
5.78825
0.000228262
5.78802
0.000228376
5.7878
0.000228489
5.78759
0.000228611
5.7874
0.000228725
5.78722
0.000228832
5.78704
0.000228926
5.78686
0.000228999
5.78668
0.00022904
5.7865
0.000229031
5.78631
0.000228951
5.78611
0.00022877
5.78591
0.000228442
5.7857
0.000227976
5.78549
0.000227187
5.78527
0.000226148
5.78504
0.000224698
5.7848
0.000222759
5.78455
0.000220254
5.78428
0.000217076
5.784
0.000213137
5.78371
0.000208357
5.78341
0.000202675
5.78311
0.000196051
5.7828
0.000188477
5.7825
0.000179939
5.78221
0.000170672
5.78194
0.000160456
5.78167
0.000149687
5.78143
0.000138406
5.78121
0.000126804
5.78102
0.000115066
5.78085
0.000103387
5.78071
9.19261e-05
5.78059
8.08906e-05
5.78051
7.03924e-05
5.78045
6.05724e-05
5.78043
5.15292e-05
5.78042
4.3303e-05
5.78044
3.59278e-05
5.78048
2.94196e-05
5.78054
2.37551e-05
5.78061
1.88876e-05
5.78068
1.47624e-05
5.78077
1.13128e-05
5.78085
8.46639e-06
5.78094
6.14845e-06
5.78101
4.28473e-06
5.78108
2.8054e-06
5.78113
1.64601e-06
5.78117
7.49395e-07
5.7812
6.15946e-08
5.7812
-4.55113e-07
5.78118
-8.34296e-07
5.78115
-1.11606e-06
5.78109
-1.31931e-06
5.78102
-1.46498e-06
5.78092
-1.56725e-06
5.78082
-1.63923e-06
5.7807
-1.68954e-06
5.78057
-1.72462e-06
5.78044
-1.74909e-06
5.7803
-1.76758e-06
5.78017
-1.78129e-06
5.78005
-1.79295e-06
5.77994
-1.80286e-06
5.77985
-1.81248e-06
5.77977
-1.8218e-06
5.77971
-1.83116e-06
5.77968
-1.84168e-06
5.77967
-1.84112e-06
5.77968
-1.86355e-06
5.77972
-1.86922e-06
5.77977
-1.87779e-06
5.77985
-1.88506e-06
5.77995
-1.89161e-06
5.78007
-1.89643e-06
5.78019
-1.89989e-06
5.78033
-1.90227e-06
5.78046
-1.90226e-06
5.7806
-1.90128e-06
5.78073
-1.89786e-06
5.78085
-1.89329e-06
5.78095
-1.88648e-06
5.78103
-1.87902e-06
5.78109
-1.86978e-06
5.78113
-1.85963e-06
5.78113
-1.84851e-06
5.7811
-1.84596e-06
5.78105
-1.82312e-06
5.78096
-1.81456e-06
5.78084
-1.80309e-06
5.78069
-1.79355e-06
5.78051
-1.7847e-06
5.78031
-1.7765e-06
5.78009
-1.77045e-06
5.77986
-1.76623e-06
5.77962
-1.76401e-06
5.77938
-1.76581e-06
5.77916
-1.76717e-06
5.77894
-1.77414e-06
5.77875
-1.78131e-06
5.77859
-1.79165e-06
5.77845
-1.80305e-06
5.77835
-1.81595e-06
5.77829
-1.82956e-06
5.77827
-1.83673e-06
5.77829
-1.88136e-06
5.77834
-1.85792e-06
5.77843
-1.87313e-06
5.77854
-1.89723e-06
5.77869
-1.90441e-06
5.77885
-1.91674e-06
5.77903
-1.91701e-06
5.77921
-1.9243e-06
5.7794
-1.92105e-06
5.77959
-1.9221e-06
5.77976
-1.91621e-06
5.77992
-1.91154e-06
5.78005
-1.90208e-06
5.78015
-1.89215e-06
5.78021
-1.87943e-06
5.78023
-1.86521e-06
5.78021
-1.82832e-06
5.78014
-1.86692e-06
5.78002
-1.81312e-06
5.77984
-1.79498e-06
5.77961
-1.77902e-06
5.77933
-1.7618e-06
5.77901
-1.74553e-06
5.77864
-1.73525e-06
5.77825
-1.7183e-06
5.77783
-1.72045e-06
5.77741
-1.70816e-06
5.77698
-1.7167e-06
5.77658
-1.71616e-06
5.77621
-1.72732e-06
5.77587
-1.73929e-06
5.7756
-1.75747e-06
5.77538
-1.77616e-06
5.77522
-1.80008e-06
5.77514
-1.8212e-06
5.77512
-1.83791e-06
5.77517
-1.89916e-06
5.77527
-1.86501e-06
5.77542
-1.89521e-06
5.77561
-1.92485e-06
5.77583
-1.93311e-06
5.77608
-1.94543e-06
5.77634
-1.94893e-06
5.77661
-1.95484e-06
5.77689
-1.95333e-06
5.77716
-1.95674e-06
5.77742
-1.95147e-06
5.77767
-1.9484e-06
5.77789
-1.93977e-06
5.77808
-1.93322e-06
5.77822
-1.91376e-06
5.7783
-1.90649e-06
5.77832
-1.86653e-06
5.77826
-1.80047e-06
5.77811
-1.94184e-06
5.77789
-1.71969e-06
5.77757
-1.66702e-06
5.77716
-1.09415e-06
5.77666
3.21129e-06
5.77606
3.24084e-05
5.77519
0.000236464
5.77286
0.00165607
5.76063
0.0115277
5.66959
0.0903404
0.446488
5.22241
11.5945
0.000260454
11.5945
0.000215393
11.5946
0.000189761
11.5946
0.000194057
11.5946
0.000195311
11.5946
0.000194754
11.5945
0.000194532
11.5945
0.000194566
11.5944
0.000194566
11.5943
0.000194579
11.5941
0.000194598
11.5939
0.000194625
11.5938
0.000194661
11.5935
0.000194697
11.5933
0.00019477
11.5931
0.000194828
11.5929
0.000195062
11.5926
0.000194849
11.5924
0.000195058
11.5922
0.000195152
11.592
0.000195238
11.5918
0.000195323
11.5916
0.000195409
11.5914
0.000195497
11.5912
0.000195585
11.5911
0.000195678
11.591
0.000195779
11.5909
0.000195873
11.5909
0.000195982
11.5909
0.00019609
11.5909
0.000196199
11.591
0.000196316
11.5911
0.000196424
11.5913
0.000196528
11.5914
0.00019662
11.5915
0.000196695
11.5917
0.00019674
11.5918
0.000196744
11.5919
0.000196686
11.592
0.000196541
11.5921
0.000196269
11.5921
0.000195858
11.5922
0.000195224
11.5922
0.000194317
11.5923
0.000193075
11.5923
0.000191408
11.5922
0.000189252
11.5922
0.000186514
11.592
0.000183118
11.5919
0.000178996
11.5917
0.000174095
11.5916
0.000168381
11.5914
0.000161847
11.5911
0.000154497
11.5909
0.00014648
11.5907
0.000137698
11.5905
0.000128411
11.5903
0.000118697
11.5902
0.00010871
11.59
9.86118e-05
11.5899
8.85683e-05
11.5898
7.87184e-05
11.5898
6.92357e-05
11.5897
6.02279e-05
11.5898
5.18008e-05
11.5898
4.40453e-05
11.5899
3.69951e-05
11.59
3.06791e-05
11.5901
2.51089e-05
11.5903
2.02612e-05
11.5905
1.61006e-05
11.5907
1.25767e-05
11.5909
9.62975e-06
11.5911
7.20143e-06
11.5912
5.22487e-06
11.5914
3.63687e-06
11.5915
2.3772e-06
11.5917
1.39092e-06
11.5917
6.29655e-07
11.5918
4.51596e-08
11.5918
-3.93848e-07
11.5917
-7.16906e-07
11.5917
-9.56991e-07
11.5916
-1.13065e-06
11.5914
-1.25538e-06
11.5912
-1.34324e-06
11.591
-1.40479e-06
11.5908
-1.44832e-06
11.5905
-1.47848e-06
11.5902
-1.49943e-06
11.59
-1.51539e-06
11.5897
-1.52735e-06
11.5894
-1.5373e-06
11.5892
-1.5459e-06
11.589
-1.55413e-06
11.5889
-1.56217e-06
11.5887
-1.57022e-06
11.5887
-1.57866e-06
11.5886
-1.58035e-06
11.5887
-1.59658e-06
11.5887
-1.60332e-06
11.5888
-1.61011e-06
11.589
-1.61646e-06
11.5892
-1.62197e-06
11.5894
-1.62622e-06
11.5897
-1.62912e-06
11.5899
-1.63121e-06
11.5902
-1.63123e-06
11.5905
-1.63025e-06
11.5907
-1.62745e-06
11.591
-1.62344e-06
11.5912
-1.61772e-06
11.5913
-1.61122e-06
11.5914
-1.60334e-06
11.5915
-1.59459e-06
11.5915
-1.58548e-06
11.5914
-1.58162e-06
11.5913
-1.56466e-06
11.5911
-1.55551e-06
11.5909
-1.5462e-06
11.5906
-1.53796e-06
11.5902
-1.53039e-06
11.5898
-1.52339e-06
11.5894
-1.51808e-06
11.5889
-1.5146e-06
11.5884
-1.51257e-06
11.588
-1.51513e-06
11.5875
-1.51456e-06
11.5871
-1.52119e-06
11.5867
-1.52763e-06
11.5863
-1.5363e-06
11.5861
-1.54613e-06
11.5859
-1.55721e-06
11.5857
-1.56863e-06
11.5857
-1.57711e-06
11.5857
-1.60977e-06
11.5858
-1.59404e-06
11.586
-1.60464e-06
11.5862
-1.62936e-06
11.5865
-1.63089e-06
11.5868
-1.64869e-06
11.5872
-1.6391e-06
11.5876
-1.65462e-06
11.5879
-1.6435e-06
11.5883
-1.65134e-06
11.5886
-1.64069e-06
11.5889
-1.6415e-06
11.5892
-1.62894e-06
11.5894
-1.62304e-06
11.5895
-1.61091e-06
11.5895
-1.59966e-06
11.5895
-1.5734e-06
11.5894
-1.60095e-06
11.5891
-1.54894e-06
11.5887
-1.53951e-06
11.5883
-1.52481e-06
11.5877
-1.51154e-06
11.5871
-1.49466e-06
11.5863
-1.49281e-06
11.5855
-1.46552e-06
11.5847
-1.4842e-06
11.5838
-1.45626e-06
11.583
-1.47873e-06
11.5822
-1.46845e-06
11.5814
-1.48231e-06
11.5808
-1.491e-06
11.5802
-1.50822e-06
11.5798
-1.52141e-06
11.5795
-1.545e-06
11.5793
-1.55875e-06
11.5792
-1.55845e-06
11.5793
-1.71869e-06
11.5795
-1.54806e-06
11.5798
-1.6003e-06
11.5802
-1.65675e-06
11.5806
-1.65613e-06
11.5811
-1.6721e-06
11.5817
-1.66803e-06
11.5822
-1.67824e-06
11.5827
-1.67239e-06
11.5833
-1.68003e-06
11.5838
-1.67073e-06
11.5843
-1.67346e-06
11.5847
-1.66094e-06
11.5851
-1.66238e-06
11.5854
-1.63397e-06
11.5855
-1.64814e-06
11.5856
-1.57586e-06
11.5854
-1.40632e-06
11.5851
-1.90136e-06
11.5847
-1.30321e-06
11.584
-1.21354e-06
11.5832
4.20878e-07
11.5822
1.31107e-05
11.581
9.95468e-05
11.5793
0.000703919
11.5747
0.00490729
11.5508
0.0339776
11.4005
0.239261
1.12406
10.7215
139.134
-0.000260454
139.134
-0.000215393
139.135
-0.000189761
139.135
-0.000194057
139.135
-0.000195311
139.135
-0.000194754
139.134
-0.000194532
139.133
-0.000194566
139.132
-0.000194566
139.131
-0.000194579
139.129
-0.000194598
139.127
-0.000194625
139.125
-0.000194661
139.122
-0.000194697
139.12
-0.00019477
139.117
-0.000194828
139.114
-0.000195062
139.112
-0.000194849
139.109
-0.000195058
139.106
-0.000195152
139.104
-0.000195238
139.101
-0.000195323
139.099
-0.000195409
139.096
-0.000195497
139.094
-0.000195585
139.093
-0.000195678
139.091
-0.000195779
139.091
-0.000195873
139.091
-0.000195982
139.091
-0.00019609
139.091
-0.000196199
139.092
-0.000196316
139.094
-0.000196424
139.095
-0.000196528
139.097
-0.00019662
139.098
-0.000196695
139.1
-0.00019674
139.101
-0.000196744
139.103
-0.000196686
139.104
-0.000196541
139.105
-0.000196269
139.106
-0.000195858
139.106
-0.000195224
139.107
-0.000194317
139.107
-0.000193075
139.107
-0.000191408
139.107
-0.000189252
139.106
-0.000186514
139.105
-0.000183118
139.103
-0.000178996
139.101
-0.000174095
139.099
-0.000168381
139.096
-0.000161847
139.094
-0.000154497
139.091
-0.00014648
139.089
-0.000137698
139.086
-0.000128411
139.084
-0.000118697
139.082
-0.00010871
139.08
-9.86118e-05
139.079
-8.85683e-05
139.078
-7.87184e-05
139.077
-6.92357e-05
139.077
-6.02279e-05
139.077
-5.18008e-05
139.078
-4.40453e-05
139.079
-3.69951e-05
139.08
-3.06791e-05
139.082
-2.51089e-05
139.084
-2.02612e-05
139.086
-1.61006e-05
139.088
-1.25767e-05
139.091
-9.62975e-06
139.093
-7.20143e-06
139.095
-5.22487e-06
139.097
-3.63687e-06
139.099
-2.3772e-06
139.1
-1.39092e-06
139.101
-6.29655e-07
139.101
-4.516e-08
139.101
3.93848e-07
139.101
7.16909e-07
139.1
9.56993e-07
139.099
1.13065e-06
139.097
1.25538e-06
139.095
1.34324e-06
139.092
1.40479e-06
139.089
1.44832e-06
139.086
1.47848e-06
139.083
1.49943e-06
139.08
1.51538e-06
139.076
1.52735e-06
139.073
1.53729e-06
139.071
1.5459e-06
139.068
1.55413e-06
139.066
1.56217e-06
139.065
1.57022e-06
139.064
1.57866e-06
139.064
1.58035e-06
139.064
1.59658e-06
139.065
1.60332e-06
139.066
1.61011e-06
139.068
1.61646e-06
139.07
1.62197e-06
139.073
1.62622e-06
139.076
1.62912e-06
139.079
1.63121e-06
139.082
1.63123e-06
139.086
1.63025e-06
139.089
1.62745e-06
139.091
1.62344e-06
139.094
1.61772e-06
139.096
1.61122e-06
139.097
1.60334e-06
139.098
1.59459e-06
139.098
1.58548e-06
139.097
1.58162e-06
139.096
1.56465e-06
139.094
1.5555e-06
139.091
1.54619e-06
139.087
1.53796e-06
139.083
1.53039e-06
139.078
1.52339e-06
139.073
1.51808e-06
139.067
1.5146e-06
139.061
1.51257e-06
139.056
1.51513e-06
139.05
1.51456e-06
139.045
1.52119e-06
139.04
1.52763e-06
139.036
1.53628e-06
139.033
1.54614e-06
139.031
1.55719e-06
139.029
1.56893e-06
139.029
1.58054e-06
139.029
1.5844e-06
139.03
1.60759e-06
139.032
1.61819e-06
139.035
1.62378e-06
139.038
1.63507e-06
139.042
1.63898e-06
139.046
1.64834e-06
139.051
1.645e-06
139.055
1.65202e-06
139.06
1.63819e-06
139.064
1.65281e-06
139.067
1.63563e-06
139.07
1.63393e-06
139.073
1.61993e-06
139.074
1.61472e-06
139.075
1.59674e-06
139.074
1.58866e-06
139.072
1.58163e-06
139.069
1.55072e-06
139.065
1.54255e-06
139.06
1.52682e-06
139.053
1.50654e-06
139.045
1.50693e-06
139.036
1.4628e-06
139.027
1.51493e-06
139.017
1.42465e-06
139.006
1.50914e-06
138.996
1.43589e-06
138.986
1.4996e-06
138.977
1.46975e-06
138.969
1.49768e-06
138.963
1.49513e-06
138.957
1.53953e-06
138.954
1.52803e-06
138.951
1.58319e-06
138.951
1.65037e-06
138.952
1.20929e-06
138.954
1.84837e-06
138.958
1.75877e-06
138.962
1.59047e-06
138.968
1.67971e-06
138.974
1.6274e-06
138.98
1.71006e-06
138.986
1.64559e-06
138.993
1.70296e-06
138.999
1.65767e-06
139.006
1.69271e-06
139.011
1.65698e-06
139.017
1.67785e-06
139.021
1.62795e-06
139.024
1.69471e-06
139.026
1.55036e-06
139.027
1.51231e-06
139.025
2.51464e-06
139.022
-6.80325e-07
139.016
3.52758e-06
139.009
1.92473e-06
138.999
3.48951e-06
138.987
2.08239e-05
138.973
0.00013592
138.958
0.00096319
138.939
0.00687309
138.907
0.0494714
138.74
0.389909
1.67397
138.173
11.5945
-0.000327728
11.5945
-0.000234939
11.5946
-0.0002248
11.5946
-0.000226677
11.5946
-0.000227126
11.5946
-0.000226953
11.5945
-0.000226793
11.5945
-0.000226841
11.5944
-0.000226851
11.5943
-0.000226853
11.5941
-0.000226864
11.5939
-0.000226887
11.5938
-0.000226921
11.5935
-0.000226946
11.5933
-0.000227028
11.5931
-0.000227071
11.5929
-0.000227456
11.5926
-0.000226976
11.5924
-0.000227322
11.5922
-0.000227413
11.592
-0.0002275
11.5918
-0.000227586
11.5916
-0.000227674
11.5914
-0.000227763
11.5912
-0.000227854
11.5911
-0.000227948
11.591
-0.000228049
11.5909
-0.000228151
11.5909
-0.000228262
11.5909
-0.000228376
11.5909
-0.000228489
11.591
-0.000228611
11.5911
-0.000228725
11.5913
-0.000228832
11.5914
-0.000228926
11.5915
-0.000228999
11.5917
-0.00022904
11.5918
-0.000229031
11.5919
-0.000228951
11.592
-0.00022877
11.5921
-0.000228442
11.5921
-0.000227975
11.5922
-0.000227187
11.5922
-0.000226148
11.5923
-0.000224698
11.5923
-0.000222759
11.5922
-0.000220254
11.5922
-0.000217076
11.592
-0.000213137
11.5919
-0.000208357
11.5917
-0.000202675
11.5916
-0.000196051
11.5914
-0.000188477
11.5911
-0.000179939
11.5909
-0.000170672
11.5907
-0.000160456
11.5905
-0.000149687
11.5903
-0.000138406
11.5902
-0.000126804
11.59
-0.000115066
11.5899
-0.000103387
11.5898
-9.19261e-05
11.5898
-8.08906e-05
11.5897
-7.03924e-05
11.5898
-6.05724e-05
11.5898
-5.15292e-05
11.5899
-4.3303e-05
11.59
-3.59278e-05
11.5901
-2.94196e-05
11.5903
-2.37551e-05
11.5905
-1.88876e-05
11.5907
-1.47624e-05
11.5909
-1.13128e-05
11.5911
-8.46639e-06
11.5912
-6.14845e-06
11.5914
-4.28473e-06
11.5915
-2.8054e-06
11.5917
-1.64601e-06
11.5917
-7.49396e-07
11.5918
-6.15964e-08
11.5918
4.55115e-07
11.5917
8.34298e-07
11.5917
1.11606e-06
11.5916
1.31931e-06
11.5914
1.46499e-06
11.5912
1.56725e-06
11.591
1.63923e-06
11.5908
1.68954e-06
11.5905
1.72462e-06
11.5902
1.74909e-06
11.59
1.76758e-06
11.5897
1.78129e-06
11.5894
1.79295e-06
11.5892
1.80287e-06
11.589
1.81248e-06
11.5889
1.82181e-06
11.5887
1.83116e-06
11.5887
1.84168e-06
11.5886
1.84112e-06
11.5887
1.86355e-06
11.5887
1.86922e-06
11.5888
1.87778e-06
11.589
1.88506e-06
11.5892
1.89162e-06
11.5894
1.89643e-06
11.5897
1.89988e-06
11.5899
1.90227e-06
11.5902
1.90227e-06
11.5905
1.90128e-06
11.5907
1.89786e-06
11.591
1.89329e-06
11.5912
1.88648e-06
11.5913
1.87902e-06
11.5914
1.86978e-06
11.5915
1.85963e-06
11.5915
1.84851e-06
11.5914
1.84596e-06
11.5913
1.82311e-06
11.5911
1.81456e-06
11.5909
1.80309e-06
11.5906
1.79355e-06
11.5902
1.7847e-06
11.5898
1.7765e-06
11.5894
1.77045e-06
11.5889
1.76623e-06
11.5884
1.76401e-06
11.588
1.76581e-06
11.5875
1.76717e-06
11.5871
1.77414e-06
11.5867
1.78131e-06
11.5863
1.79165e-06
11.5861
1.80305e-06
11.5859
1.81595e-06
11.5857
1.82967e-06
11.5857
1.84277e-06
11.5857
1.85119e-06
11.5858
1.87245e-06
11.586
1.88439e-06
11.5862
1.89538e-06
11.5865
1.90593e-06
11.5868
1.91324e-06
11.5872
1.92036e-06
11.5876
1.92083e-06
11.5879
1.92411e-06
11.5883
1.91756e-06
11.5886
1.92037e-06
11.5889
1.90958e-06
11.5892
1.90373e-06
11.5894
1.89112e-06
11.5895
1.88071e-06
11.5895
1.86425e-06
11.5895
1.85397e-06
11.5894
1.83903e-06
11.5891
1.8131e-06
11.5887
1.79743e-06
11.5883
1.77975e-06
11.5877
1.76008e-06
11.5871
1.74971e-06
11.5863
1.72503e-06
11.5855
1.73511e-06
11.5847
1.70016e-06
11.5838
1.72623e-06
11.583
1.70205e-06
11.5822
1.72681e-06
11.5814
1.72301e-06
11.5808
1.74159e-06
11.5802
1.75298e-06
11.5798
1.78232e-06
11.5795
1.79432e-06
11.5793
1.82952e-06
11.5792
1.86801e-06
11.5793
1.73101e-06
11.5795
1.96386e-06
11.5798
1.94848e-06
11.5802
1.90229e-06
11.5806
1.94116e-06
11.5811
1.93016e-06
11.5817
1.96325e-06
11.5822
1.94369e-06
11.5827
1.96377e-06
11.5833
1.94909e-06
11.5838
1.95899e-06
11.5843
1.94276e-06
11.5847
1.94554e-06
11.5851
1.92159e-06
11.5854
1.93426e-06
11.5855
1.87341e-06
11.5856
1.84768e-06
11.5854
2.16314e-06
11.5851
1.08331e-06
11.5847
2.46074e-06
11.584
1.91839e-06
11.5832
2.42205e-06
11.5822
8.31488e-06
11.5812
4.75498e-05
11.5806
0.000330009
11.5837
0.00236661
11.6141
0.017677
11.8124
0.190169
0.722695
12.7623
5.79687
5.79664
5.79641
5.79618
5.79594
5.79569
5.79542
5.79515
5.79486
5.79456
5.79425
5.79392
5.79358
5.79324
5.79288
5.79252
5.79217
5.79182
5.79146
5.79111
5.79076
5.7904
5.79005
5.78971
5.78939
5.78908
5.78878
5.78851
5.78825
5.78802
5.7878
5.78759
5.7874
5.78722
5.78704
5.78686
5.78668
5.7865
5.78631
5.78611
5.78591
5.7857
5.78549
5.78527
5.78504
5.7848
5.78455
5.78428
5.784
5.78371
5.78341
5.78311
5.7828
5.7825
5.78221
5.78194
5.78167
5.78143
5.78121
5.78102
5.78085
5.78071
5.78059
5.78051
5.78045
5.78043
5.78042
5.78044
5.78048
5.78054
5.78061
5.78068
5.78077
5.78085
5.78094
5.78101
5.78108
5.78113
5.78117
5.7812
5.7812
5.78118
5.78115
5.78109
5.78102
5.78092
5.78082
5.7807
5.78057
5.78044
5.7803
5.78017
5.78005
5.77994
5.77985
5.77977
5.77971
5.77968
5.77967
5.77968
5.77972
5.77977
5.77985
5.77995
5.78007
5.78019
5.78033
5.78046
5.7806
5.78073
5.78085
5.78095
5.78103
5.78109
5.78113
5.78113
5.7811
5.78105
5.78096
5.78084
5.78069
5.78051
5.78031
5.78009
5.77986
5.77962
5.77938
5.77916
5.77894
5.77875
5.77859
5.77845
5.77835
5.77829
5.77827
5.77829
5.77834
5.77843
5.77854
5.77869
5.77885
5.77903
5.77921
5.7794
5.77959
5.77976
5.77992
5.78005
5.78015
5.78021
5.78023
5.78021
5.78014
5.78002
5.77984
5.77961
5.77933
5.77901
5.77864
5.77825
5.77783
5.77741
5.77698
5.77658
5.77621
5.77587
5.7756
5.77538
5.77522
5.77514
5.77512
5.77517
5.77527
5.77542
5.77561
5.77583
5.77608
5.77634
5.77661
5.77689
5.77716
5.77742
5.77767
5.77789
5.77808
5.77822
5.7783
5.77832
5.77826
5.77812
5.77789
5.77757
5.77716
5.77667
5.77615
5.77585
5.77754
5.79452
5.98399
6.706
5.09559
0.12665
5.10439
-0.00895666
5.10394
0.000286755
5.11451
-0.0107311
5.13925
-0.0248851
5.16973
-0.0306184
5.18467
-0.0150386
5.16206
0.0225905
5.12056
0.0417436
5.16757
-0.046173
5.40617
-0.238145
5.76483
-0.359073
6.07309
-0.309538
6.15038
-0.0797634
6.05983
0.088928
5.90356
0.155411
5.70526
0.197608
5.51253
0.192158
5.48987
0.022623
-1.04132
6.53235
10.6688
0.179025
10.6917
-0.0321117
10.7466
-0.0549016
10.8149
-0.0794031
10.9054
-0.115647
11.0103
-0.13577
11.0875
-0.0924749
11.0907
0.0193722
11.0379
0.0950355
11.1229
-0.129336
11.5627
-0.677186
12.2678
-1.06521
12.9681
-1.01302
13.2856
-0.402028
13.2659
0.105845
13.0629
0.357009
12.6892
0.570309
12.1868
0.693798
11.7587
0.450772
-2.33983
13.0598
138.224
0.125138
138.298
-0.108686
138.3
-0.0598961
138.127
0.0909867
137.78
0.22871
137.319
0.322614
136.851
0.37434
136.5
0.366108
136.196
0.396524
135.692
0.370013
134.642
0.369463
133.23
0.346624
131.903
0.316962
131.224
0.280552
131.09
0.24175
131.244
0.201684
131.652
0.159288
132.235
0.108348
132.645
0.0358411
-0.158682
130.458
12.7055
0.181856
12.6041
-0.00749696
12.5536
-0.0096585
12.6221
0.022255
12.7946
0.0558098
13.034
0.0828174
13.307
0.100573
13.5711
0.102386
13.8559
0.111187
14.12
0.10619
14.3845
0.104901
14.6338
0.0973836
14.8651
0.0855456
15.0754
0.0702149
15.2644
0.0528368
15.4323
0.0338349
15.5803
0.0113385
15.7084
-0.0198009
15.8204
-0.0760818
-0.252796
15.9146
6.88777
6.88017
6.87041
6.89253
6.94818
7.03077
7.13108
7.23351
7.34454
7.4508
7.55571
7.65308
7.7386
7.80881
7.86165
7.8955
7.90687
7.8871
7.81106
7.55831
7.91897
-1.38807
7.98563
-0.0678767
7.88188
0.104059
7.8937
-0.0108948
7.97274
-0.0785608
8.02037
-0.0475048
8.02202
-0.00135694
8.00984
0.0126124
8.00343
0.00677713
8.00382
-7.38964e-05
8.0048
-0.000637045
8.00476
0.000378234
8.00419
0.000874729
8.00395
0.000485818
8.00433
-0.000167938
8.00473
-0.000246132
8.00459
0.000250796
8.0039
0.000732663
8.00265
0.00122999
8.00081
0.00175397
7.99835
0.00230626
7.99529
0.00284191
7.9917
0.00332144
7.98765
0.00371383
7.98326
0.00400542
7.97864
0.00419535
7.97388
0.0042895
7.96909
0.00429656
7.96434
0.00422568
7.95972
0.00408605
7.95527
0.00388731
7.95107
0.00363996
7.94714
0.00335518
7.94353
0.0030452
7.94024
0.00272384
7.93726
0.00240532
7.93459
0.00210721
7.9322
0.00184482
7.93002
0.00163274
7.92801
0.00148322
7.92609
0.00140215
7.9242
0.00139084
7.92228
0.0014476
7.92028
0.00155599
7.91819
0.00167358
7.91611
0.00170239
7.91443
0.00132541
7.91469
-0.000577888
7.92035
-0.00591914
7.9295
-0.00941034
7.93723
-0.00797362
7.94073
-0.00373101
7.94019
0.000358915
7.93754
0.00249384
7.93483
0.00259497
7.93224
0.00247849
7.92983
0.00231759
7.92744
0.00229441
7.92487
0.0024738
7.92188
0.00287631
7.91813
0.00361068
7.9133
0.00467924
7.90697
0.00613499
7.89874
0.00800921
7.88817
0.0103147
7.87483
0.0130408
7.85834
0.0161509
7.83836
0.0195955
7.81461
0.0233164
7.78683
0.0272968
7.75472
0.0315641
7.71788
0.0362137
7.67576
0.0414452
7.62756
0.0474956
7.57222
0.0546022
7.50851
0.0629401
7.43515
0.072543
7.3509
0.083322
7.25476
0.0948574
7.14673
0.106116
7.02822
0.116924
6.90133
0.125724
6.76891
0.131487
6.63506
0.133316
6.50399
0.131297
6.37939
0.124495
6.26469
0.114259
6.1625
0.101498
6.07424
0.0874356
6.00015
0.0732403
5.93947
0.0598287
5.89081
0.0477919
5.85253
0.037468
5.82287
0.0288883
5.80019
0.0219566
5.78302
0.0164822
5.77014
0.0122377
5.76052
0.0089991
5.75338
0.00655955
5.74809
0.00474213
5.74416
0.0034024
5.74122
0.00242349
5.73902
0.00171419
5.73734
0.00120423
5.73603
0.000840294
5.73499
0.000582416
5.73412
0.00040096
5.73338
0.00027415
5.7327
0.000186125
5.73208
0.000125433
5.73147
8.38647e-05
5.73085
5.55848e-05
5.73023
3.64725e-05
5.72958
2.36416e-05
5.7289
1.50852e-05
5.72819
9.41768e-06
5.72743
5.68911e-06
5.72663
3.25304e-06
5.72579
1.67169e-06
5.7249
6.51653e-07
5.72397
-1.02045e-09
5.723
-4.16017e-07
5.72199
-6.78418e-07
5.72095
-8.41925e-07
5.71989
-9.45962e-07
5.71879
-1.01175e-06
5.71768
-1.05416e-06
5.71655
-1.08233e-06
5.71542
-1.10201e-06
5.71428
-1.11682e-06
5.71314
-1.1289e-06
5.71201
-1.14013e-06
5.71089
-1.15001e-06
5.70978
-1.15846e-06
5.7087
-1.16542e-06
5.70763
-1.17157e-06
5.70659
-1.17787e-06
5.70557
-1.18422e-06
5.70458
-1.19007e-06
5.70362
-1.19496e-06
5.70269
-1.19879e-06
5.7018
-1.20157e-06
5.70093
-1.2033e-06
5.7001
-1.20386e-06
5.6993
-1.20326e-06
5.69853
-1.20143e-06
5.69778
-1.1983e-06
5.69706
-1.19382e-06
5.69637
-1.18771e-06
5.69569
-1.18028e-06
5.69503
-1.17034e-06
5.69438
-1.15996e-06
5.69374
-1.14655e-06
5.69309
-1.13304e-06
5.69244
-1.11651e-06
5.69178
-1.09899e-06
5.69109
-1.07978e-06
5.69039
-1.05958e-06
5.68965
-1.038e-06
5.68888
-1.01569e-06
5.68807
-9.93046e-07
5.68723
-9.71893e-07
5.68634
-9.62062e-07
5.6854
-8.62794e-07
5.68443
-9.34628e-07
5.68341
-9.06204e-07
5.68235
-8.6004e-07
5.68125
-8.58296e-07
5.68012
-8.21796e-07
5.67896
-8.27848e-07
5.67778
-8.05834e-07
5.67658
-8.09338e-07
5.67538
-7.9693e-07
5.67417
-8.01723e-07
5.67295
-7.90713e-07
5.67175
-8.09483e-07
5.67055
-7.85407e-07
5.66936
-8.193e-07
5.66818
-7.92374e-07
5.66701
-8.23418e-07
5.66585
-8.0521e-07
5.6647
-8.24433e-07
5.66356
-8.13161e-07
5.66241
-8.22334e-07
5.66127
-8.14474e-07
5.66013
-8.18933e-07
5.65899
-8.09228e-07
5.65786
-8.14458e-07
5.65672
-8.11271e-07
5.65559
-8.50245e-07
5.65447
-1.02747e-06
5.65336
-1.98152e-06
5.65227
-6.89374e-06
5.65122
-3.2293e-05
5.6503
-0.000163591
5.65008
-0.000843708
5.65341
-0.00441288
5.67621
-0.0238958
5.84849
-0.173395
-0.673298
6.52063
15.2411
-3.57333
15.5148
-0.343645
15.2871
0.332304
15.2119
0.0661669
15.3105
-0.176132
15.4101
-0.146857
15.4272
-0.0178222
15.4022
0.0384482
15.3834
0.0263441
15.3796
0.00428208
15.3795
0.000226996
15.3778
0.00272426
15.3749
0.00438592
15.3728
0.00308952
15.3726
0.000431811
15.3734
-0.000766374
15.3739
-4.95249e-05
15.3738
0.00093332
15.373
0.00206143
15.3712
0.003368
15.3683
0.00486332
15.3643
0.00642074
15.3592
0.00790786
15.353
0.00920874
15.346
0.0102579
15.3383
0.0110322
15.3301
0.0115347
15.3217
0.0117825
15.3131
0.011798
15.3045
0.0116066
15.296
0.0112368
15.2878
0.0107207
15.2799
0.0100934
15.2724
0.00939409
15.2653
0.00866805
15.2586
0.00796342
15.2523
0.00734114
15.2461
0.00685807
15.2401
0.00657331
15.234
0.00653599
15.2276
0.00678945
15.2206
0.00735714
15.2128
0.00825121
15.2041
0.00944119
15.1941
0.0108183
15.1829
0.0120988
15.1712
0.0123435
15.1618
0.00811866
15.1639
-0.00858692
15.1784
-0.0243679
15.1972
-0.0272996
15.2125
-0.0194289
15.2204
-0.00786824
15.2218
0.000817371
15.2204
0.00379632
15.2171
0.0055729
15.2123
0.00686261
15.2061
0.00833368
15.1981
0.0102565
15.188
0.0127393
15.1752
0.0161339
15.159
0.0204615
15.1389
0.0258594
15.1141
0.0324127
15.0837
0.040136
15.0472
0.048973
15.0039
0.0587908
14.9533
0.0694175
14.895
0.080666
14.8288
0.0924418
14.7544
0.10482
14.6713
0.118041
14.5789
0.132583
14.476
0.149038
14.3612
0.167908
14.2331
0.189467
14.0903
0.213567
13.9316
0.239458
13.7575
0.265715
13.5702
0.290734
13.3726
0.312389
13.1685
0.327996
12.9631
0.335622
12.7622
0.334165
12.5706
0.322586
12.3924
0.301711
12.2316
0.273722
12.0905
0.241087
11.9697
0.206511
11.8688
0.17245
11.7861
0.140755
11.7197
0.112564
11.6671
0.0884715
11.626
0.0684678
11.5943
0.0522776
11.5699
0.0394451
11.5514
0.0294514
11.5374
0.0217807
11.5269
0.0159668
11.5189
0.0116092
11.5129
0.0083757
11.5083
0.00599791
11.5048
0.00426427
11.502
0.00301033
11.4998
0.00211033
11.498
0.00146919
11.4964
0.00101579
11.4951
0.000697469
11.4938
0.000475573
11.4926
0.000321989
11.4914
0.000216434
11.4902
0.000144398
11.489
9.55808e-05
11.4877
6.2729e-05
11.4863
4.07757e-05
11.4849
2.62075e-05
11.4834
1.66078e-05
11.4818
1.0327e-05
11.4801
6.24425e-06
11.4783
3.60891e-06
11.4765
1.92154e-06
11.4745
8.45768e-07
11.4725
1.64812e-07
11.4704
-2.58612e-07
11.4683
-5.27019e-07
11.4661
-6.94259e-07
11.4639
-7.99004e-07
11.4616
-8.64971e-07
11.4593
-9.07234e-07
11.4571
-9.35234e-07
11.4548
-9.548e-07
11.4525
-9.69735e-07
11.4503
-9.81609e-07
11.4481
-9.907e-07
11.4459
-9.97737e-07
11.4437
-1.00376e-06
11.4417
-1.00947e-06
11.4396
-1.01509e-06
11.4376
-1.02025e-06
11.4357
-1.0245e-06
11.4339
-1.02787e-06
11.4321
-1.03024e-06
11.4303
-1.03175e-06
11.4287
-1.03224e-06
11.4271
-1.03173e-06
11.4255
-1.03013e-06
11.424
-1.02747e-06
11.4226
-1.02358e-06
11.4212
-1.01832e-06
11.4198
-1.01235e-06
11.4185
-1.00276e-06
11.4172
-9.95509e-07
11.4159
-9.82371e-07
11.4146
-9.7171e-07
11.4133
-9.57279e-07
11.412
-9.42336e-07
11.4106
-9.25715e-07
11.4092
-9.08838e-07
11.4077
-8.89748e-07
11.4062
-8.71134e-07
11.4046
-8.51901e-07
11.4029
-8.37726e-07
11.4011
-8.55771e-07
11.3992
-5.76014e-07
11.3973
-8.81387e-07
11.3952
-8.28121e-07
11.3931
-7.30725e-07
11.3909
-7.56391e-07
11.3886
-6.82301e-07
11.3863
-7.22565e-07
11.384
-6.76929e-07
11.3816
-7.05167e-07
11.3791
-6.75738e-07
11.3767
-6.96421e-07
11.3743
-6.63987e-07
11.3719
-7.18331e-07
11.3695
-6.42037e-07
11.3671
-7.35598e-07
11.3647
-6.48257e-07
11.3624
-7.32337e-07
11.3601
-6.70521e-07
11.3578
-7.21755e-07
11.3555
-6.85843e-07
11.3532
-7.12756e-07
11.3509
-6.92095e-07
11.3486
-7.09435e-07
11.3464
-6.86937e-07
11.3441
-7.0899e-07
11.3418
-7.06073e-07
11.3395
-8.26476e-07
11.3373
-1.35197e-06
11.3351
-4.15835e-06
11.3329
-1.8585e-05
11.3308
-9.31585e-05
11.3289
-0.000478512
11.3284
-0.00247147
11.3347
-0.0128299
11.3756
-0.0670368
11.5738
-0.373788
-1.54317
12.4413
126.852
0.0460803
126.555
-0.0370632
126.855
0.0397763
126.862
0.0656509
126.654
0.0371195
126.51
0.0057533
126.513
-0.0123519
126.567
-0.0060489
126.605
-0.00290509
126.622
-0.00434368
126.636
-0.00550231
126.652
-0.00557335
126.669
-0.00508907
126.683
-0.00483789
126.694
-0.00499995
126.702
-0.00532066
126.71
-0.00552474
126.718
-0.00565752
126.726
-0.00579126
126.734
-0.00595315
126.741
-0.00612494
126.749
-0.0062923
126.757
-0.00645738
126.765
-0.00662397
126.773
-0.00679153
126.78
-0.00694569
126.788
-0.00707101
126.795
-0.00714957
126.801
-0.00716842
126.807
-0.00711951
126.811
-0.00700167
126.815
-0.00682007
126.818
-0.00658242
126.82
-0.00629883
126.821
-0.00597884
126.821
-0.00562487
126.82
-0.00524389
126.819
-0.00483511
126.817
-0.0043918
126.814
-0.00394631
126.812
-0.00344912
126.811
-0.00290061
126.81
-0.00227023
126.81
-0.00147455
126.811
-0.000781265
126.814
-0.000110533
126.817
0.000351508
126.816
0.000724215
126.799
0.000416802
126.77
-0.00186753
126.742
-0.00511781
126.724
-0.00705125
126.72
-0.00782157
126.725
-0.00799224
126.734
-0.0084707
126.747
-0.0096013
126.763
-0.0115451
126.784
-0.0144113
126.815
-0.0183319
126.857
-0.0234529
126.908
-0.0303582
126.971
-0.039315
127.049
-0.050863
127.147
-0.0655464
127.268
-0.0838676
127.418
-0.106201
127.602
-0.132676
127.826
-0.162991
128.093
-0.196287
128.405
-0.231024
128.762
-0.265065
129.162
-0.295831
129.6
-0.320692
130.07
-0.337453
130.566
-0.345455
131.082
-0.344744
131.614
-0.336525
132.156
-0.322429
132.707
-0.304219
133.26
-0.28291
133.812
-0.259233
134.353
-0.234127
134.875
-0.207686
135.369
-0.181138
135.825
-0.155402
136.237
-0.131214
136.598
-0.109089
136.907
-0.0895089
137.166
-0.0726252
137.376
-0.0583397
137.544
-0.046466
137.674
-0.0367002
137.773
-0.0287441
137.846
-0.0223234
137.899
-0.017187
137.935
-0.0131177
137.96
-0.00992026
137.974
-0.00743438
137.982
-0.00552082
137.984
-0.00406248
137.983
-0.00296226
137.979
-0.0021404
137.973
-0.00153273
137.966
-0.00108779
137.958
-0.000765136
137.949
-0.000533406
137.939
-0.000368547
137.928