/*--------------------------------*- C++ -*----------------------------------*\
| =========                 |                                                 |
| \\      /  F ield         | OpenFOAM: The Open Source CFD Toolbox           |
|  \\    /   O peration     | Version:  3.0.x                                 |
|   \\  /    A nd           | Web:      www.OpenFOAM.org                      |
|    \\/     M anipulation  |                                                 |
\*---------------------------------------------------------------------------*/
FoamFile
{
    version     2.0;
    format      ascii;
    class       volScalarField;
    location    "0.40005";
    object      T;
}
// * * * * * * * * * * * * * * * * * * * * * * * * * * * * * * * * * * * * * //

dimensions      [0 0 0 1 0 0 0];

internalField   nonuniform List<scalar> 
13800
(
773.27
773.27
773.27
773.27
773.27
773.27
773.27
773.27
773.27
773.27
773.27
773.27
773.27
773.27
773.27
773.27
773.27
773.27
773.27
773.27
773.27
773.27
773.27
773.269
773.269
773.269
773.269
773.269
773.269
773.27
773.27
773.27
773.271
773.271
773.271
773.271
773.271
773.27
773.269
773.268
773.267
773.266
773.266
773.266
773.266
773.266
773.267
773.267
773.267
773.267
773.267
773.267
773.266
773.266
773.266
773.266
773.265
773.265
773.264
773.263
773.262
773.261
773.26
773.259
773.259
773.259
773.259
773.259
773.259
773.26
773.26
773.26
773.26
773.26
773.26
773.259
773.258
773.257
773.256
773.256
773.255
773.255
773.255
773.255
773.254
773.254
773.254
773.254
773.254
773.254
773.254
773.254
773.254
773.254
773.254
773.254
773.254
773.254
773.254
773.254
773.254
773.254
773.254
773.254
773.254
773.254
773.254
773.254
773.254
773.254
773.254
773.254
773.254
773.254
773.254
773.254
773.254
773.254
773.254
773.254
773.254
773.254
773.254
773.254
773.254
773.254
773.254
773.254
773.254
773.254
773.254
773.254
773.254
773.254
773.254
773.254
773.254
773.254
773.254
773.254
773.254
773.254
773.254
773.254
773.254
773.254
773.254
773.254
773.254
773.254
773.254
773.254
773.254
773.254
773.254
773.254
773.254
773.254
773.254
773.254
773.254
773.254
773.254
773.254
773.254
773.254
773.254
773.254
773.254
773.254
773.253
773.253
773.253
773.253
773.253
773.253
773.253
773.253
773.253
773.253
773.253
773.253
773.253
773.253
773.253
773.253
773.253
773.253
773.253
773.253
773.253
773.253
773.253
773.254
773.254
773.254
773.255
773.262
773.267
773.468
773.258
773.258
773.258
773.258
773.258
773.258
773.258
773.258
773.258
773.258
773.258
773.258
773.258
773.258
773.258
773.258
773.258
773.259
773.259
773.259
773.259
773.259
773.259
773.259
773.259
773.259
773.259
773.259
773.259
773.259
773.259
773.26
773.26
773.26
773.261
773.261
773.26
773.26
773.258
773.258
773.257
773.256
773.256
773.256
773.256
773.256
773.257
773.257
773.257
773.258
773.257
773.257
773.257
773.257
773.257
773.256
773.256
773.256
773.255
773.254
773.253
773.252
773.251
773.251
773.25
773.25
773.25
773.25
773.25
773.251
773.251
773.252
773.252
773.252
773.251
773.25
773.25
773.249
773.248
773.248
773.247
773.247
773.247
773.247
773.247
773.247
773.246
773.246
773.246
773.246
773.246
773.246
773.246
773.246
773.246
773.246
773.246
773.246
773.246
773.246
773.246
773.246
773.246
773.246
773.246
773.246
773.246
773.246
773.246
773.246
773.246
773.246
773.246
773.246
773.246
773.246
773.246
773.246
773.246
773.246
773.246
773.246
773.246
773.246
773.246
773.246
773.246
773.246
773.246
773.246
773.246
773.246
773.246
773.246
773.246
773.246
773.246
773.246
773.246
773.246
773.246
773.246
773.246
773.246
773.246
773.246
773.246
773.246
773.246
773.246
773.246
773.246
773.246
773.246
773.246
773.246
773.246
773.246
773.246
773.246
773.246
773.246
773.246
773.246
773.246
773.246
773.246
773.246
773.246
773.246
773.246
773.246
773.246
773.246
773.246
773.246
773.246
773.246
773.246
773.246
773.246
773.246
773.246
773.246
773.246
773.246
773.246
773.246
773.246
773.246
773.246
773.246
773.246
773.246
773.246
773.246
773.247
773.256
773.259
773.491
773.258
773.258
773.258
773.258
773.258
773.258
773.258
773.258
773.258
773.258
773.258
773.258
773.258
773.258
773.258
773.258
773.258
773.258
773.259
773.259
773.259
773.259
773.259
773.259
773.259
773.259
773.259
773.259
773.259
773.259
773.259
773.26
773.26
773.26
773.261
773.261
773.26
773.26
773.258
773.257
773.257
773.256
773.256
773.256
773.256
773.256
773.257
773.257
773.257
773.258
773.257
773.257
773.257
773.257
773.257
773.256
773.256
773.256
773.255
773.254
773.253
773.252
773.251
773.251
773.25
773.25
773.25
773.25
773.25
773.251
773.251
773.252
773.252
773.252
773.251
773.25
773.25
773.249
773.248
773.248
773.247
773.247
773.247
773.247
773.247
773.247
773.246
773.246
773.246
773.246
773.246
773.246
773.246
773.246
773.246
773.246
773.246
773.246
773.246
773.246
773.246
773.246
773.246
773.246
773.246
773.246
773.246
773.246
773.246
773.246
773.246
773.246
773.246
773.246
773.246
773.246
773.246
773.246
773.246
773.246
773.246
773.246
773.246
773.246
773.246
773.246
773.246
773.246
773.246
773.246
773.246
773.246
773.246
773.246
773.246
773.246
773.246
773.246
773.246
773.246
773.246
773.246
773.246
773.246
773.246
773.246
773.246
773.246
773.246
773.246
773.246
773.246
773.246
773.246
773.246
773.246
773.246
773.246
773.246
773.246
773.246
773.246
773.246
773.246
773.246
773.246
773.246
773.246
773.246
773.246
773.246
773.246
773.246
773.246
773.246
773.246
773.246
773.246
773.246
773.246
773.246
773.246
773.246
773.246
773.246
773.246
773.246
773.246
773.246
773.246
773.246
773.246
773.246
773.246
773.246
773.246
773.247
773.256
773.258
773.483
773.258
773.258
773.258
773.258
773.258
773.258
773.258
773.259
773.259
773.259
773.259
773.259
773.259
773.259
773.259
773.259
773.259
773.259
773.259
773.259
773.259
773.259
773.259
773.259
773.259
773.259
773.259
773.259
773.259
773.259
773.259
773.26
773.26
773.261
773.261
773.261
773.26
773.26
773.259
773.258
773.257
773.256
773.256
773.256
773.256
773.256
773.257
773.257
773.257
773.258
773.258
773.257
773.257
773.257
773.257
773.256
773.256
773.256
773.255
773.254
773.253
773.252
773.251
773.251
773.25
773.25
773.25
773.25
773.25
773.251
773.251
773.252
773.252
773.252
773.251
773.25
773.25
773.249
773.248
773.248
773.247
773.247
773.247
773.247
773.247
773.247
773.246
773.246
773.246
773.246
773.246
773.246
773.246
773.246
773.246
773.246
773.246
773.246
773.246
773.246
773.246
773.246
773.246
773.246
773.246
773.246
773.246
773.246
773.246
773.246
773.246
773.246
773.246
773.246
773.246
773.246
773.246
773.246
773.246
773.246
773.246
773.246
773.246
773.246
773.246
773.246
773.246
773.246
773.246
773.246
773.246
773.246
773.246
773.246
773.246
773.246
773.246
773.246
773.246
773.246
773.246
773.246
773.246
773.246
773.246
773.246
773.246
773.246
773.246
773.246
773.246
773.246
773.246
773.246
773.246
773.246
773.246
773.246
773.246
773.246
773.246
773.246
773.246
773.246
773.246
773.246
773.246
773.246
773.246
773.246
773.246
773.246
773.246
773.246
773.246
773.246
773.246
773.246
773.246
773.246
773.246
773.246
773.246
773.246
773.246
773.246
773.246
773.246
773.246
773.246
773.246
773.246
773.246
773.246
773.246
773.246
773.247
773.254
773.257
773.425
773.259
773.259
773.259
773.259
773.259
773.259
773.259
773.259
773.259
773.259
773.259
773.259
773.259
773.259
773.259
773.259
773.259
773.259
773.259
773.259
773.259
773.259
773.259
773.259
773.259
773.259
773.259
773.259
773.259
773.259
773.259
773.26
773.26
773.261
773.261
773.261
773.26
773.26
773.259
773.258
773.257
773.256
773.256
773.256
773.256
773.256
773.257
773.257
773.258
773.258
773.258
773.257
773.257
773.257
773.257
773.256
773.256
773.256
773.255
773.254
773.253
773.252
773.251
773.251
773.25
773.25
773.25
773.25
773.251
773.251
773.251
773.252
773.252
773.252
773.251
773.251
773.25
773.249
773.248
773.248
773.247
773.247
773.247
773.247
773.247
773.247
773.246
773.246
773.246
773.246
773.246
773.246
773.246
773.246
773.246
773.246
773.246
773.246
773.246
773.246
773.246
773.246
773.246
773.246
773.246
773.246
773.246
773.246
773.246
773.246
773.246
773.246
773.246
773.246
773.246
773.246
773.246
773.246
773.246
773.246
773.246
773.246
773.246
773.246
773.246
773.246
773.246
773.246
773.246
773.246
773.246
773.246
773.246
773.246
773.246
773.246
773.246
773.246
773.246
773.246
773.246
773.246
773.246
773.246
773.246
773.246
773.246
773.246
773.246
773.246
773.246
773.246
773.246
773.246
773.246
773.246
773.246
773.246
773.246
773.246
773.246
773.246
773.246
773.246
773.246
773.246
773.246
773.246
773.246
773.246
773.246
773.246
773.246
773.246
773.246
773.246
773.246
773.246
773.246
773.246
773.246
773.246
773.246
773.246
773.246
773.246
773.246
773.246
773.246
773.246
773.246
773.246
773.246
773.246
773.246
773.246
773.246
773.25
773.249
773.359
773.259
773.259
773.259
773.259
773.259
773.259
773.259
773.259
773.259
773.259
773.259
773.259
773.259
773.259
773.259
773.259
773.259
773.259
773.259
773.259
773.259
773.259
773.259
773.259
773.259
773.259
773.259
773.259
773.259
773.259
773.259
773.26
773.26
773.261
773.261
773.261
773.26
773.26
773.259
773.258
773.257
773.256
773.256
773.256
773.256
773.256
773.257
773.257
773.258
773.258
773.258
773.257
773.257
773.257
773.257
773.256
773.256
773.256
773.255
773.254
773.253
773.252
773.251
773.251
773.25
773.25
773.25
773.25
773.251
773.251
773.251
773.252
773.252
773.252
773.251
773.251
773.25
773.249
773.248
773.248
773.247
773.247
773.247
773.247
773.247
773.247
773.246
773.246
773.246
773.246
773.246
773.246
773.246
773.246
773.246
773.246
773.246
773.246
773.246
773.246
773.246
773.246
773.246
773.246
773.246
773.246
773.246
773.246
773.246
773.246
773.246
773.246
773.246
773.246
773.246
773.246
773.246
773.246
773.246
773.246
773.246
773.246
773.246
773.246
773.246
773.246
773.246
773.246
773.246
773.246
773.246
773.246
773.246
773.246
773.246
773.246
773.246
773.246
773.246
773.246
773.246
773.246
773.246
773.246
773.246
773.246
773.246
773.246
773.246
773.246
773.246
773.246
773.246
773.246
773.246
773.246
773.246
773.246
773.246
773.246
773.246
773.246
773.246
773.246
773.246
773.246
773.246
773.246
773.246
773.246
773.246
773.246
773.246
773.246
773.246
773.246
773.246
773.246
773.246
773.246
773.246
773.246
773.246
773.246
773.246
773.246
773.246
773.246
773.246
773.246
773.246
773.246
773.246
773.246
773.246
773.246
773.246
773.244
773.24
773.21
773.258
773.258
773.258
773.258
773.258
773.258
773.258
773.259
773.259
773.259
773.259
773.259
773.259
773.259
773.259
773.259
773.259
773.259
773.259
773.259
773.259
773.259
773.259
773.259
773.259
773.259
773.259
773.259
773.259
773.259
773.259
773.26
773.26
773.261
773.261
773.261
773.26
773.26
773.259
773.258
773.257
773.256
773.256
773.256
773.256
773.256
773.257
773.257
773.257
773.258
773.258
773.257
773.257
773.257
773.257
773.256
773.256
773.256
773.255
773.254
773.253
773.252
773.251
773.251
773.25
773.25
773.25
773.25
773.25
773.251
773.251
773.252
773.252
773.252
773.251
773.25
773.25
773.249
773.248
773.248
773.247
773.247
773.247
773.247
773.247
773.247
773.246
773.246
773.246
773.246
773.246
773.246
773.246
773.246
773.246
773.246
773.246
773.246
773.246
773.246
773.246
773.246
773.246
773.246
773.246
773.246
773.246
773.246
773.246
773.246
773.246
773.246
773.246
773.246
773.246
773.246
773.246
773.246
773.246
773.246
773.246
773.246
773.246
773.246
773.246
773.246
773.246
773.246
773.246
773.246
773.246
773.246
773.246
773.246
773.246
773.246
773.246
773.246
773.246
773.246
773.246
773.246
773.246
773.246
773.246
773.246
773.246
773.246
773.246
773.246
773.246
773.246
773.246
773.246
773.246
773.246
773.246
773.246
773.246
773.246
773.246
773.246
773.246
773.246
773.246
773.246
773.246
773.246
773.246
773.246
773.246
773.246
773.246
773.246
773.246
773.246
773.246
773.246
773.246
773.246
773.246
773.246
773.246
773.246
773.246
773.246
773.246
773.246
773.246
773.246
773.246
773.246
773.246
773.246
773.246
773.246
773.245
773.237
773.235
773.014
773.258
773.258
773.258
773.258
773.258
773.258
773.258
773.258
773.258
773.258
773.258
773.258
773.258
773.258
773.258
773.258
773.258
773.258
773.259
773.259
773.259
773.259
773.259
773.259
773.259
773.259
773.259
773.259
773.259
773.259
773.259
773.26
773.26
773.26
773.261
773.261
773.26
773.26
773.258
773.257
773.257
773.256
773.256
773.256
773.256
773.256
773.257
773.257
773.257
773.258
773.257
773.257
773.257
773.257
773.257
773.256
773.256
773.256
773.255
773.254
773.253
773.252
773.251
773.251
773.25
773.25
773.25
773.25
773.25
773.251
773.251
773.252
773.252
773.252
773.251
773.25
773.25
773.249
773.248
773.248
773.247
773.247
773.247
773.247
773.247
773.247
773.246
773.246
773.246
773.246
773.246
773.246
773.246
773.246
773.246
773.246
773.246
773.246
773.246
773.246
773.246
773.246
773.246
773.246
773.246
773.246
773.246
773.246
773.246
773.246
773.246
773.246
773.246
773.246
773.246
773.246
773.246
773.246
773.246
773.246
773.246
773.246
773.246
773.246
773.246
773.246
773.246
773.246
773.246
773.246
773.246
773.246
773.246
773.246
773.246
773.246
773.246
773.246
773.246
773.246
773.246
773.246
773.246
773.246
773.246
773.246
773.246
773.246
773.246
773.246
773.246
773.246
773.246
773.246
773.246
773.246
773.246
773.246
773.246
773.246
773.246
773.246
773.246
773.246
773.246
773.246
773.246
773.246
773.246
773.246
773.246
773.246
773.246
773.246
773.246
773.246
773.246
773.246
773.246
773.246
773.246
773.246
773.246
773.246
773.246
773.246
773.246
773.246
773.246
773.246
773.246
773.246
773.246
773.246
773.246
773.246
773.245
773.231
773.253
772.731
773.258
773.258
773.258
773.258
773.258
773.258
773.258
773.258
773.258
773.258
773.258
773.258
773.258
773.258
773.258
773.258
773.258
773.259
773.259
773.259
773.259
773.259
773.259
773.259
773.259
773.259
773.259
773.259
773.259
773.259
773.259
773.26
773.26
773.26
773.261
773.261
773.26
773.26
773.258
773.258
773.257
773.256
773.256
773.256
773.256
773.256
773.257
773.257
773.257
773.258
773.257
773.257
773.257
773.257
773.257
773.256
773.256
773.256
773.255
773.254
773.253
773.252
773.251
773.251
773.25
773.25
773.25
773.25
773.25
773.251
773.251
773.252
773.252
773.252
773.251
773.25
773.25
773.249
773.248
773.248
773.247
773.247
773.247
773.247
773.247
773.247
773.246
773.246
773.246
773.246
773.246
773.246
773.246
773.246
773.246
773.246
773.246
773.246
773.246
773.246
773.246
773.246
773.246
773.246
773.246
773.246
773.246
773.246
773.246
773.246
773.246
773.246
773.246
773.246
773.246
773.246
773.246
773.246
773.246
773.246
773.246
773.246
773.246
773.246
773.246
773.246
773.246
773.246
773.246
773.246
773.246
773.246
773.246
773.246
773.246
773.246
773.246
773.246
773.246
773.246
773.246
773.246
773.246
773.246
773.246
773.246
773.246
773.246
773.246
773.246
773.246
773.246
773.246
773.246
773.246
773.246
773.246
773.246
773.246
773.246
773.246
773.246
773.246
773.246
773.246
773.246
773.246
773.246
773.246
773.246
773.246
773.246
773.246
773.246
773.246
773.246
773.246
773.246
773.246
773.246
773.246
773.246
773.246
773.246
773.246
773.246
773.246
773.246
773.246
773.246
773.246
773.246
773.246
773.246
773.246
773.246
773.245
773.229
773.267
772.59
773.27
773.27
773.27
773.27
773.27
773.27
773.27
773.27
773.27
773.27
773.27
773.27
773.27
773.27
773.27
773.27
773.27
773.27
773.27
773.27
773.27
773.27
773.27
773.269
773.269
773.269
773.269
773.269
773.269
773.27
773.27
773.27
773.271
773.271
773.271
773.271
773.271
773.27
773.269
773.268
773.267
773.266
773.266
773.266
773.266
773.266
773.267
773.267
773.267
773.267
773.267
773.267
773.266
773.266
773.266
773.266
773.265
773.265
773.264
773.263
773.262
773.261
773.26
773.259
773.259
773.259
773.259
773.259
773.259
773.26
773.26
773.26
773.26
773.26
773.26
773.259
773.258
773.257
773.256
773.256
773.255
773.255
773.255
773.255
773.254
773.254
773.254
773.254
773.254
773.254
773.254
773.254
773.254
773.254
773.254
773.254
773.254
773.254
773.254
773.254
773.254
773.254
773.254
773.254
773.254
773.254
773.254
773.254
773.254
773.254
773.254
773.254
773.254
773.254
773.254
773.254
773.254
773.254
773.254
773.254
773.254
773.254
773.254
773.254
773.254
773.254
773.254
773.254
773.254
773.254
773.254
773.254
773.254
773.254
773.254
773.254
773.254
773.254
773.254
773.254
773.254
773.254
773.254
773.254
773.254
773.254
773.254
773.254
773.254
773.254
773.254
773.254
773.254
773.254
773.254
773.254
773.254
773.254
773.254
773.254
773.254
773.254
773.254
773.254
773.254
773.254
773.254
773.254
773.254
773.254
773.253
773.253
773.253
773.253
773.253
773.253
773.253
773.253
773.253
773.253
773.253
773.253
773.253
773.253
773.253
773.253
773.253
773.253
773.253
773.253
773.253
773.253
773.253
773.253
773.253
773.253
773.253
773.235
773.288
772.464
773.432
773.469
773.493
773.501
773.506
773.509
773.511
773.513
773.514
773.515
773.515
773.515
773.514
773.511
773.508
773.502
773.492
773.478
773.454
773.409
773.423
773.449
773.464
773.468
773.469
773.471
773.471
773.471
773.471
773.469
773.469
773.467
773.465
773.462
773.458
773.452
773.443
773.428
773.406
773.364
773.421
773.448
773.466
773.47
773.473
773.476
773.477
773.478
773.478
773.478
773.476
773.474
773.471
773.467
773.461
773.452
773.44
773.423
773.397
773.358
773.376
773.39
773.395
773.397
773.398
773.4
773.402
773.404
773.407
773.41
773.413
773.417
773.421
773.424
773.427
773.427
773.422
773.414
773.396
773.37
773.325
773.343
773.357
773.367
773.374
773.378
773.378
773.376
773.373
773.366
773.358
773.347
773.334
773.32
773.306
773.29
773.275
773.261
773.249
773.239
773.223
773.215
773.201
773.189
773.181
773.177
773.176
773.178
773.183
773.191
773.202
773.215
773.233
773.249
773.268
773.286
773.306
773.32
773.337
773.342
773.1
773.089
773.088
773.091
773.092
773.086
773.083
773.072
773.063
773.045
773.03
773.009
772.992
772.971
772.957
772.942
772.938
772.942
772.96
772.975
772.933
772.887
772.844
772.821
772.808
772.801
772.798
772.799
772.806
772.818
772.835
772.856
772.883
772.913
772.946
772.978
773.024
773.059
773.118
773.167
772.825
772.777
772.732
772.7
772.679
772.659
772.645
772.631
772.624
772.616
772.616
772.618
772.626
772.64
772.658
772.679
772.706
772.749
772.805
772.879
772.766
772.699
772.624
772.595
772.574
772.572
772.579
772.588
772.604
772.627
772.65
772.686
772.717
772.763
772.802
772.848
772.899
772.959
773.035
773.119
773.28
773.237
773.225
773.221
773.22
773.22
773.22
773.22
773.22
773.221
773.221
773.222
773.222
773.222
773.222
773.222
773.222
773.222
773.222
773.222
773.222
773.223
773.223
773.223
773.224
773.224
773.224
773.225
773.226
773.226
773.227
773.228
773.228
773.229
773.229
773.229
773.23
773.231
773.232
773.233
773.234
773.235
773.236
773.236
773.237
773.238
773.239
773.24
773.242
773.243
773.245
773.246
773.248
773.249
773.251
773.252
773.254
773.257
773.259
773.262
773.264
773.267
773.269
773.272
773.274
773.277
773.28
773.283
773.286
773.289
773.292
773.296
773.299
773.302
773.306
773.31
773.315
773.319
773.324
773.328
773.333
773.337
773.342
773.347
773.353
773.358
773.364
773.369
773.375
773.38
773.386
773.391
773.397
773.403
773.41
773.415
773.419
773.422
773.424
773.426
773.43
773.435
773.441
773.448
773.454
773.461
773.474
773.501
773.582
773.849
774.423
775.029
775.582
776.044
776.391
776.618
776.736
776.772
776.762
776.65
776.204
775.518
774.928
774.459
774.111
773.874
773.726
773.648
773.618
773.613
773.617
773.636
773.674
773.709
773.739
773.765
773.788
773.808
773.826
773.844
773.861
773.878
773.895
773.911
773.928
773.944
773.961
773.977
773.994
774.011
774.028
774.045
774.063
774.08
774.098
774.116
774.134
774.152
774.171
774.19
774.208
774.228
774.247
774.266
774.286
774.306
774.326
774.347
774.367
774.388
774.409
774.43
774.452
774.474
774.495
774.518
774.54
774.563
774.585
774.608
774.632
774.655
774.679
774.702
774.727
774.751
774.776
774.8
774.827
774.848
774.879
774.898
774.931
774.95
774.984
775.001
775.039
775.049
775.109
774.6
773.249
773.209
773.198
773.195
773.194
773.194
773.194
773.194
773.194
773.194
773.195
773.195
773.196
773.196
773.196
773.196
773.195
773.195
773.195
773.195
773.196
773.196
773.196
773.197
773.197
773.197
773.198
773.198
773.199
773.199
773.2
773.201
773.201
773.202
773.202
773.203
773.203
773.204
773.204
773.205
773.206
773.207
773.208
773.209
773.21
773.211
773.212
773.213
773.214
773.216
773.217
773.219
773.22
773.222
773.224
773.225
773.227
773.229
773.231
773.234
773.236
773.239
773.242
773.244
773.247
773.249
773.252
773.255
773.258
773.261
773.264
773.268
773.271
773.275
773.278
773.282
773.286
773.291
773.295
773.3
773.305
773.309
773.314
773.319
773.325
773.33
773.336
773.341
773.347
773.353
773.36
773.366
773.372
773.378
773.383
773.389
773.394
773.4
773.405
773.412
773.418
773.425
773.433
773.438
773.44
773.438
773.425
773.399
773.377
773.362
773.357
773.358
773.36
773.368
773.392
773.466
773.601
773.73
773.837
773.917
773.969
773.995
774.001
773.994
773.95
773.87
773.806
773.759
773.731
773.721
773.72
773.722
773.728
773.741
773.756
773.772
773.789
773.805
773.822
773.838
773.855
773.871
773.887
773.904
773.92
773.937
773.953
773.97
773.987
774.003
774.021
774.038
774.055
774.073
774.09
774.108
774.126
774.145
774.163
774.182
774.201
774.22
774.239
774.259
774.279
774.299
774.319
774.339
774.36
774.381
774.402
774.423
774.444
774.466
774.488
774.51
774.532
774.555
774.578
774.601
774.624
774.647
774.671
774.695
774.719
774.743
774.768
774.792
774.819
774.841
774.871
774.891
774.923
774.942
774.976
774.994
775.031
775.042
775.094
774.67
773.252
773.215
773.204
773.2
773.199
773.199
773.199
773.199
773.199
773.199
773.199
773.2
773.2
773.2
773.2
773.2
773.2
773.2
773.2
773.2
773.2
773.201
773.201
773.201
773.202
773.202
773.202
773.203
773.203
773.204
773.205
773.205
773.206
773.207
773.207
773.207
773.208
773.208
773.209
773.21
773.211
773.212
773.213
773.214
773.215
773.216
773.217
773.218
773.219
773.22
773.222
773.223
773.225
773.226
773.228
773.23
773.231
773.233
773.236
773.238
773.241
773.244
773.246
773.249
773.251
773.254
773.257
773.26
773.263
773.266
773.269
773.272
773.276
773.279
773.283
773.287
773.291
773.295
773.3
773.304
773.309
773.314
773.319
773.324
773.329
773.335
773.34
773.346
773.352
773.358
773.364
773.37
773.377
773.383
773.389
773.396
773.401
773.407
773.412
773.418
773.424
773.431
773.439
773.446
773.452
773.454
773.451
773.43
773.372
773.314
773.267
773.234
773.22
773.217
773.218
773.224
773.242
773.299
773.407
773.51
773.6
773.671
773.721
773.754
773.774
773.782
773.783
773.777
773.759
773.747
773.745
773.745
773.749
773.756
773.767
773.78
773.794
773.808
773.824
773.84
773.856
773.872
773.888
773.904
773.92
773.937
773.953
773.97
773.987
774.004
774.021
774.038
774.055
774.073
774.09
774.108
774.126
774.145
774.163
774.182
774.201
774.22
774.239
774.259
774.279
774.299
774.319
774.339
774.36
774.381
774.402
774.423
774.444
774.466
774.488
774.51
774.532
774.555
774.578
774.601
774.624
774.647
774.671
774.695
774.719
774.744
774.768
774.792
774.819
774.841
774.871
774.891
774.923
774.942
774.976
774.994
775.03
775.042
775.085
774.772
773.297
773.271
773.265
773.265
773.266
773.266
773.267
773.267
773.267
773.267
773.267
773.268
773.268
773.268
773.269
773.269
773.269
773.269
773.269
773.269
773.269
773.269
773.269
773.27
773.27
773.27
773.27
773.271
773.271
773.272
773.273
773.274
773.274
773.275
773.275
773.276
773.276
773.277
773.278
773.278
773.279
773.28
773.281
773.282
773.283
773.284
773.285
773.286
773.288
773.289
773.29
773.292
773.293
773.294
773.296
773.298
773.3
773.302
773.304
773.307
773.309
773.312
773.314
773.317
773.319
773.322
773.325
773.328
773.331
773.334
773.337
773.34
773.344
773.347
773.351
773.355
773.359
773.364
773.368
773.372
773.377
773.382
773.387
773.392
773.397
773.402
773.407
773.412
773.417
773.423
773.428
773.434
773.44
773.444
773.448
773.452
773.455
773.46
773.465
773.47
773.477
773.484
773.491
773.495
773.496
773.491
773.468
773.437
773.411
773.389
773.377
773.374
773.375
773.378
773.385
773.398
773.432
773.478
773.525
773.567
773.601
773.63
773.652
773.67
773.684
773.693
773.7
773.706
773.711
773.717
773.725
773.735
773.746
773.758
773.772
773.785
773.8
773.815
773.829
773.845
773.86
773.875
773.891
773.907
773.922
773.938
773.955
773.971
773.988
774.004
774.021
774.038
774.055
774.073
774.091
774.108
774.127
774.145
774.163
774.182
774.201
774.22
774.239
774.259
774.279
774.299
774.319
774.339
774.36
774.381
774.402
774.423
774.444
774.466
774.488
774.51
774.532
774.555
774.578
774.601
774.624
774.647
774.671
774.695
774.719
774.744
774.768
774.792
774.819
774.841
774.871
774.892
774.921
774.945
774.973
774.997
775.028
775.043
775.073
774.968
773.211
773.201
773.193
773.187
773.183
773.181
773.18
773.18
773.18
773.18
773.18
773.18
773.18
773.18
773.181
773.181
773.181
773.181
773.181
773.182
773.182
773.182
773.182
773.182
773.183
773.183
773.183
773.184
773.184
773.184
773.185
773.185
773.186
773.187
773.187
773.188
773.189
773.19
773.19
773.191
773.192
773.192
773.193
773.194
773.195
773.197
773.198
773.199
773.2
773.202
773.203
773.204
773.206
773.208
773.209
773.211
773.213
773.215
773.217
773.219
773.221
773.223
773.226
773.229
773.232
773.235
773.238
773.241
773.244
773.247
773.25
773.254
773.257
773.261
773.265
773.269
773.273
773.277
773.281
773.286
773.291
773.296
773.301
773.306
773.311
773.317
773.323
773.329
773.335
773.341
773.348
773.354
773.362
773.369
773.377
773.384
773.392
773.399
773.406
773.414
773.422
773.43
773.438
773.447
773.455
773.464
773.472
773.477
773.479
773.478
773.471
773.469
773.469
773.473
773.478
773.485
773.496
773.513
773.533
773.553
773.573
773.591
773.608
773.624
773.639
773.653
773.667
773.68
773.693
773.706
773.719
773.733
773.746
773.76
773.774
773.788
773.802
773.817
773.832
773.847
773.862
773.877
773.892
773.908
773.923
773.939
773.955
773.971
773.988
774.005
774.021
774.038
774.056
774.073
774.091
774.109
774.127
774.145
774.163
774.182
774.201
774.22
774.239
774.259
774.279
774.299
774.319
774.339
774.36
774.381
774.402
774.423
774.444
774.466
774.488
774.51
774.532
774.555
774.578
774.601
774.624
774.647
774.671
774.695
774.719
774.743
774.768
774.792
774.818
774.844
774.867
774.896
774.919
774.946
774.973
774.997
775.027
775.049
775.078
775.091
773.363
773.376
773.386
773.393
773.398
773.4
773.401
773.401
773.402
773.402
773.402
773.402
773.402
773.403
773.403
773.404
773.404
773.404
773.404
773.404
773.404
773.404
773.404
773.404
773.405
773.405
773.405
773.405
773.406
773.407
773.407
773.408
773.409
773.409
773.41
773.41
773.411
773.412
773.412
773.413
773.414
773.415
773.416
773.416
773.417
773.418
773.419
773.421
773.422
773.423
773.424
773.425
773.427
773.428
773.43
773.432
773.434
773.436
773.438
773.44
773.442
773.444
773.447
773.449
773.452
773.454
773.457
773.46
773.462
773.465
773.468
773.47
773.473
773.475
773.478
773.481
773.484
773.488
773.491
773.493
773.496
773.498
773.5
773.503
773.506
773.509
773.512
773.515
773.517
773.519
773.521
773.522
773.522
773.523
773.525
773.528
773.533
773.538
773.544
773.55
773.555
773.557
773.556
773.546
773.529
773.512
773.497
773.483
773.473
773.464
773.46
773.46
773.462
773.467
773.473
773.481
773.494
773.513
773.534
773.555
773.577
773.597
773.615
773.632
773.648
773.663
773.677
773.691
773.704
773.717
773.73
773.743
773.756
773.769
773.782
773.795
773.809
773.822
773.836
773.851
773.865
773.88
773.894
773.91
773.925
773.94
773.956
773.972
773.989
774.005
774.022
774.039
774.056
774.073
774.091
774.109
774.127
774.145
774.163
774.182
774.201
774.22
774.239
774.259
774.279
774.299
774.319
774.339
774.36
774.381
774.402
774.423
774.444
774.466
774.488
774.51
774.532
774.555
774.578
774.601
774.624
774.648
774.671
774.695
774.719
774.744
774.767
774.794
774.816
774.845
774.866
774.896
774.917
774.949
774.969
775.003
775.022
775.06
775.081
775.173
773.059
773.084
773.084
773.083
773.082
773.082
773.081
773.081
773.081
773.081
773.081
773.081
773.081
773.081
773.082
773.082
773.082
773.082
773.083
773.083
773.083
773.084
773.084
773.084
773.084
773.085
773.085
773.085
773.085
773.086
773.087
773.087
773.088
773.088
773.089
773.089
773.09
773.091
773.092
773.092
773.093
773.094
773.095
773.096
773.097
773.098
773.099
773.101
773.102
773.103
773.105
773.107
773.108
773.11
773.112
773.114
773.116
773.118
773.12
773.122
773.124
773.127
773.129
773.132
773.135
773.138
773.141
773.144
773.147
773.15
773.153
773.156
773.159
773.163
773.167
773.171
773.175
773.179
773.183
773.187
773.192
773.197
773.202
773.207
773.213
773.218
773.224
773.23
773.236
773.242
773.248
773.254
773.261
773.268
773.275
773.283
773.29
773.298
773.307
773.316
773.325
773.336
773.345
773.353
773.36
773.371
773.385
773.401
773.417
773.432
773.445
773.455
773.462
773.463
773.46
773.453
773.452
773.454
773.457
773.466
773.486
773.516
773.548
773.579
773.606
773.631
773.653
773.673
773.691
773.707
773.723
773.738
773.752
773.767
773.781
773.794
773.808
773.822
773.836
773.851
773.865
773.88
773.895
773.91
773.925
773.941
773.956
773.972
773.989
774.005
774.022
774.039
774.056
774.073
774.091
774.109
774.127
774.145
774.163
774.182
774.201
774.22
774.239
774.259
774.279
774.299
774.319
774.339
774.36
774.381
774.402
774.423
774.444
774.466
774.488
774.51
774.532
774.555
774.578
774.601
774.624
774.647
774.671
774.695
774.719
774.744
774.767
774.794
774.816
774.845
774.866
774.896
774.917
774.949
774.969
775.003
775.023
775.063
775.089
775.216
773.343
773.379
773.389
773.393
773.394
773.394
773.394
773.394
773.394
773.394
773.394
773.394
773.394
773.394
773.394
773.395
773.395
773.396
773.396
773.397
773.397
773.397
773.397
773.397
773.397
773.397
773.397
773.397
773.397
773.398
773.398
773.399
773.399
773.4
773.401
773.402
773.403
773.403
773.404
773.404
773.405
773.406
773.407
773.408
773.409
773.41
773.411
773.412
773.413
773.414
773.415
773.416
773.417
773.418
773.419
773.42
773.421
773.422
773.424
773.426
773.427
773.429
773.432
773.434
773.437
773.439
773.443
773.446
773.449
773.452
773.455
773.458
773.461
773.465
773.468
773.472
773.476
773.48
773.483
773.486
773.49
773.494
773.497
773.5
773.502
773.504