/*--------------------------------*- C++ -*----------------------------------*\
| =========                 |                                                 |
| \\      /  F ield         | OpenFOAM: The Open Source CFD Toolbox           |
|  \\    /   O peration     | Version:  3.0.x                                 |
|   \\  /    A nd           | Web:      www.OpenFOAM.org                      |
|    \\/     M anipulation  |                                                 |
\*---------------------------------------------------------------------------*/
FoamFile
{
    version     2.0;
    format      ascii;
    class       surfaceScalarField;
    location    "0.48";
    object      phi;
}
// * * * * * * * * * * * * * * * * * * * * * * * * * * * * * * * * * * * * * //

dimensions      [1 0 -1 0 0 0 0];

internalField   nonuniform List<scalar> 
52430
(
3.90628
0.000243636
3.90591
0.000176181
3.90555
0.000169105
3.90519
0.000170354
3.90483
0.000170771
3.90446
0.000170744
3.90409
0.000170697
3.90373
0.000170694
3.90336
0.000170702
3.90298
0.0001707
3.90261
0.000170698
3.90224
0.000170696
3.90186
0.000170694
3.90148
0.000170692
3.9011
0.000170689
3.90072
0.000170687
3.90033
0.000170685
3.89994
0.000170683
3.89955
0.000170681
3.89916
0.00017068
3.89876
0.000170678
3.89836
0.000170676
3.89795
0.000170675
3.89755
0.000170673
3.89713
0.000170672
3.89672
0.000170671
3.8963
0.00017067
3.89587
0.000170669
3.89545
0.000170668
3.89501
0.000170667
3.89458
0.000170667
3.89414
0.000170667
3.89369
0.000170666
3.89324
0.000170666
3.89278
0.000170666
3.89232
0.000170666
3.89185
0.000170667
3.89138
0.000170667
3.8909
0.000170668
3.89042
0.000170668
3.88993
0.000170669
3.88943
0.00017067
3.88893
0.000170672
3.88842
0.000170673
3.8879
0.000170675
3.88738
0.000170676
3.88685
0.000170678
3.88631
0.00017068
3.88577
0.000170683
3.88522
0.000170685
3.88466
0.000170688
3.88409
0.000170691
3.88352
0.000170693
3.88294
0.000170696
3.88235
0.0001707
3.88175
0.000170703
3.88115
0.000170706
3.88053
0.00017071
3.87991
0.000170714
3.87928
0.000170717
3.87864
0.000170721
3.87799
0.000170725
3.87733
0.000170729
3.87666
0.000170733
3.87599
0.000170737
3.8753
0.000170741
3.8746
0.000170745
3.8739
0.00017075
3.87318
0.000170754
3.87245
0.000170759
3.87172
0.000170764
3.87097
0.00017077
3.87021
0.000170775
3.86944
0.000170781
3.86866
0.000170786
3.86787
0.000170792
3.86707
0.000170798
3.86626
0.000170805
3.86543
0.000170812
3.8646
0.00017082
3.86375
0.000170828
3.86289
0.000170836
3.86203
0.000170844
3.86115
0.000170854
3.86026
0.000170864
3.85936
0.000170876
3.85844
0.000170888
3.85752
0.000170901
3.85658
0.000170914
3.85563
0.000170927
3.85466
0.00017094
3.85368
0.000170953
3.85269
0.000170967
3.85168
0.000170982
3.85067
0.000170996
3.84963
0.00017101
3.84859
0.000171023
3.84752
0.000171036
3.84645
0.000171049
3.84536
0.000171063
3.84426
0.000171077
3.84315
0.000171091
3.84202
0.000171106
3.84088
0.000171121
3.83972
0.000171137
3.83855
0.000171153
3.83737
0.00017117
3.83617
0.000171188
3.83496
0.000171206
3.83373
0.000171225
3.83249
0.000171243
3.83123
0.000171262
3.82996
0.000171281
3.82867
0.000171299
3.82737
0.000171317
3.82605
0.000171336
3.82472
0.000171355
3.82337
0.000171374
3.82201
0.000171393
3.82063
0.000171409
3.81924
0.000171423
3.81783
0.000171434
3.81641
0.00017144
3.81496
0.000171439
3.81351
0.000171431
3.81203
0.000171414
3.81054
0.000171385
3.80903
0.00017134
3.80751
0.000171274
3.80597
0.000171184
3.80441
0.000171065
3.80283
0.000170911
3.80124
0.000170718
3.79964
0.000170477
3.79801
0.00017018
3.79637
0.000169816
3.79472
0.000169375
3.79305
0.000168848
3.79136
0.000168222
3.78966
0.000167487
3.78794
0.000166627
3.78621
0.000165629
3.78446
0.000164478
3.78269
0.000163161
3.78091
0.000161664
3.77911
0.000159973
3.77729
0.000158077
3.77546
0.000155965
3.77362
0.000153629
3.77176
0.000151061
3.76988
0.000148255
3.76799
0.000145211
3.76608
0.000141927
3.76416
0.000138407
3.76222
0.000134657
3.76027
0.000130686
3.75831
0.000126507
3.75633
0.000122135
3.75434
0.000117589
3.75234
0.000112888
3.75032
0.000108057
3.74829
0.00010312
3.74624
9.81032e-05
3.74418
9.30355e-05
3.74211
8.79451e-05
3.74002
8.28605e-05
3.73793
7.78102e-05
3.73581
7.28218e-05
3.73368
6.79216e-05
3.73154
6.31346e-05
3.72939
5.84834e-05
3.72722
5.39888e-05
3.72503
4.96687e-05
3.72283
4.55386e-05
3.72062
4.16111e-05
3.71839
3.78959e-05
3.71614
3.44001e-05
3.71388
3.11278e-05
3.7116
2.80807e-05
3.7093
2.5258e-05
3.70699
2.26564e-05
3.70466
2.02711e-05
3.70232
1.80951e-05
3.69995
1.61201e-05
3.69757
1.43367e-05
3.69517
1.27344e-05
3.69275
1.13021e-05
3.69032
1.0028e-05
3.68786
8.90058e-06
3.68539
7.90782e-06
3.6829
7.0381e-06
3.68039
6.28002e-06
3.67785
5.62262e-06
3.6753
5.05547e-06
3.67273
4.56874e-06
3.67014
4.15323e-06
3.66753
3.80047e-06
3.6649
3.50264e-06
3.66226
3.25265e-06
3.65959
3.04409e-06
3.6569
2.87123e-06
3.65419
2.72894e-06
3.65146
2.61271e-06
3.64871
2.51857e-06
3.64594
2.44306e-06
3.64314
2.38317e-06
3.64033
2.33634e-06
3.6375
2.30033e-06
3.63465
2.27328e-06
3.63178
2.25358e-06
3.62888
2.2399e-06
3.62597
2.23111e-06
3.62303
2.22629e-06
3.62008
2.22466e-06
3.6171
2.22558e-06
3.6141
2.22854e-06
3.61108
2.23311e-06
3.60804
2.23895e-06
3.60498
2.24578e-06
3.6019
2.25338e-06
3.5988
2.26157e-06
3.59568
2.27021e-06
3.59253
2.27919e-06
3.58937
2.28842e-06
3.58618
2.29784e-06
3.58297
2.30739e-06
3.57974
2.31703e-06
3.57649
2.32671e-06
3.57322
2.33643e-06
3.56993
2.34615e-06
3.56661
2.35587e-06
3.56327
2.36558e-06
3.55992
2.37526e-06
3.55654
2.38491e-06
3.55314
2.39453e-06
3.54972
2.4041e-06
3.54627
2.41363e-06
3.54281
2.42312e-06
3.53932
2.43255e-06
3.53581
2.44194e-06
3.53228
2.45128e-06
3.52873
2.46056e-06
3.52516
2.46979e-06
3.52156
2.47896e-06
3.51795
2.48809e-06
3.51431
2.49717e-06
3.51065
2.50619e-06
3.50697
2.51516e-06
3.50326
2.52406e-06
3.49954
2.53289e-06
3.49579
2.54167e-06
3.49202
2.55038e-06
3.48823
2.55903e-06
3.48441
2.56763e-06
3.48058
2.57616e-06
3.47672
2.58464e-06
3.47284
2.59306e-06
3.46894
2.60143e-06
3.46502
2.60974e-06
3.46107
2.61797e-06
3.45711
2.62613e-06
3.45312
2.63421e-06
3.4491
2.64223e-06
3.44507
2.65017e-06
3.44101
2.65805e-06
3.43694
2.66587e-06
3.43284
2.67362e-06
3.42871
2.6813e-06
3.42457
2.68891e-06
3.4204
2.69643e-06
3.41621
2.70388e-06
3.412
2.71127e-06
3.40777
2.71859e-06
3.40352
2.72584e-06
3.39924
2.73303e-06
3.39494
2.74015e-06
3.39062
2.74718e-06
3.38627
2.75412e-06
3.38191
2.76098e-06
3.37752
2.76774e-06
3.37311
2.77443e-06
3.36867
2.78103e-06
3.36422
2.78756e-06
3.35974
2.79402e-06
3.35524
2.80041e-06
3.35072
2.80672e-06
3.34617
2.81295e-06
3.34161
2.81909e-06
3.33702
2.82515e-06
3.33241
2.83111e-06
3.32777
2.83697e-06
3.32312
2.84274e-06
3.31844
2.84842e-06
3.31374
2.85401e-06
3.30902
2.85952e-06
3.30427
2.86493e-06
3.29951
2.87025e-06
3.29472
2.8755e-06
3.28991
2.88066e-06
3.28508
2.88572e-06
3.28022
2.89068e-06
3.27534
2.89555e-06
3.27044
2.90031e-06
3.26552
2.90499e-06
3.26058
2.90956e-06
3.25561
2.91404e-06
3.25063
2.91841e-06
3.24562
2.92268e-06
3.24059
2.92686e-06
3.23553
2.93093e-06
3.23046
2.9349e-06
3.22536
2.93877e-06
3.22024
2.94254e-06
3.2151
2.9462e-06
3.20994
2.94975e-06
3.20475
2.9532e-06
3.19954
2.95655e-06
3.19432
2.9598e-06
3.18907
2.96293e-06
3.18379
2.96594e-06
3.1785
2.96884e-06
3.17319
2.97163e-06
3.16785
2.97432e-06
3.16249
2.97689e-06
3.15711
2.97936e-06
3.15171
2.98171e-06
3.14629
2.98392e-06
3.14084
2.98601e-06
3.13538
2.98797e-06
3.12989
2.98984e-06
3.12438
2.9916e-06
3.11885
2.99327e-06
3.1133
2.99481e-06
3.10773
2.99622e-06
3.10213
2.99748e-06
3.09652
2.9986e-06
3.09088
2.99959e-06
3.08523
3.00046e-06
3.07955
3.00123e-06
3.07385
3.0019e-06
3.06813
3.00245e-06
3.06239
3.00287e-06
3.05663
3.00316e-06
3.05085
3.00332e-06
3.04505
3.00335e-06
3.03922
3.00323e-06
3.03338
3.00298e-06
3.02751
3.00258e-06
3.02163
3.00203e-06
3.01572
3.00133e-06
3.0098
3.00051e-06
3.00385
2.99956e-06
2.99789
2.99849e-06
2.9919
2.99731e-06
2.98589
2.99601e-06
2.97987
2.99457e-06
2.97382
2.99299e-06
2.96776
2.99125e-06
2.96167
2.98934e-06
2.95556
2.98728e-06
2.94944
2.98507e-06
2.94329
2.98273e-06
2.93713
2.98026e-06
2.93095
2.97765e-06
2.92474
2.9749e-06
2.91852
2.97202e-06
2.91228
2.96897e-06
2.90602
2.96578e-06
2.89974
2.9624e-06
2.89344
2.9589e-06
2.88712
2.95522e-06
2.88078
2.95139e-06
2.87443
2.94743e-06
2.86805
2.94329e-06
2.86166
2.93905e-06
2.85525
2.93483e-06
2.84882
2.93025e-06
2.84237
2.92689e-06
2.8359
2.92271e-06
2.82942
2.9231e-06
2.82291
2.92598e-06
2.81639
2.9432e-06
2.80985
2.99115e-06
2.8033
3.11173e-06
2.79672
3.41337e-06
2.79013
4.12576e-06
2.78351
5.84894e-06
2.77688
9.93678e-06
2.77022
1.97072e-05
2.76352
4.29363e-05
2.75674
9.82473e-05
2.74982
0.000229723
2.74257
0.000542026
2.73456
0.00128242
2.72478
0.00303362
2.71086
0.00716244
2.6872
0.0168915
2.64024
0.0401662
2.5317
0.10174
0.266912
2.25798
5.52474
0.000213039
5.52448
0.000170446
5.52422
0.000156203
5.52396
0.000158437
5.5237
0.000159452
5.52343
0.000159374
5.52317
0.000159298
5.5229
0.000159313
5.52263
0.000159339
5.52236
0.00015935
5.52208
0.000159359
5.52181
0.000159368
5.52153
0.000159377
5.52124
0.000159386
5.52096
0.000159395
5.52067
0.000159403
5.52037
0.000159412
5.52007
0.000159421
5.51977
0.00015943
5.51947
0.000159439
5.51916
0.000159447
5.51884
0.000159457
5.51852
0.000159466
5.5182
0.000159475
5.51787
0.000159484
5.51753
0.000159494
5.51719
0.000159503
5.51684
0.000159513
5.51649
0.000159522
5.51613
0.000159532
5.51577
0.000159542
5.51539
0.000159552
5.51501
0.000159562
5.51463
0.000159573
5.51423
0.000159583
5.51383
0.000159594
5.51342
0.000159604
5.51301
0.000159615
5.51258
0.000159626
5.51215
0.000159637
5.51171
0.000159649
5.51126
0.00015966
5.5108
0.000159672
5.51033
0.000159684
5.50985
0.000159695
5.50937
0.000159707
5.50887
0.00015972
5.50836
0.000159732
5.50785
0.000159745
5.50732
0.000159757
5.50678
0.00015977
5.50623
0.000159783
5.50567
0.000159796
5.5051
0.000159809
5.50452
0.000159823
5.50393
0.000159836
5.50332
0.00015985
5.50271
0.000159864
5.50208
0.000159877
5.50144
0.000159891
5.50078
0.000159905
5.50012
0.00015992
5.49944
0.000159934
5.49875
0.000159948
5.49804
0.000159962
5.49732
0.000159976
5.49659
0.00015999
5.49584
0.000160005
5.49508
0.000160019
5.49431
0.000160034
5.49352
0.000160049
5.49271
0.000160065
5.49189
0.00016008
5.49106
0.000160096
5.4902
0.000160112
5.48934
0.000160128
5.48845
0.000160144
5.48756
0.00016016
5.48664
0.000160177
5.48571
0.000160195
5.48477
0.000160213
5.48381
0.000160231
5.48283
0.000160249
5.48184
0.000160269
5.48084
0.000160289
5.47981
0.00016031
5.47877
0.000160332
5.47771
0.000160354
5.47664
0.000160377
5.47554
0.000160399
5.47443
0.000160422
5.4733
0.000160445
5.47215
0.000160468
5.47098
0.000160492
5.46979
0.000160516
5.46858
0.000160539
5.46735
0.000160562
5.4661
0.000160585
5.46484
0.000160608
5.46355
0.000160631
5.46224
0.000160654
5.46092
0.000160678
5.45958
0.000160702
5.45821
0.000160727
5.45683
0.000160752
5.45543
0.000160778
5.45401
0.000160804
5.45257
0.000160831
5.4511
0.000160858
5.44962
0.000160886
5.44811
0.000160914
5.44659
0.000160942
5.44504
0.00016097
5.44347
0.000160997
5.44188
0.000161025
5.44027
0.000161053
5.43864
0.000161081
5.43699
0.000161109
5.43532
0.000161136
5.43362
0.00016116
5.4319
0.000161183
5.43016
0.000161202
5.4284
0.000161215
5.42661
0.000161222
5.4248
0.000161221
5.42297
0.000161211
5.42112
0.000161188
5.41924
0.000161149
5.41733
0.000161089
5.4154
0.000161003
5.41345
0.000160888
5.41147
0.000160738
5.40948
0.000160546
5.40745
0.000160306
5.40541
0.000160009
5.40334
0.000159645
5.40125
0.000159203
5.39914
0.000158674
5.397
0.000158046
5.39484
0.000157308
5.39265
0.000156445
5.39044
0.000155446
5.38821
0.000154295
5.38595
0.000152979
5.38367
0.000151486
5.38136
0.000149803
5.37903
0.00014792
5.37667
0.000145828
5.37429
0.000143518
5.37188
0.000140985
5.36944
0.000138224
5.36698
0.000135236
5.3645
0.000132021
5.36199
0.000128584
5.35945
0.000124932
5.35689
0.000121076
5.3543
0.000117029
5.35168
0.000112807
5.34904
0.000108429
5.34637
0.000103917
5.34368
9.92921e-05
5.34096
9.45805e-05
5.33822
8.9808e-05
5.33544
8.50016e-05
5.33265
8.01885e-05
5.32982
7.53961e-05
5.32697
7.06511e-05
5.32409
6.59792e-05
5.32118
6.14047e-05
5.31825
5.69502e-05
5.31529
5.26362e-05
5.3123
4.8481e-05
5.30929
4.45003e-05
5.30624
4.07071e-05
5.30317
3.71119e-05
5.30008
3.37224e-05
5.29695
3.05435e-05
5.2938
2.75779e-05
5.29062
2.48255e-05
5.28741
2.22842e-05
5.28418
1.995e-05
5.28092
1.78169e-05
5.27763
1.58776e-05
5.27431
1.41234e-05
5.27096
1.25447e-05
5.26759
1.1131e-05
5.26419
9.8716e-06
5.26076
8.75525e-06
5.2573
7.77069e-06
5.25381
6.90677e-06
5.2503
6.15255e-06
5.24675
5.49745e-06
5.24318
4.93137e-06
5.23958
4.44478e-06
5.23595
4.02872e-06
5.2323
3.67488e-06
5.22861
3.37563e-06
5.2249
3.12401e-06
5.22116
2.91369e-06
5.21739
2.73901e-06
5.21359
2.59492e-06
5.20976
2.47692e-06
5.2059
2.38109e-06
5.20202
2.30397e-06
5.1981
2.24257e-06
5.19416
2.19432e-06
5.19019
2.15699e-06
5.18618
2.12871e-06
5.18215
2.10786e-06
5.17809
2.09311e-06
5.174
2.08333e-06
5.16989
2.07757e-06
5.16574
2.07505e-06
5.16156
2.07514e-06
5.15735
2.0773e-06
5.15312
2.08111e-06
5.14885
2.08621e-06
5.14456
2.09233e-06
5.14023
2.09924e-06
5.13588
2.10676e-06
5.13149
2.11474e-06
5.12708
2.12308e-06
5.12263
2.13167e-06
5.11816
2.14046e-06
5.11366
2.14939e-06
5.10912
2.15841e-06
5.10456
2.1675e-06
5.09996
2.17662e-06
5.09534
2.18575e-06
5.09069
2.19488e-06
5.086
2.204e-06
5.08129
2.2131e-06
5.07654
2.22218e-06
5.07177
2.23123e-06
5.06696
2.24023e-06
5.06213
2.2492e-06
5.05726
2.25813e-06
5.05236
2.26701e-06
5.04744
2.27585e-06
5.04248
2.28465e-06
5.03749
2.29338e-06
5.03247
2.30208e-06
5.02742
2.31072e-06
5.02234
2.31931e-06
5.01723
2.32786e-06
5.01209
2.33637e-06
5.00691
2.34482e-06
5.00171
2.35321e-06
4.99648
2.36155e-06
4.99121
2.36982e-06
4.98591
2.37804e-06
4.98059
2.3862e-06
4.97523
2.39431e-06
4.96984
2.40236e-06
4.96442
2.41035e-06
4.95897
2.41829e-06
4.95348
2.42619e-06
4.94797
2.43403e-06
4.94243
2.44181e-06
4.93685
2.44952e-06
4.93124
2.45717e-06
4.9256
2.46475e-06
4.91993
2.47225e-06
4.91423
2.4797e-06
4.9085
2.48709e-06
4.90274
2.49441e-06
4.89694
2.50168e-06
4.89112
2.50888e-06
4.88526
2.51601e-06
4.87937
2.52306e-06
4.87345
2.53005e-06
4.8675
2.53697e-06
4.86152
2.54383e-06
4.8555
2.55063e-06
4.84946
2.55737e-06
4.84338
2.56405e-06
4.83727
2.57063e-06
4.83113
2.57714e-06
4.82496
2.58357e-06
4.81876
2.58991e-06
4.81253
2.59618e-06
4.80626
2.60238e-06
4.79996
2.6085e-06
4.79363
2.61456e-06
4.78727
2.62055e-06
4.78088
2.62647e-06
4.77446
2.63231e-06
4.76801
2.63807e-06
4.76152
2.64375e-06
4.755
2.64933e-06
4.74846
2.65484e-06
4.74188
2.66025e-06
4.73526
2.66558e-06
4.72862
2.67082e-06
4.72195
2.67598e-06
4.71524
2.68106e-06
4.70851
2.68606e-06
4.70174
2.69098e-06
4.69494
2.69582e-06
4.68811
2.70057e-06
4.68125
2.70523e-06
4.67435
2.70979e-06
4.66743
2.71427e-06
4.66047
2.71866e-06
4.65349
2.72296e-06
4.64647
2.72716e-06
4.63942
2.73126e-06
4.63234
2.73527e-06
4.62523
2.73919e-06
4.61808
2.74302e-06
4.61091
2.74676e-06
4.60371
2.75039e-06
4.59647
2.75393e-06
4.5892
2.75737e-06
4.58191
2.76071e-06
4.57458
2.76396e-06
4.56722
2.76711e-06
4.55983
2.77016e-06
4.55241
2.77311e-06
4.54496
2.77594e-06
4.53748
2.77867e-06
4.52996
2.7813e-06
4.52242
2.78384e-06
4.51485
2.78626e-06
4.50724
2.7886e-06
4.49961
2.79081e-06
4.49194
2.7929e-06
4.48425
2.79487e-06
4.47652
2.79673e-06
4.46877
2.7985e-06
4.46098
2.80017e-06
4.45316
2.80175e-06
4.44532
2.80321e-06
4.43744
2.80455e-06
4.42954
2.80575e-06
4.4216
2.80683e-06
4.41363
2.80778e-06
4.40564
2.80862e-06
4.39761
2.80936e-06
4.38956
2.81001e-06
4.38147
2.81054e-06
4.37336
2.81096e-06
4.36522
2.81126e-06
4.35704
2.81143e-06
4.34884
2.81147e-06
4.34061
2.81139e-06
4.33235
2.81118e-06
4.32406
2.81083e-06
4.31574
2.81034e-06
4.3074
2.80971e-06
4.29902
2.80897e-06
4.29062
2.80812e-06
4.28219
2.80715e-06
4.27372
2.80606e-06
4.26523
2.80487e-06
4.25672
2.80354e-06
4.24817
2.80209e-06
4.23959
2.80048e-06
4.23099
2.79873e-06
4.22236
2.79683e-06
4.2137
2.79479e-06
4.20502
2.79263e-06
4.1963
2.79034e-06
4.18756
2.78794e-06
4.17879
2.78539e-06
4.17
2.78272e-06
4.16117
2.77989e-06
4.15232
2.77695e-06
4.14345
2.77379e-06
4.13454
2.77059e-06
4.12561
2.76711e-06
4.11665
2.76365e-06
4.10767
2.75988e-06
4.09866
2.7562e-06
4.08962
2.75215e-06
4.08056
2.74864e-06
4.07147
2.7445e-06
4.06235
2.74288e-06
4.05321
2.74111e-06
4.04404
2.74781e-06
4.03485
2.76468e-06
4.02563
2.81159e-06
4.01639
2.93773e-06
4.00712
3.23467e-06
3.99783
3.97164e-06
3.98851
5.69575e-06
3.97916
9.85754e-06
3.96978
1.97149e-05
3.96036
4.32655e-05
3.95089
9.92421e-05
3.94131
0.000232518
3.93153
0.000549308
3.92128
0.00130181
3.90996
0.0030859
3.89616
0.00730606
3.8765
0.017258
3.84309
0.0407167
3.77684
0.0968185
3.6261
0.242871
0.610437
3.27294
7.81315
0.000176117
7.81279
0.000158739
7.81242
0.000138958
7.81205
0.000141511
7.81168
0.000143247
7.81131
0.000143151
7.81094
0.000143036
7.81056
0.000143065
7.81017
0.000143102
7.80979
0.000143118
7.8094
0.000143129
7.80901
0.000143139
7.80861
0.000143149
7.80821
0.000143159
7.80781
0.000143168
7.8074
0.000143177
7.80698
0.000143186
7.80656
0.000143195
7.80614
0.000143203
7.8057
0.000143212
7.80527
0.000143221
7.80482
0.000143229
7.80437
0.000143238
7.80391
0.000143246
7.80344
0.000143255
7.80297
0.000143264
7.80249
0.000143273
7.802
0.000143281
7.8015
0.00014329
7.80099
0.000143299
7.80047
0.000143308
7.79995
0.000143318
7.79941
0.000143327
7.79887
0.000143336
7.79831
0.000143346
7.79774
0.000143355
7.79717
0.000143365
7.79658
0.000143375
7.79598
0.000143385
7.79537
0.000143395
7.79474
0.000143405
7.79411
0.000143415
7.79346
0.000143426
7.7928
0.000143436
7.79212
0.000143447
7.79143
0.000143458
7.79073
0.000143469
7.79002
0.00014348
7.78929
0.000143491
7.78854
0.000143503
7.78778
0.000143514
7.78701
0.000143526
7.78622
0.000143538
7.78541
0.00014355
7.78459
0.000143562
7.78375
0.000143574
7.7829
0.000143586
7.78203
0.000143599
7.78114
0.000143611
7.78023
0.000143624
7.77931
0.000143636
7.77837
0.000143649
7.77741
0.000143661
7.77643
0.000143674
7.77543
0.000143687
7.77442
0.0001437
7.77338
0.000143713
7.77233
0.000143726
7.77125
0.000143739
7.77016
0.000143752
7.76905
0.000143766
7.76791
0.00014378
7.76675
0.000143794
7.76557
0.000143808
7.76436
0.000143822
7.76314
0.000143836
7.76189
0.00014385
7.76062
0.000143865
7.75933
0.000143881
7.75802
0.000143896
7.75668
0.000143912
7.75533
0.000143929
7.75395
0.000143945
7.75255
0.000143963
7.75113
0.000143981
7.74968
0.000144
7.74821
0.00014402
7.74672
0.00014404
7.7452
0.00014406
7.74365
0.00014408
7.74208
0.000144101
7.74048
0.000144121
7.73885
0.000144143
7.7372
0.000144164
7.73552
0.000144185
7.73381
0.000144207
7.73208
0.000144227
7.73031
0.000144248
7.72852
0.000144268
7.7267
0.000144289
7.72486
0.00014431
7.72299
0.000144331
7.72109
0.000144353
7.71916
0.000144375
7.71721
0.000144398
7.71523
0.000144421
7.71322
0.000144445
7.71118
0.000144469
7.70911
0.000144494
7.70702
0.000144519
7.70489
0.000144544
7.70273
0.000144569
7.70055
0.000144594
7.69833
0.000144619
7.69608
0.000144643
7.69381
0.000144668
7.69151
0.000144694
7.68917
0.000144719
7.68681
0.000144743
7.68441
0.000144766
7.68198
0.000144786
7.67953
0.000144803
7.67703
0.000144816
7.67451
0.000144822
7.67195
0.000144822
7.66936
0.000144813
7.66674
0.000144793
7.66408
0.000144759
7.66139
0.000144706
7.65867
0.000144631
7.65591
0.000144529
7.65312
0.000144396
7.65029
0.000144227
7.64743
0.000144014
7.64454
0.000143751
7.64162
0.000143427
7.63867
0.000143035
7.63568
0.000142565
7.63266
0.000142007
7.6296
0.000141351
7.62651
0.000140584
7.62339
0.000139694
7.62024
0.00013867
7.61704
0.000137499
7.61382
0.000136169
7.61055
0.00013467
7.60725
0.000132992
7.60392
0.000131127
7.60055
0.000129066
7.59714
0.000126806
7.5937
0.000124343
7.59022
0.000121674
7.5867
0.000118803
7.58315
0.000115732
7.57956
0.000112468
7.57593
0.00010902
7.57227
0.0001054
7.56857
0.000101622
7.56483
9.77032e-05
7.56106
9.36616e-05
7.55725
8.95182e-05
7.5534
8.5295e-05
7.54951
8.10153e-05
7.54559
7.67034e-05
7.54163
7.23836e-05
7.53763
6.80804e-05
7.53359
6.38178e-05
7.52952
5.96189e-05
7.5254
5.55056e-05
7.52125
5.14983e-05
7.51706
4.76155e-05
7.51283
4.38737e-05
7.50857
4.02871e-05
7.50426
3.68678e-05
7.49992
3.36253e-05
7.49554
3.05666e-05
7.49111
2.76964e-05
7.48665
2.50173e-05
7.48216
2.25294e-05
7.47762
2.02311e-05
7.47304
1.81187e-05
7.46843
1.61872e-05
7.46377
1.44302e-05
7.45908
1.28398e-05
7.45434
1.14077e-05
7.44957
1.01245e-05
7.44476
8.98054e-06
7.43991
7.96588e-06
7.43501
7.07041e-06
7.43008
6.28412e-06
7.42511
5.59719e-06
7.4201
5.00011e-06
7.41505
4.48379e-06
7.40996
4.03963e-06
7.40483
3.65955e-06
7.39966
3.33606e-06
7.39444
3.06224e-06
7.38919
2.83179e-06
7.3839
2.639e-06
7.37857
2.47872e-06
7.37319
2.34636e-06
7.36778
2.23785e-06
7.36233
2.14961e-06
7.35683
2.0785e-06
7.35129
2.02179e-06
7.34572
1.97713e-06
7.3401
1.9425e-06
7.33444
1.91617e-06
7.32874
1.89668e-06
7.323
1.8828e-06
7.31721
1.8735e-06
7.31139
1.86789e-06
7.30552
1.86529e-06
7.29962
1.86508e-06
7.29367
1.8668e-06
7.28767
1.87004e-06
7.28164
1.87447e-06
7.27557
1.87985e-06
7.26945
1.88597e-06
7.26329
1.89265e-06
7.25709
1.89976e-06
7.25085
1.90721e-06
7.24456
1.91489e-06
7.23824
1.92276e-06
7.23187
1.93076e-06
7.22546
1.93885e-06
7.219
1.947e-06
7.21251
1.95519e-06
7.20597
1.96338e-06
7.19938
1.97157e-06
7.19276
1.97976e-06
7.18609
1.98794e-06
7.17938
1.99609e-06
7.17263
2.00421e-06
7.16583
2.0123e-06
7.15899
2.02036e-06
7.15211
2.02838e-06
7.14519
2.03635e-06
7.13822
2.04429e-06
7.13121
2.05219e-06
7.12415
2.06004e-06
7.11705
2.06785e-06
7.10991
2.07561e-06
7.10273
2.08333e-06
7.0955
2.09101e-06
7.08823
2.09865e-06
7.08091
2.10624e-06
7.07355
2.11378e-06
7.06615
2.12127e-06
7.0587
2.1287e-06
7.05121
2.13609e-06
7.04368
2.14342e-06
7.0361
2.1507e-06
7.02848
2.15792e-06
7.02081
2.16511e-06
7.0131
2.17224e-06
7.00535
2.17933e-06
6.99755
2.18638e-06
6.98971
2.19336e-06
6.98183
2.20029e-06
6.9739
2.20716e-06
6.96592
2.21397e-06
6.95791
2.22072e-06
6.94984
2.2274e-06
6.94174
2.23404e-06
6.93359
2.24062e-06
6.92539
2.24714e-06
6.91715
2.25361e-06
6.90887
2.26001e-06
6.90054
2.26635e-06
6.89217
2.27263e-06
6.88375
2.27884e-06
6.87529
2.28501e-06
6.86679
2.29112e-06
6.85824
2.29717e-06
6.84964
2.30316e-06
6.841
2.30908e-06
6.83232
2.31493e-06
6.82359
2.3207e-06
6.81482
2.3264e-06
6.80601
2.33203e-06
6.79714
2.3376e-06
6.78824
2.3431e-06
6.77929
2.34854e-06
6.7703
2.35392e-06
6.76126
2.35924e-06
6.75217
2.36448e-06
6.74305
2.36965e-06
6.73387
2.37475e-06
6.72466
2.37977e-06
6.7154
2.38471e-06
6.70609
2.38958e-06
6.69674
2.39437e-06
6.68735
2.39908e-06
6.67791
2.40371e-06
6.66843
2.40828e-06
6.6589
2.41277e-06
6.64933
2.41719e-06
6.63971
2.42153e-06
6.63005
2.4258e-06
6.62035
2.42998e-06
6.6106
2.43408e-06
6.60081
2.4381e-06
6.59097
2.44205e-06
6.58109
2.44591e-06
6.57116
2.44968e-06
6.5612
2.45337e-06
6.55118
2.45697e-06
6.54113
2.46049e-06
6.53102
2.46393e-06
6.52088
2.46728e-06
6.51069
2.47055e-06
6.50046
2.47373e-06
6.49018
2.47682e-06
6.47986
2.47982e-06
6.4695
2.48273e-06
6.45909
2.48557e-06
6.44864
2.48831e-06
6.43815
2.49096e-06
6.42761
2.4935e-06
6.41703
2.49595e-06
6.4064
2.49832e-06
6.39574
2.50059e-06
6.38502
2.50277e-06
6.37427
2.50487e-06
6.36347
2.50686e-06
6.35263
2.50873e-06
6.34175
2.5105e-06
6.33083
2.51218e-06
6.31986
2.51377e-06
6.30885
2.51527e-06
6.29779
2.51668e-06
6.2867
2.51799e-06
6.27556
2.51919e-06
6.26438
2.52028e-06
6.25315
2.52124e-06
6.24189
2.5221e-06
6.23058
2.52285e-06
6.21923
2.52352e-06
6.20784
2.5241e-06
6.19641
2.52458e-06
6.18493
2.52496e-06
6.17342
2.52522e-06
6.16186
2.52537e-06
6.15026
2.52541e-06
6.13862
2.52534e-06
6.12694
2.52515e-06
6.11522
2.52484e-06
6.10345
2.5244e-06
6.09165
2.52384e-06
6.0798
2.52317e-06
6.06792
2.52241e-06
6.05599
2.52154e-06
6.04403
2.52056e-06
6.03202
2.51948e-06
6.01997
2.51829e-06
6.00789
2.51698e-06
5.99576
2.51554e-06
5.98359
2.51396e-06
5.97139
2.51226e-06
5.95914
2.51043e-06
5.94686
2.5085e-06
5.93454
2.50644e-06
5.92218
2.50428e-06
5.90977
2.50199e-06
5.89734
2.4996e-06
5.88486
2.49702e-06
5.87234
2.49444e-06
5.85979
2.49152e-06
5.84719
2.48878e-06
5.83456
2.48547e-06
5.82189
2.48265e-06
5.80919
2.47892e-06
5.79645
2.47611e-06
5.78366
2.472e-06
5.77085
2.46978e-06
5.75799
2.46597e-06
5.7451
2.46684e-06
5.73217
2.46849e-06
5.71921
2.48337e-06
5.70621
2.52014e-06
5.69317
2.6066e-06
5.6801
2.84051e-06
5.66699
3.37824e-06
5.65385
4.71134e-06
5.64067
7.82036e-06
5.62745
1.5321e-05
5.61419
3.30753e-05
5.60087
7.5491e-05
5.58748
0.00017629
5.57394
0.000416291
5.56012
0.000986752
5.54566
0.00234189
5.52973
0.00555505
5.5104
0.0131567
5.48305
0.0310858
5.43688
0.0733402
5.34602
0.174101
5.14335
0.431941
1.0483
4.69186
34.4889
7.15731e-05
34.4873
8.16075e-05
34.4857
6.953e-05
34.484
6.98008e-05
34.4824
7.15989e-05
34.4807
7.18223e-05
34.4791
7.16721e-05
34.4774
7.16466e-05
34.4757
7.16591e-05
34.474
7.1654e-05
34.4723
7.16432e-05
34.4706
7.16355e-05
34.4688
7.16306e-05
34.4671
7.16272e-05
34.4653
7.1625e-05
34.4635
7.16239e-05
34.4616
7.16235e-05
34.4598
7.16239e-05
34.4579
7.16248e-05
34.456
7.16262e-05
34.4541
7.1628e-05
34.4521
7.16302e-05
34.4501
7.16326e-05
34.4481
7.16353e-05
34.446
7.16382e-05
34.4439
7.16414e-05
34.4418
7.16447e-05
34.4396
7.16481e-05
34.4374
7.16517e-05
34.4352
7.16555e-05
34.4329
7.16594e-05
34.4306
7.16634e-05
34.4282
7.16675e-05
34.4258
7.16717e-05
34.4234
7.1676e-05
34.4209
7.16804e-05
34.4183
7.1685e-05
34.4157
7.16896e-05
34.4131
7.16943e-05
34.4104
7.16991e-05
34.4076
7.1704e-05
34.4048
7.17089e-05
34.4019
7.1714e-05
34.399
7.17191e-05
34.396
7.17243e-05
34.393
7.17297e-05
34.3899
7.1735e-05
34.3867
7.17405e-05
34.3835
7.17461e-05
34.3802
7.17517e-05
34.3769
7.17574e-05
34.3735
7.17632e-05
34.37
7.1769e-05
34.3664
7.17749e-05
34.3628
7.17809e-05
34.3591
7.1787e-05
34.3553
7.17931e-05
34.3515
7.17992e-05
34.3476
7.18054e-05
34.3436
7.18116e-05
34.3395
7.18179e-05
34.3353
7.18242e-05
34.3311
7.18305e-05
34.3268
7.18369e-05
34.3224
7.18432e-05
34.3179
7.18496e-05
34.3133
7.18561e-05
34.3087
7.18625e-05
34.3039
7.1869e-05
34.2991
7.18756e-05
34.2942
7.18824e-05
34.2892
7.18894e-05
34.284
7.18964e-05
34.2788
7.19034e-05
34.2735
7.19104e-05
34.2681
7.19175e-05
34.2626
7.19247e-05
34.257
7.1932e-05
34.2513
7.19396e-05
34.2455
7.19475e-05
34.2396
7.19554e-05
34.2336
7.19636e-05
34.2275
7.1972e-05
34.2214
7.19807e-05
34.2151
7.19899e-05
34.2087
7.19994e-05
34.2022
7.20092e-05
34.1956
7.20192e-05
34.1889
7.20294e-05
34.1821
7.20396e-05
34.1751
7.20498e-05
34.1681
7.20601e-05
34.1609
7.20707e-05
34.1536
7.20814e-05
34.1462
7.20921e-05
34.1386
7.21026e-05
34.131
7.2113e-05
34.1232
7.21232e-05
34.1153
7.21334e-05
34.1073
7.21437e-05
34.0991
7.21542e-05
34.0909
7.21649e-05
34.0825
7.21758e-05
34.074
7.21869e-05
34.0654
7.21982e-05
34.0566
7.22097e-05
34.0478
7.22216e-05
34.0388
7.22337e-05
34.0296
7.2246e-05
34.0204
7.22585e-05
34.011
7.2271e-05
34.0015
7.22835e-05
33.9918
7.2296e-05
33.982
7.23085e-05
33.9721
7.2321e-05
33.9621
7.23337e-05
33.9519
7.23465e-05
33.9416
7.23592e-05
33.9312
7.23713e-05
33.9206
7.23827e-05
33.9099
7.23932e-05
33.899
7.24021e-05
33.888
7.24086e-05
33.8769
7.24123e-05
33.8656
7.24128e-05
33.8542
7.24093e-05
33.8426
7.24004e-05
33.8309
7.23845e-05
33.819
7.23596e-05
33.8069
7.23239e-05
33.7948
7.22754e-05
33.7824
7.22118e-05
33.77
7.21304e-05
33.7574
7.2028e-05
33.7446
7.19007e-05
33.7317
7.17444e-05
33.7187
7.15546e-05
33.7055
7.13268e-05
33.6921
7.10561e-05
33.6786
7.07371e-05
33.665
7.03639e-05
33.6512
6.99306e-05
33.6373
6.94309e-05
33.6232
6.88589e-05
33.609
6.82089e-05
33.5946
6.74753e-05
33.58
6.66533e-05
33.5653
6.57385e-05
33.5504
6.4727e-05
33.5354
6.36162e-05
33.5202
6.24041e-05
33.5048
6.109e-05
33.4893
5.96742e-05
33.4736
5.81584e-05
33.4578
5.65456e-05
33.4418
5.484e-05
33.4256
5.30474e-05
33.4093
5.11745e-05
33.3928
4.92295e-05
33.3761
4.72215e-05
33.3593
4.51606e-05
33.3423
4.30577e-05
33.3251
4.09243e-05
33.3078
3.87724e-05
33.2903
3.66142e-05
33.2727
3.44619e-05
33.2549
3.23274e-05
33.2369
3.02225e-05
33.2187
2.81582e-05
33.2004
2.61448e-05
33.1819
2.41918e-05
33.1632
2.23075e-05
33.1444
2.04994e-05
33.1254
1.87737e-05
33.1062
1.71353e-05
33.0869
1.5588e-05
33.0674
1.41345e-05
33.0477
1.27761e-05
33.0278
1.15133e-05
33.0078
1.03454e-05
32.9876
9.27079e-06
32.9672
8.28708e-06
32.9467
7.39117e-06
32.926
6.57937e-06
32.9051
5.8475e-06
32.884
5.19101e-06
32.8627
4.6051e-06
32.8413
4.08483e-06
32.8197
3.62515e-06
32.798
3.22107e-06
32.776
2.86765e-06
32.7539
2.56012e-06
32.7316
2.29389e-06
32.7091
2.0646e-06
32.6865
1.86818e-06
32.6637
1.70081e-06
32.6407
1.55897e-06
32.6175
1.43946e-06
32.5941
1.33935e-06
32.5706
1.25601e-06
32.5469
1.18709e-06
32.523
1.13049e-06
32.4989
1.08438e-06
32.4746
1.04714e-06
32.4502
1.01737e-06
32.4256
9.93856e-07
32.4008
9.75551e-07
32.3758
9.61567e-07
32.3506
9.51146e-07
32.3253
9.4365e-07
32.2997
9.3854e-07
32.274
9.3537e-07
32.2481
9.33768e-07
32.2221
9.33426e-07
32.1958
9.34093e-07
32.1694
9.35558e-07
32.1427
9.37654e-07
32.1159
9.40248e-07
32.0889
9.43231e-07
32.0617
9.46513e-07
32.0344
9.50023e-07
32.0068
9.53709e-07
31.9791
9.57526e-07
31.9511
9.6144e-07
31.923
9.65425e-07
31.8947
9.69457e-07
31.8662
9.73523e-07
31.8375
9.77606e-07
31.8087
9.81699e-07
31.7796
9.85794e-07
31.7504
9.89884e-07
31.7209
9.9397e-07
31.6913
9.98044e-07
31.6615
1.00211e-06
31.6315
1.00615e-06
31.6013
1.01018e-06
31.5709
1.01418e-06
31.5404
1.01817e-06
31.5096
1.02214e-06
31.4787
1.02609e-06
31.4475
1.03002e-06
31.4162
1.03392e-06
31.3847
1.0378e-06
31.353
1.04166e-06
31.321
1.0455e-06
31.2889
1.04932e-06
31.2567
1.05312e-06
31.2242
1.05688e-06
31.1915
1.06063e-06
31.1586
1.06435e-06
31.1256
1.06804e-06
31.0923
1.0717e-06
31.0589
1.07534e-06
31.0252
1.07896e-06
30.9914
1.08255e-06
30.9573
1.08612e-06
30.9231
1.08966e-06
30.8887
1.09318e-06
30.8541
1.09668e-06
30.8193
1.10014e-06
30.7843
1.10358e-06
30.7491
1.10698e-06
30.7137
1.11035e-06
30.6781
1.1137e-06
30.6423
1.11701e-06
30.6063
1.1203e-06
30.5702
1.12357e-06
30.5338
1.1268e-06
30.4972
1.13e-06
30.4605
1.13317e-06
30.4235
1.13631e-06
30.3864
1.13942e-06
30.349
1.1425e-06
30.3115
1.14555e-06
30.2737
1.14858e-06
30.2358