/*--------------------------------*- C++ -*----------------------------------*\
| =========                 |                                                 |
| \\      /  F ield         | OpenFOAM: The Open Source CFD Toolbox           |
|  \\    /   O peration     | Version:  3.0.x                                 |
|   \\  /    A nd           | Web:      www.OpenFOAM.org                      |
|    \\/     M anipulation  |                                                 |
\*---------------------------------------------------------------------------*/
FoamFile
{
    version     2.0;
    format      ascii;
    class       volScalarField;
    location    "0.48";
    object      rho;
}
// * * * * * * * * * * * * * * * * * * * * * * * * * * * * * * * * * * * * * //

dimensions      [1 -3 0 0 0 0 0];

internalField   nonuniform List<scalar> 
27600
(
50.4831
50.4832
50.4832
50.4833
50.4833
50.4833
50.4834
50.4834
50.4835
50.4835
50.4836
50.4837
50.4837
50.4838
50.4839
50.484
50.4841
50.4842
50.4843
50.4844
50.4845
50.4846
50.4847
50.4849
50.485
50.4851
50.4853
50.4855
50.4856
50.4858
50.486
50.4861
50.4863
50.4865
50.4867
50.4869
50.4871
50.4873
50.4876
50.4878
50.488
50.4883
50.4885
50.4888
50.4891
50.4894
50.4896
50.4899
50.4902
50.4905
50.4908
50.4912
50.4915
50.4918
50.4922
50.4925
50.4929
50.4933
50.4936
50.494
50.4944
50.4948
50.4953
50.4957
50.4961
50.4966
50.497
50.4975
50.4979
50.4984
50.4989
50.4994
50.4999
50.5004
50.5009
50.5014
50.5019
50.5024
50.503
50.5036
50.5041
50.5047
50.5054
50.506
50.5067
50.5074
50.508
50.5088
50.5095
50.5102
50.5109
50.5116
50.5124
50.5131
50.5139
50.5146
50.5154
50.5161
50.5169
50.5177
50.5185
50.5193
50.5201
50.521
50.5219
50.5228
50.5237
50.5246
50.5255
50.5265
50.5274
50.5284
50.5294
50.5304
50.5314
50.5324
50.5335
50.5346
50.5357
50.5368
50.5379
50.5391
50.5402
50.5414
50.5425
50.5437
50.5449
50.5461
50.5473
50.5485
50.5497
50.5509
50.5521
50.5534
50.5547
50.556
50.5573
50.5587
50.56
50.5614
50.5629
50.5643
50.5657
50.5672
50.5687
50.5702
50.5717
50.5732
50.5747
50.5763
50.5778
50.5794
50.581
50.5826
50.5842
50.5858
50.5874
50.5891
50.5908
50.5925
50.5942
50.5959
50.5977
50.5994
50.6012
50.603
50.6048
50.6066
50.6085
50.6103
50.6122
50.6141
50.616
50.6179
50.6199
50.6218
50.6238
50.6258
50.6278
50.6298
50.6319
50.634
50.636
50.6381
50.6403
50.6424
50.6445
50.6467
50.6489
50.6511
50.6533
50.6556
50.6578
50.6601
50.6624
50.6647
50.667
50.6694
50.6718
50.6741
50.6765
50.679
50.6814
50.6839
50.6863
50.6888
50.6913
50.6939
50.6964
50.699
50.7016
50.7042
50.7068
50.7094
50.7121
50.7148
50.7175
50.7202
50.7229
50.7257
50.7284
50.7312
50.734
50.7369
50.7397
50.7426
50.7454
50.7484
50.7513
50.7542
50.7572
50.7601
50.7631
50.7662
50.7692
50.7722
50.7753
50.7784
50.7815
50.7847
50.7878
50.791
50.7942
50.7974
50.8006
50.8038
50.8071
50.8104
50.8137
50.817
50.8204
50.8237
50.8271
50.8305
50.8339
50.8373
50.8408
50.8443
50.8478
50.8513
50.8548
50.8584
50.862
50.8656
50.8692
50.8728
50.8765
50.8801
50.8838
50.8875
50.8913
50.895
50.8988
50.9026
50.9064
50.9102
50.914
50.9179
50.9218
50.9257
50.9296
50.9336
50.9375
50.9415
50.9455
50.9495
50.9536
50.9576
50.9617
50.9658
50.9699
50.9741
50.9782
50.9824
50.9866
50.9908
50.9951
50.9993
51.0036
51.0079
51.0122
51.0165
51.0209
51.0252
51.0296
51.034
51.0385
51.0429
51.0474
51.0519
51.0564
51.0609
51.0654
51.07
51.0746
51.0792
51.0838
51.0884
51.0931
51.0978
51.1025
51.1072
51.1119
51.1167
51.1214
51.1262
51.131
51.1358
51.1407
51.1455
51.1504
51.1553
51.1602
51.1652
51.1701
51.1751
51.1801
51.1851
51.1901
51.1952
51.2002
51.2053
51.2104
51.2155
51.2206
51.2258
51.231
51.2361
51.2413
51.2466
51.2518
51.2571
51.2623
51.2676
51.2729
51.2783
51.2836
51.289
51.2943
51.2997
51.3051
51.3106
51.316
51.3215
51.3269
51.3324
51.3379
51.3435
51.349
51.3546
51.3601
51.3657
51.3713
51.3769
51.3826
51.3882
51.3939
51.3996
51.4053
51.411
51.4168
51.4224
51.4283
51.4339
51.4399
51.4455
51.4515
51.4572
51.4632
51.4689
51.475
51.4806
51.4868
51.4924
51.4987
51.5044
51.5109
51.5169
51.5244
51.5302
50.4836
50.4837
50.4837
50.4838
50.4838
50.4838
50.4839
50.4839
50.484
50.484
50.4841
50.4842
50.4842
50.4843
50.4844
50.4845
50.4846
50.4846
50.4848
50.4849
50.485
50.4851
50.4852
50.4853
50.4855
50.4856
50.4858
50.4859
50.4861
50.4863
50.4864
50.4866
50.4868
50.487
50.4872
50.4874
50.4876
50.4878
50.488
50.4883
50.4885
50.4888
50.489
50.4893
50.4895
50.4898
50.4901
50.4904
50.4907
50.491
50.4913
50.4916
50.4919
50.4923
50.4926
50.493
50.4933
50.4937
50.4941
50.4945
50.4949
50.4953
50.4957
50.4961
50.4965
50.497
50.4974
50.4979
50.4984
50.4988
50.4993
50.4998
50.5003
50.5008
50.5013
50.5018
50.5023
50.5029
50.5034
50.504
50.5046
50.5052
50.5058
50.5064
50.5071
50.5078
50.5085
50.5092
50.5099
50.5106
50.5113
50.512
50.5128
50.5135
50.5143
50.515
50.5158
50.5165
50.5173
50.5181
50.5189
50.5197
50.5205
50.5214
50.5223
50.5231
50.5241
50.525
50.5259
50.5268
50.5278
50.5288
50.5298
50.5307
50.5318
50.5328
50.5339
50.5349
50.536
50.5371
50.5383
50.5394
50.5406
50.5417
50.5429
50.5441
50.5453
50.5464
50.5476
50.5488
50.5501
50.5513
50.5525
50.5538
50.555
50.5563
50.5577
50.559
50.5604
50.5618
50.5632
50.5646
50.5661
50.5675
50.569
50.5705
50.572
50.5735
50.575
50.5766
50.5781
50.5797
50.5813
50.5829
50.5845
50.5861
50.5878
50.5894
50.5911
50.5928
50.5945
50.5962
50.598
50.5997
50.6015
50.6033
50.6051
50.6069
50.6088
50.6106
50.6125
50.6144
50.6163
50.6182
50.6202
50.6221
50.6241
50.6261
50.6281
50.6302
50.6322
50.6343
50.6364
50.6385
50.6406
50.6427
50.6449
50.647
50.6492
50.6514
50.6537
50.6559
50.6582
50.6604
50.6627
50.665
50.6674
50.6697
50.6721
50.6745
50.6769
50.6793
50.6817
50.6842
50.6867
50.6891
50.6917
50.6942
50.6967
50.6993
50.7019
50.7045
50.7071
50.7098
50.7124
50.7151
50.7178
50.7205
50.7232
50.726
50.7288
50.7315
50.7344
50.7372
50.74
50.7429
50.7458
50.7487
50.7516
50.7545
50.7575
50.7605
50.7635
50.7665
50.7695
50.7726
50.7756
50.7787
50.7818
50.785
50.7881
50.7913
50.7945
50.7977
50.8009
50.8042
50.8074
50.8107
50.814
50.8173
50.8207
50.824
50.8274
50.8308
50.8342
50.8377
50.8411
50.8446
50.8481
50.8516
50.8552
50.8587
50.8623
50.8659
50.8695
50.8731
50.8768
50.8804
50.8841
50.8878
50.8916
50.8953
50.8991
50.9029
50.9067
50.9105
50.9144
50.9182
50.9221
50.926
50.9299
50.9339
50.9379
50.9418
50.9458
50.9499
50.9539
50.958
50.962
50.9661
50.9703
50.9744
50.9786
50.9827
50.9869
50.9911
50.9954
50.9996
51.0039
51.0082
51.0125
51.0169
51.0212
51.0256
51.03
51.0344
51.0388
51.0432
51.0477
51.0522
51.0567
51.0612
51.0658
51.0703
51.0749
51.0795
51.0841
51.0888
51.0934
51.0981
51.1028
51.1075
51.1122
51.117
51.1217
51.1265
51.1313
51.1362
51.141
51.1459
51.1507
51.1556
51.1606
51.1655
51.1704
51.1754
51.1804
51.1854
51.1904
51.1955
51.2005
51.2056
51.2107
51.2158
51.221
51.2261
51.2313
51.2365
51.2417
51.2469
51.2521
51.2574
51.2627
51.2679
51.2733
51.2786
51.2839
51.2893
51.2946
51.3
51.3055
51.3109
51.3163
51.3218
51.3273
51.3327
51.3383
51.3438
51.3493
51.3549
51.3604
51.366
51.3716
51.3773
51.3829
51.3885
51.3942
51.3999
51.4056
51.4113
51.4171
51.4227
51.4286
51.4343
51.4402
51.4458
51.4518
51.4575
51.4635
51.4692
51.4753
51.4809
51.4871
51.4927
51.4991
51.5047
51.5112
51.5172
51.5247
51.5311
50.4836
50.4837
50.4837
50.4838
50.4838
50.4838
50.4839
50.4839
50.484
50.484
50.4841
50.4841
50.4842
50.4843
50.4844
50.4845
50.4845
50.4846
50.4847
50.4849
50.485
50.4851
50.4852
50.4853
50.4855
50.4856
50.4858
50.4859
50.4861
50.4863
50.4864
50.4866
50.4868
50.487
50.4872
50.4874
50.4876
50.4878
50.488
50.4883
50.4885
50.4888
50.489
50.4893
50.4895
50.4898
50.4901
50.4904
50.4907
50.491
50.4913
50.4916
50.4919
50.4923
50.4926
50.493
50.4933
50.4937
50.4941
50.4945
50.4949
50.4953
50.4957
50.4961
50.4965
50.497
50.4974
50.4979
50.4984
50.4988
50.4993
50.4998
50.5003
50.5008
50.5013
50.5018
50.5023
50.5029
50.5034
50.504
50.5046
50.5052
50.5058
50.5064
50.5071
50.5078
50.5085
50.5092
50.5099
50.5106
50.5113
50.512
50.5128
50.5135
50.5143
50.515
50.5158
50.5165
50.5173
50.5181
50.5189
50.5197
50.5205
50.5214
50.5223
50.5231
50.524
50.525
50.5259
50.5268
50.5278
50.5288
50.5298
50.5307
50.5318
50.5328
50.5339
50.5349
50.536
50.5371
50.5383
50.5394
50.5406
50.5417
50.5429
50.5441
50.5453
50.5464
50.5476
50.5488
50.5501
50.5513
50.5525
50.5538
50.555
50.5563
50.5577
50.559
50.5604
50.5618
50.5632
50.5646
50.5661
50.5675
50.569
50.5705
50.572
50.5735
50.575
50.5766
50.5781
50.5797
50.5813
50.5829
50.5845
50.5861
50.5878
50.5894
50.5911
50.5928
50.5945
50.5962
50.598
50.5997
50.6015
50.6033
50.6051
50.6069
50.6088
50.6106
50.6125
50.6144
50.6163
50.6182
50.6202
50.6221
50.6241
50.6261
50.6281
50.6302
50.6322
50.6343
50.6364
50.6385
50.6406
50.6427
50.6449
50.647
50.6492
50.6514
50.6537
50.6559
50.6582
50.6604
50.6627
50.665
50.6674
50.6697
50.6721
50.6745
50.6769
50.6793
50.6817
50.6842
50.6867
50.6891
50.6917
50.6942
50.6967
50.6993
50.7019
50.7045
50.7071
50.7098
50.7124
50.7151
50.7178
50.7205
50.7232
50.726
50.7288
50.7315
50.7344
50.7372
50.74
50.7429
50.7458
50.7487
50.7516
50.7545
50.7575
50.7605
50.7635
50.7665
50.7695
50.7726
50.7756
50.7787
50.7818
50.785
50.7881
50.7913
50.7945
50.7977
50.8009
50.8042
50.8074
50.8107
50.814
50.8173
50.8207
50.824
50.8274
50.8308
50.8342
50.8377
50.8411
50.8446
50.8481
50.8516
50.8552
50.8587
50.8623
50.8659
50.8695
50.8731
50.8768
50.8804
50.8841
50.8878
50.8916
50.8953
50.8991
50.9029
50.9067
50.9105
50.9144
50.9182
50.9221
50.926
50.9299
50.9339
50.9379
50.9418
50.9458
50.9499
50.9539
50.958
50.962
50.9661
50.9703
50.9744
50.9786
50.9827
50.9869
50.9911
50.9954
50.9996
51.0039
51.0082
51.0125
51.0169
51.0212
51.0256
51.03
51.0344
51.0388
51.0432
51.0477
51.0522
51.0567
51.0612
51.0658
51.0703
51.0749
51.0795
51.0841
51.0888
51.0934
51.0981
51.1028
51.1075
51.1122
51.117
51.1217
51.1265
51.1313
51.1362
51.141
51.1459
51.1507
51.1556
51.1606
51.1655
51.1704
51.1754
51.1804
51.1854
51.1904
51.1955
51.2005
51.2056
51.2107
51.2158
51.221
51.2261
51.2313
51.2365
51.2417
51.2469
51.2521
51.2574
51.2627
51.2679
51.2733
51.2786
51.2839
51.2893
51.2947
51.3
51.3055
51.3109
51.3163
51.3218
51.3273
51.3327
51.3383
51.3438
51.3493
51.3549
51.3605
51.366
51.3716
51.3773
51.3829
51.3885
51.3942
51.3999
51.4056
51.4113
51.4171
51.4227
51.4286
51.4343
51.4402
51.4458
51.4518
51.4575
51.4635
51.4692
51.4753
51.4809
51.4871
51.4927
51.4991
51.5047
51.5112
51.5172
51.5247
51.5314
50.4836
50.4836
50.4837
50.4837
50.4838
50.4838
50.4839
50.4839
50.484
50.484
50.4841
50.4841
50.4842
50.4843
50.4844
50.4844
50.4845
50.4846
50.4847
50.4848
50.485
50.4851
50.4852
50.4853
50.4855
50.4856
50.4858
50.4859
50.4861
50.4862
50.4864
50.4866
50.4868
50.487
50.4872
50.4874
50.4876
50.4878
50.488
50.4883
50.4885
50.4887
50.489
50.4893
50.4895
50.4898
50.4901
50.4904
50.4907
50.491
50.4913
50.4916
50.4919
50.4923
50.4926
50.493
50.4933
50.4937
50.4941
50.4945
50.4949
50.4953
50.4957
50.4961
50.4965
50.497
50.4974
50.4979
50.4984
50.4988
50.4993
50.4998
50.5003
50.5008
50.5013
50.5018
50.5023
50.5029
50.5034
50.504
50.5046
50.5052
50.5058
50.5064
50.5071
50.5078
50.5084
50.5092
50.5099
50.5106
50.5113
50.512
50.5128
50.5135
50.5143
50.515
50.5158
50.5165
50.5173
50.5181
50.5189
50.5197
50.5205
50.5214
50.5223
50.5231
50.524
50.525
50.5259
50.5268
50.5278
50.5288
50.5297
50.5307
50.5318
50.5328
50.5339
50.5349
50.536
50.5371
50.5383
50.5394
50.5406
50.5417
50.5429
50.5441
50.5452
50.5464
50.5476
50.5488
50.55
50.5513
50.5525
50.5538
50.555
50.5563
50.5577
50.559
50.5604
50.5618
50.5632
50.5646
50.5661
50.5675
50.569
50.5705
50.572
50.5735
50.575
50.5766
50.5781
50.5797
50.5813
50.5829
50.5845
50.5861
50.5878
50.5894
50.5911
50.5928
50.5945
50.5962
50.598
50.5997
50.6015
50.6033
50.6051
50.6069
50.6088
50.6106
50.6125
50.6144
50.6163
50.6182
50.6202
50.6221
50.6241
50.6261
50.6281
50.6302
50.6322
50.6343
50.6364
50.6385
50.6406
50.6427
50.6449
50.647
50.6492
50.6514
50.6537
50.6559
50.6582
50.6604
50.6627
50.665
50.6674
50.6697
50.6721
50.6745
50.6769
50.6793
50.6817
50.6842
50.6867
50.6891
50.6917
50.6942
50.6967
50.6993
50.7019
50.7045
50.7071
50.7098
50.7124
50.7151
50.7178
50.7205
50.7232
50.726
50.7288
50.7315
50.7344
50.7372
50.74
50.7429
50.7458
50.7487
50.7516
50.7545
50.7575
50.7605
50.7635
50.7665
50.7695
50.7726
50.7756
50.7787
50.7818
50.785
50.7881
50.7913
50.7945
50.7977
50.8009
50.8042
50.8074
50.8107
50.814
50.8173
50.8207
50.824
50.8274
50.8308
50.8342
50.8377
50.8411
50.8446
50.8481
50.8516
50.8552
50.8587
50.8623
50.8659
50.8695
50.8731
50.8768
50.8804
50.8841
50.8878
50.8916
50.8953
50.8991
50.9029
50.9067
50.9105
50.9144
50.9182
50.9221
50.926
50.9299
50.9339
50.9379
50.9418
50.9458
50.9499
50.9539
50.958
50.962
50.9661
50.9703
50.9744
50.9786
50.9827
50.9869
50.9911
50.9954
50.9996
51.0039
51.0082
51.0125
51.0169
51.0212
51.0256
51.03
51.0344
51.0388
51.0432
51.0477
51.0522
51.0567
51.0612
51.0658
51.0703
51.0749
51.0795
51.0841
51.0888
51.0934
51.0981
51.1028
51.1075
51.1122
51.117
51.1217
51.1265
51.1313
51.1362
51.141
51.1459
51.1507
51.1556
51.1606
51.1655
51.1704
51.1754
51.1804
51.1854
51.1904
51.1955
51.2005
51.2056
51.2107
51.2158
51.221
51.2261
51.2313
51.2365
51.2417
51.2469
51.2521
51.2574
51.2627
51.2679
51.2733
51.2786
51.2839
51.2893
51.2947
51.3
51.3055
51.3109
51.3163
51.3218
51.3273
51.3327
51.3383
51.3438
51.3493
51.3549
51.3605
51.366
51.3716
51.3773
51.3829
51.3885
51.3942
51.3999
51.4056
51.4113
51.4171
51.4227
51.4286
51.4343
51.4402
51.4458
51.4518
51.4575
51.4635
51.4692
51.4753
51.4809
51.4871
51.4927
51.499
51.5047
51.5112
51.5172
51.5244
51.5315
50.4836
50.4836
50.4837
50.4837
50.4838
50.4838
50.4839
50.4839
50.4839
50.484
50.4841
50.4841
50.4842
50.4843
50.4844
50.4844
50.4845
50.4846
50.4847
50.4848
50.485
50.4851
50.4852
50.4853
50.4855
50.4856
50.4858
50.4859
50.4861
50.4862
50.4864
50.4866
50.4868
50.487
50.4872
50.4874
50.4876
50.4878
50.488
50.4883
50.4885
50.4887
50.489
50.4892
50.4895
50.4898
50.4901
50.4904
50.4907
50.491
50.4913
50.4916
50.4919
50.4923
50.4926
50.493
50.4933
50.4937
50.4941
50.4945
50.4949
50.4953
50.4957
50.4961
50.4965
50.497
50.4974
50.4979
50.4984
50.4988
50.4993
50.4998
50.5003
50.5008
50.5013
50.5018
50.5023
50.5029
50.5034
50.504
50.5046
50.5051
50.5058
50.5064
50.5071
50.5077
50.5084
50.5091
50.5099
50.5106
50.5113
50.512
50.5128
50.5135
50.5143
50.515
50.5158
50.5165
50.5173
50.5181
50.5189
50.5197
50.5205
50.5214
50.5222
50.5231
50.524
50.525
50.5259
50.5268
50.5278
50.5288
50.5297
50.5307
50.5318
50.5328
50.5339
50.5349
50.536
50.5371
50.5383
50.5394
50.5406
50.5417
50.5429
50.5441
50.5452
50.5464
50.5476
50.5488
50.55
50.5513
50.5525
50.5538
50.555
50.5563
50.5577
50.559
50.5604
50.5618
50.5632
50.5646
50.5661
50.5675
50.569
50.5705
50.572
50.5735
50.575
50.5766
50.5781
50.5797
50.5813
50.5829
50.5845
50.5861
50.5878
50.5894
50.5911
50.5928
50.5945
50.5962
50.598
50.5997
50.6015
50.6033
50.6051
50.6069
50.6088
50.6106
50.6125
50.6144
50.6163
50.6182
50.6202
50.6221
50.6241
50.6261
50.6281
50.6302
50.6322
50.6343
50.6364
50.6385
50.6406
50.6427
50.6449
50.647
50.6492
50.6514
50.6537
50.6559
50.6582
50.6604
50.6627
50.665
50.6674
50.6697
50.6721
50.6745
50.6769
50.6793
50.6817
50.6842
50.6867
50.6891
50.6917
50.6942
50.6967
50.6993
50.7019
50.7045
50.7071
50.7098
50.7124
50.7151
50.7178
50.7205
50.7232
50.726
50.7288
50.7315
50.7344
50.7372
50.74
50.7429
50.7458
50.7487
50.7516
50.7545
50.7575
50.7605
50.7635
50.7665
50.7695
50.7726
50.7756
50.7787
50.7818
50.785
50.7881
50.7913
50.7945
50.7977
50.8009
50.8042
50.8074
50.8107
50.814
50.8173
50.8207
50.824
50.8274
50.8308
50.8342
50.8377
50.8411
50.8446
50.8481
50.8516
50.8552
50.8587
50.8623
50.8659
50.8695
50.8731
50.8768
50.8804
50.8841
50.8878
50.8916
50.8953
50.8991
50.9029
50.9067
50.9105
50.9144
50.9182
50.9221
50.926
50.9299
50.9339
50.9379
50.9418
50.9458
50.9499
50.9539
50.958
50.962
50.9661
50.9703
50.9744
50.9786
50.9827
50.9869
50.9911
50.9954
50.9996
51.0039
51.0082
51.0125
51.0169
51.0212
51.0256
51.03
51.0344
51.0388
51.0432
51.0477
51.0522
51.0567
51.0612
51.0658
51.0703
51.0749
51.0795
51.0841
51.0888
51.0934
51.0981
51.1028
51.1075
51.1122
51.117
51.1217
51.1265
51.1313
51.1362
51.141
51.1459
51.1507
51.1556
51.1606
51.1655
51.1704
51.1754
51.1804
51.1854
51.1904
51.1955
51.2005
51.2056
51.2107
51.2158
51.221
51.2261
51.2313
51.2365
51.2417
51.2469
51.2521
51.2574
51.2627
51.2679
51.2733
51.2786
51.2839
51.2893
51.2947
51.3
51.3055
51.3109
51.3163
51.3218
51.3273
51.3327
51.3383
51.3438
51.3493
51.3549
51.3605
51.366
51.3716
51.3773
51.3829
51.3885
51.3942
51.3999
51.4056
51.4113
51.4171
51.4227
51.4286
51.4343
51.4402
51.4458
51.4518
51.4575
51.4635
51.4692
51.4753
51.4809
51.4871
51.4927
51.499
51.5046
51.511
51.5168
51.5236
51.5296
50.4836
50.4836
50.4837
50.4837
50.4838
50.4838
50.4839
50.4839
50.4839
50.484
50.4841
50.4841
50.4842
50.4843
50.4844
50.4844
50.4845
50.4846
50.4847
50.4848
50.485
50.4851
50.4852
50.4853
50.4855
50.4856
50.4858
50.4859
50.4861
50.4862
50.4864
50.4866
50.4868
50.487
50.4872
50.4874
50.4876
50.4878
50.488
50.4883
50.4885
50.4887
50.489
50.4892
50.4895
50.4898
50.4901
50.4904
50.4907
50.491
50.4913
50.4916
50.4919
50.4923
50.4926
50.493
50.4933
50.4937
50.4941
50.4945
50.4949
50.4953
50.4957
50.4961
50.4965
50.497
50.4974
50.4979
50.4984
50.4988
50.4993
50.4998
50.5003
50.5008
50.5013
50.5018
50.5023
50.5029
50.5034
50.504
50.5046
50.5051
50.5058
50.5064
50.5071
50.5077
50.5084
50.5091
50.5099
50.5106
50.5113
50.512
50.5128
50.5135
50.5143
50.515
50.5158
50.5165
50.5173
50.5181
50.5189
50.5197
50.5205
50.5214
50.5222
50.5231
50.524
50.525
50.5259
50.5268
50.5278
50.5288
50.5297
50.5307
50.5318
50.5328
50.5339
50.5349
50.536
50.5371
50.5383
50.5394
50.5406
50.5417
50.5429
50.5441
50.5452
50.5464
50.5476
50.5488
50.55
50.5513
50.5525
50.5538
50.555
50.5563
50.5577
50.559
50.5604
50.5618
50.5632
50.5646
50.5661
50.5675
50.569
50.5705
50.572
50.5735
50.575
50.5766
50.5781
50.5797
50.5813
50.5829
50.5845
50.5861
50.5878
50.5894
50.5911
50.5928
50.5945
50.5962
50.598
50.5997
50.6015
50.6033
50.6051
50.6069
50.6088
50.6106
50.6125
50.6144
50.6163
50.6182
50.6202
50.6221
50.6241
50.6261
50.6281
50.6302
50.6322
50.6343
50.6364
50.6385
50.6406
50.6427
50.6449
50.647
50.6492
50.6514
50.6537
50.6559
50.6582
50.6604
50.6627
50.665
50.6674
50.6697
50.6721
50.6745
50.6769
50.6793
50.6817
50.6842
50.6867
50.6891
50.6917
50.6942
50.6967
50.6993
50.7019
50.7045
50.7071
50.7098
50.7124
50.7151
50.7178
50.7205
50.7232
50.726
50.7288
50.7315
50.7344
50.7372
50.74
50.7429
50.7458
50.7487
50.7516
50.7545
50.7575
50.7605
50.7635
50.7665
50.7695
50.7726
50.7756
50.7787
50.7818
50.785
50.7881
50.7913
50.7945
50.7977
50.8009
50.8042
50.8074
50.8107
50.814
50.8173
50.8207
50.824
50.8274
50.8308
50.8342
50.8377
50.8411
50.8446
50.8481
50.8516
50.8552
50.8587
50.8623
50.8659
50.8695
50.8731
50.8768
50.8804
50.8841
50.8878
50.8916
50.8953
50.8991
50.9029
50.9067
50.9105
50.9144
50.9182
50.9221
50.926
50.9299
50.9339
50.9379
50.9418
50.9458
50.9499
50.9539
50.958
50.962
50.9661
50.9703
50.9744
50.9786
50.9827
50.9869
50.9911
50.9954
50.9996
51.0039
51.0082
51.0125
51.0169
51.0212
51.0256
51.03
51.0344
51.0388
51.0432
51.0477
51.0522
51.0567
51.0612
51.0658
51.0703
51.0749
51.0795
51.0841
51.0888
51.0934
51.0981
51.1028
51.1075
51.1122
51.117
51.1217
51.1265
51.1313
51.1362
51.141
51.1459
51.1507
51.1556
51.1606
51.1655
51.1704
51.1754
51.1804
51.1854
51.1904
51.1955
51.2005
51.2056
51.2107
51.2158
51.221
51.2261
51.2313
51.2365
51.2417
51.2469
51.2521
51.2574
51.2627
51.2679
51.2733
51.2786
51.2839
51.2893
51.2947
51.3
51.3055
51.3109
51.3163
51.3218
51.3273
51.3327
51.3383
51.3438
51.3493
51.3549
51.3604
51.366
51.3716
51.3773
51.3829
51.3886
51.3942
51.3999
51.4056
51.4113
51.4171
51.4228
51.4286
51.4343
51.4402
51.4459
51.4518
51.4576
51.4634
51.4693
51.4751
51.4811
51.4869
51.4929
51.4988
51.5047
51.5107
51.5164
51.522
51.5274
50.4836
50.4836
50.4837
50.4837
50.4838
50.4838
50.4839
50.4839
50.484
50.484
50.4841
50.4841
50.4842
50.4843
50.4844
50.4844
50.4845
50.4846
50.4847
50.4848
50.485
50.4851
50.4852
50.4853
50.4855
50.4856
50.4858
50.4859
50.4861
50.4862
50.4864
50.4866
50.4868
50.487
50.4872
50.4874
50.4876
50.4878
50.488
50.4883
50.4885
50.4887
50.489
50.4893
50.4895
50.4898
50.4901
50.4904
50.4907
50.491
50.4913
50.4916
50.4919
50.4923
50.4926
50.493
50.4933
50.4937
50.4941
50.4945
50.4949
50.4953
50.4957
50.4961
50.4965
50.497
50.4974
50.4979
50.4984
50.4988
50.4993
50.4998
50.5003
50.5008
50.5013
50.5018
50.5023
50.5029
50.5034
50.504
50.5046
50.5052
50.5058
50.5064
50.5071
50.5078
50.5084
50.5092
50.5099
50.5106
50.5113
50.512
50.5128
50.5135
50.5143
50.515
50.5158
50.5165
50.5173
50.5181
50.5189
50.5197
50.5205
50.5214
50.5223
50.5231
50.524
50.525
50.5259
50.5268
50.5278
50.5288
50.5297
50.5307
50.5318
50.5328
50.5339
50.5349
50.536
50.5371
50.5383
50.5394
50.5406
50.5417
50.5429
50.5441
50.5452
50.5464
50.5476
50.5488
50.55
50.5513
50.5525
50.5538
50.555
50.5563
50.5577
50.559
50.5604
50.5618
50.5632
50.5646
50.5661
50.5675
50.569
50.5705
50.572
50.5735
50.575
50.5766
50.5781
50.5797
50.5813
50.5829
50.5845
50.5861
50.5878
50.5894
50.5911
50.5928
50.5945
50.5962
50.598
50.5997
50.6015
50.6033
50.6051
50.6069
50.6088
50.6106
50.6125
50.6144
50.6163
50.6182
50.6202
50.6221
50.6241
50.6261
50.6281
50.6302
50.6322
50.6343
50.6364
50.6385
50.6406
50.6427
50.6449
50.647
50.6492
50.6514
50.6537
50.6559
50.6582
50.6604
50.6627
50.665
50.6674
50.6697
50.6721
50.6745
50.6769
50.6793
50.6817
50.6842
50.6867
50.6891
50.6917
50.6942
50.6967
50.6993
50.7019
50.7045
50.7071
50.7098
50.7124
50.7151
50.7178
50.7205
50.7232
50.726
50.7288
50.7315
50.7344
50.7372
50.74
50.7429
50.7458
50.7487
50.7516
50.7545
50.7575
50.7605
50.7635
50.7665
50.7695
50.7726
50.7756
50.7787
50.7818
50.785
50.7881
50.7913
50.7945
50.7977
50.8009
50.8042
50.8074
50.8107
50.814
50.8173
50.8207
50.824
50.8274
50.8308
50.8342
50.8377
50.8411
50.8446
50.8481
50.8516
50.8552
50.8587
50.8623
50.8659
50.8695
50.8731
50.8768
50.8804
50.8841
50.8878
50.8916
50.8953
50.8991
50.9029
50.9067
50.9105
50.9144
50.9182
50.9221
50.926
50.9299
50.9339
50.9379
50.9418
50.9458
50.9499
50.9539
50.958
50.962
50.9661
50.9703
50.9744
50.9786
50.9827
50.9869
50.9911
50.9954
50.9996
51.0039
51.0082
51.0125
51.0169
51.0212
51.0256
51.03
51.0344
51.0388
51.0432
51.0477
51.0522
51.0567
51.0612
51.0658
51.0703
51.0749
51.0795
51.0841
51.0888
51.0934
51.0981
51.1028
51.1075
51.1122
51.117
51.1217
51.1265
51.1313
51.1362
51.141
51.1459
51.1507
51.1556
51.1606
51.1655
51.1704
51.1754
51.1804
51.1854
51.1904
51.1955
51.2005
51.2056
51.2107
51.2158
51.221
51.2261
51.2313
51.2365
51.2417
51.2469
51.2521
51.2574
51.2627
51.2679
51.2733
51.2786
51.2839
51.2893
51.2947
51.3
51.3055
51.3109
51.3163
51.3218
51.3273
51.3327
51.3383
51.3438
51.3493
51.3549
51.3604
51.366
51.3716
51.3773
51.3829
51.3886
51.3942
51.3999
51.4056
51.4113
51.4171
51.4228
51.4285
51.4344
51.4401
51.446
51.4517
51.4576
51.4634
51.4693
51.4752
51.481
51.4871
51.4928
51.4988
51.5047
51.5103
51.5161
51.5207
51.5253
50.4836
50.4837
50.4837
50.4838
50.4838
50.4838
50.4839
50.4839
50.484
50.484
50.4841
50.4841
50.4842
50.4843
50.4844
50.4845
50.4845
50.4846
50.4847
50.4849
50.485
50.4851
50.4852
50.4853
50.4855
50.4856
50.4858
50.4859
50.4861
50.4863
50.4864
50.4866
50.4868
50.487
50.4872
50.4874
50.4876
50.4878
50.488
50.4883
50.4885
50.4888
50.489
50.4893
50.4895
50.4898
50.4901
50.4904
50.4907
50.491
50.4913
50.4916
50.4919
50.4923
50.4926
50.493
50.4933
50.4937
50.4941
50.4945
50.4949
50.4953
50.4957
50.4961
50.4965
50.497
50.4974
50.4979
50.4984
50.4988
50.4993
50.4998
50.5003
50.5008
50.5013
50.5018
50.5023
50.5029
50.5034
50.504
50.5046
50.5052
50.5058
50.5064
50.5071
50.5078
50.5085
50.5092
50.5099
50.5106
50.5113
50.512
50.5128
50.5135
50.5143
50.515
50.5158
50.5165
50.5173
50.5181
50.5189
50.5197
50.5205
50.5214
50.5223
50.5231
50.524
50.525
50.5259
50.5268
50.5278
50.5288
50.5298
50.5307
50.5318
50.5328
50.5339
50.5349
50.536
50.5371
50.5383
50.5394
50.5406
50.5417
50.5429
50.5441
50.5453
50.5464
50.5476
50.5488
50.5501
50.5513
50.5525
50.5538
50.555
50.5563
50.5577
50.559
50.5604
50.5618
50.5632
50.5646
50.5661
50.5675
50.569
50.5705
50.572
50.5735
50.575
50.5766
50.5781
50.5797
50.5813
50.5829
50.5845
50.5861
50.5878
50.5894
50.5911
50.5928
50.5945
50.5962
50.598
50.5997
50.6015
50.6033
50.6051
50.6069
50.6088
50.6106
50.6125
50.6144
50.6163
50.6182
50.6202
50.6221
50.6241
50.6261
50.6281
50.6302
50.6322
50.6343
50.6364
50.6385
50.6406
50.6427
50.6449
50.647
50.6492
50.6514
50.6537
50.6559
50.6582
50.6604
50.6627
50.665
50.6674
50.6697
50.6721
50.6745
50.6769
50.6793
50.6817
50.6842
50.6867
50.6891
50.6917
50.6942
50.6967
50.6993
50.7019
50.7045
50.7071
50.7098
50.7124
50.7151
50.7178
50.7205
50.7232
50.726
50.7288
50.7315
50.7344
50.7372
50.74
50.7429
50.7458
50.7487
50.7516
50.7545
50.7575
50.7605
50.7635
50.7665
50.7695
50.7726
50.7756
50.7787
50.7818
50.785
50.7881
50.7913
50.7945
50.7977
50.8009
50.8042
50.8074
50.8107
50.814
50.8173
50.8207
50.824
50.8274
50.8308
50.8342
50.8377
50.8411
50.8446
50.8481
50.8516
50.8552
50.8587
50.8623
50.8659
50.8695
50.8731
50.8768
50.8804
50.8841
50.8878
50.8916
50.8953
50.8991
50.9029
50.9067
50.9105
50.9144
50.9182
50.9221
50.926
50.9299
50.9339
50.9379
50.9418
50.9458
50.9499
50.9539
50.958
50.962
50.9661
50.9703
50.9744
50.9786
50.9827
50.9869
50.9911
50.9954
50.9996
51.0039
51.0082
51.0125
51.0169
51.0212
51.0256
51.03
51.0344
51.0388
51.0432
51.0477
51.0522
51.0567
51.0612
51.0658
51.0703
51.0749
51.0795
51.0841
51.0888
51.0934
51.0981
51.1028
51.1075
51.1122
51.117
51.1217
51.1265
51.1313
51.1362
51.141
51.1459
51.1507
51.1556
51.1606
51.1655
51.1704
51.1754
51.1804
51.1854
51.1904
51.1955
51.2005
51.2056
51.2107
51.2158
51.221
51.2261
51.2313
51.2365
51.2417
51.2469
51.2521
51.2574
51.2627
51.2679
51.2733
51.2786
51.2839
51.2893
51.2947
51.3
51.3055
51.3109
51.3163
51.3218
51.3273
51.3327
51.3383
51.3438
51.3493
51.3549
51.3604
51.366
51.3716
51.3773
51.3829
51.3886
51.3942
51.3999
51.4056
51.4113
51.4171
51.4228
51.4286
51.4344
51.4401
51.446
51.4516
51.4577
51.4633
51.4694
51.4751
51.4811
51.4869
51.493
51.4986
51.5049
51.5101
51.5161
51.5201
51.5284
50.4836
50.4837
50.4837
50.4838
50.4838
50.4838
50.4839
50.4839
50.484
50.484
50.4841
50.4842
50.4842
50.4843
50.4844
50.4845
50.4846
50.4846
50.4848
50.4849
50.485
50.4851
50.4852
50.4853
50.4855
50.4856
50.4858
50.4859
50.4861
50.4863
50.4864
50.4866
50.4868
50.487
50.4872
50.4874
50.4876
50.4878
50.488
50.4883
50.4885
50.4888
50.489
50.4893
50.4895
50.4898
50.4901
50.4904
50.4907
50.491
50.4913
50.4916
50.4919
50.4923
50.4926
50.493
50.4933
50.4937
50.4941
50.4945
50.4949
50.4953
50.4957
50.4961
50.4965
50.497
50.4974
50.4979
50.4984
50.4988
50.4993
50.4998
50.5003
50.5008
50.5013
50.5018
50.5023
50.5029
50.5034
50.504
50.5046
50.5052
50.5058
50.5064
50.5071
50.5078
50.5085
50.5092
50.5099
50.5106
50.5113
50.512
50.5128
50.5135
50.5143
50.515
50.5158
50.5165
50.5173
50.5181
50.5189
50.5197
50.5205
50.5214
50.5223
50.5231
50.5241
50.525
50.5259
50.5268
50.5278
50.5288
50.5298
50.5307
50.5318
50.5328
50.5339
50.5349
50.536
50.5371
50.5383
50.5394
50.5406
50.5417
50.5429
50.5441
50.5453
50.5464
50.5476
50.5488
50.5501
50.5513
50.5525
50.5538
50.555
50.5563
50.5577
50.559
50.5604
50.5618
50.5632
50.5646
50.5661
50.5675
50.569
50.5705
50.572
50.5735
50.575
50.5766
50.5781
50.5797
50.5813
50.5829
50.5845
50.5861
50.5878
50.5894
50.5911
50.5928
50.5945
50.5962
50.598
50.5997
50.6015
50.6033
50.6051
50.6069
50.6088
50.6106
50.6125
50.6144
50.6163
50.6182
50.6202
50.6221
50.6241
50.6261
50.6281
50.6302
50.6322
50.6343
50.6364
50.6385
50.6406
50.6427
50.6449
50.647
50.6492
50.6514
50.6537
50.6559
50.6582
50.6604
50.6627
50.665
50.6674
50.6697
50.6721
50.6745
50.6769
50.6793
50.6817
50.6842
50.6867
50.6891
50.6917
50.6942
50.6967
50.6993
50.7019
50.7045
50.7071
50.7098
50.7124
50.7151
50.7178
50.7205
50.7232
50.726
50.7288
50.7315
50.7344
50.7372
50.74
50.7429
50.7458
50.7487
50.7516
50.7545
50.7575
50.7605
50.7635
50.7665
50.7695
50.7726
50.7756
50.7787
50.7818
50.785
50.7881
50.7913
50.7945
50.7977
50.8009
50.8042
50.8074
50.8107
50.814
50.8173
50.8207
50.824
50.8274
50.8308
50.8342
50.8377
50.8411
50.8446
50.8481
50.8516
50.8552
50.8587
50.8623
50.8659
50.8695
50.8731
50.8768
50.8804
50.8841
50.8878
50.8916
50.8953
50.8991
50.9029
50.9067
50.9105
50.9144
50.9182
50.9221
50.926
50.9299
50.9339
50.9379
50.9418
50.9458
50.9499
50.9539
50.958
50.962
50.9661
50.9703
50.9744
50.9786
50.9827
50.9869
50.9911
50.9954
50.9996
51.0039
51.0082
51.0125
51.0169
51.0212
51.0256
51.03
51.0344
51.0388
51.0432
51.0477
51.0522
51.0567
51.0612
51.0658
51.0703
51.0749
51.0795
51.0841
51.0888
51.0934
51.0981
51.1028
51.1075
51.1122
51.117
51.1217
51.1265
51.1313
51.1362
51.141
51.1459
51.1507
51.1556
51.1606
51.1655
51.1704
51.1754
51.1804
51.1854
51.1904
51.1955
51.2005
51.2056
51.2107
51.2158
51.221
51.2261
51.2313
51.2365
51.2417
51.2469
51.2521
51.2574
51.2627
51.2679
51.2733
51.2786
51.2839
51.2893
51.2946
51.3
51.3055
51.3109
51.3163
51.3218
51.3273
51.3327
51.3383
51.3438
51.3493
51.3549
51.3604
51.366
51.3716
51.3773
51.3829
51.3886
51.3942
51.3999
51.4056
51.4113
51.4171
51.4228
51.4285
51.4344
51.4401
51.446
51.4516
51.4577
51.4633
51.4694
51.475
51.4812
51.4868
51.493
51.4986
51.5048
51.5101
51.5161
51.5198
51.5309
50.4831
50.4832
50.4832
50.4833
50.4833
50.4833
50.4834
50.4834
50.4835
50.4835
50.4836
50.4837
50.4837
50.4838
50.4839
50.484
50.4841
50.4842
50.4843
50.4844
50.4845
50.4846
50.4847
50.4849
50.485
50.4851
50.4853
50.4855
50.4856
50.4858
50.486
50.4861
50.4863
50.4865
50.4867
50.4869
50.4871
50.4873
50.4876
50.4878
50.488
50.4883
50.4885
50.4888
50.4891
50.4894
50.4896
50.4899
50.4902
50.4905
50.4908
50.4912
50.4915
50.4918
50.4922
50.4925
50.4929
50.4933
50.4936
50.494
50.4944
50.4948
50.4953
50.4957
50.4961
50.4966
50.497
50.4975
50.4979
50.4984
50.4989
50.4994
50.4999
50.5004
50.5009
50.5014
50.5019
50.5024
50.503
50.5036
50.5041
50.5047
50.5054
50.506
50.5067
50.5074
50.508
50.5088
50.5095
50.5102
50.5109