/*--------------------------------*- C++ -*----------------------------------*\
| =========                 |                                                 |
| \\      /  F ield         | OpenFOAM: The Open Source CFD Toolbox           |
|  \\    /   O peration     | Version:  3.0.x                                 |
|   \\  /    A nd           | Web:      www.OpenFOAM.org                      |
|    \\/     M anipulation  |                                                 |
\*---------------------------------------------------------------------------*/
FoamFile
{
    version     2.0;
    format      ascii;
    class       volScalarField;
    location    "0.48";
    object      T;
}
// * * * * * * * * * * * * * * * * * * * * * * * * * * * * * * * * * * * * * //

dimensions      [0 0 0 1 0 0 0];

internalField   nonuniform List<scalar> 
27600
(
773.062
773.061
773.061
773.061
773.061
773.061
773.061
773.061
773.061
773.061
773.061
773.062
773.062
773.062
773.062
773.063
773.063
773.063
773.063
773.064
773.064
773.064
773.065
773.065
773.066
773.066
773.066
773.067
773.067
773.068
773.068
773.069
773.069
773.07
773.071
773.071
773.072
773.072
773.073
773.074
773.075
773.075
773.076
773.077
773.078
773.079
773.079
773.08
773.081
773.082
773.083
773.084
773.085
773.086
773.087
773.088
773.089
773.09
773.091
773.093
773.094
773.095
773.096
773.098
773.099
773.1
773.102
773.103
773.105
773.106
773.108
773.109
773.111
773.113
773.115
773.117
773.119
773.121
773.124
773.126
773.128
773.129
773.131
773.133
773.134
773.136
773.137
773.139
773.14
773.142
773.144
773.146
773.148
773.15
773.153
773.155
773.158
773.161
773.164
773.167
773.17
773.173
773.175
773.178
773.181
773.183
773.186
773.189
773.192
773.195
773.197
773.2
773.203
773.206
773.209
773.212
773.215
773.218
773.22
773.223
773.226
773.229
773.232
773.235
773.239
773.242
773.245
773.249
773.253
773.257
773.261
773.266
773.27
773.274
773.278
773.283
773.287
773.291
773.295
773.299
773.302
773.306
773.31
773.314
773.318
773.322
773.326
773.331
773.335
773.34
773.344
773.349
773.354
773.359
773.364
773.369
773.374
773.379
773.384
773.389
773.394
773.399
773.405
773.41
773.416
773.421
773.427
773.432
773.438
773.444
773.449
773.455
773.461
773.467
773.473
773.479
773.485
773.491
773.497
773.503
773.51
773.516
773.522
773.529
773.535
773.542
773.549
773.555
773.562
773.569
773.575
773.582
773.589
773.596
773.603
773.61
773.617
773.625
773.632
773.639
773.647
773.654
773.661
773.669
773.677
773.684
773.692
773.7
773.707
773.715
773.723
773.731
773.739
773.747
773.755
773.764
773.772
773.78
773.788
773.797
773.805
773.814
773.822
773.831
773.84
773.849
773.857
773.866
773.875
773.884
773.893
773.902
773.912
773.921
773.93
773.939
773.949
773.958
773.968
773.977
773.987
773.997
774.006
774.016
774.026
774.036
774.046
774.056
774.066
774.076
774.086
774.097
774.107
774.117
774.128
774.138
774.149
774.159
774.17
774.181
774.192
774.203
774.213
774.224
774.235
774.247
774.258
774.269
774.28
774.291
774.303
774.314
774.326
774.337
774.349
774.361
774.372
774.384
774.396
774.408
774.42
774.432
774.444
774.456
774.468
774.481
774.493
774.505
774.518
774.53
774.543
774.555
774.568
774.581
774.594
774.606
774.619
774.632
774.645
774.658
774.672
774.685
774.698
774.711
774.725
774.738
774.752
774.765
774.779
774.792
774.806
774.82
774.834
774.848
774.861
774.875
774.89
774.904
774.918
774.932
774.946
774.961
774.975
774.989
775.004
775.018
775.033
775.048
775.062
775.077
775.092
775.107
775.122
775.137
775.152
775.167
775.182
775.197
775.213
775.228
775.243
775.259
775.274
775.29
775.305
775.321
775.337
775.352
775.368
775.384
775.4
775.416
775.432
775.448
775.464
775.48
775.496
775.513
775.529
775.545
775.562
775.578
775.595
775.611
775.628
775.644
775.661
775.678
775.695
775.712
775.728
775.745
775.762
775.779
775.796
775.814
775.83
775.848
775.865
775.883
775.899
775.918
775.934
775.953
775.968
775.988
776.003
776.024
776.038
776.06
776.074
776.096
776.109
776.132
776.145
776.169
776.182
776.21
776.227
776.292
773.054
773.054
773.053
773.053
773.053
773.053
773.053
773.053
773.054
773.054
773.054
773.054
773.054
773.055
773.055
773.055
773.055
773.056
773.056
773.056
773.057
773.057
773.057
773.058
773.058
773.059
773.059
773.06
773.06
773.061
773.061
773.062
773.062
773.063
773.063
773.064
773.065
773.065
773.066
773.067
773.067
773.068
773.069
773.07
773.071
773.071
773.072
773.073
773.074
773.075
773.076
773.077
773.078
773.079
773.08
773.081
773.082
773.084
773.085
773.086
773.087
773.088
773.09
773.091
773.092
773.094
773.095
773.097
773.098
773.099
773.101
773.102
773.104
773.106
773.108
773.11
773.113
773.115
773.117
773.119
773.121
773.123
773.125
773.127
773.128
773.13
773.131
773.133
773.134
773.136
773.138
773.14
773.142
773.144
773.146
773.149
773.152
773.155
773.158
773.161
773.164
773.166
773.169
773.172
773.175
773.178
773.18
773.183
773.186
773.189
773.192
773.195
773.198
773.201
773.204
773.207
773.209
773.212
773.215
773.218
773.22
773.223
773.226
773.23
773.233
773.236
773.24
773.243
773.247
773.251
773.256
773.26
773.264
773.269
773.273
773.277
773.281
773.285
773.289
773.293
773.297
773.301
773.305
773.309
773.313
773.317
773.321
773.326
773.33
773.335
773.339
773.344
773.349
773.354
773.359
773.364
773.369
773.374
773.379
773.384
773.389
773.395
773.4
773.405
773.411
773.416
773.422
773.427
773.433
773.439
773.444
773.45
773.456
773.462
773.468
773.474
773.48
773.486
773.492
773.499
773.505
773.511
773.518
773.524
773.53
773.537
773.544
773.55
773.557
773.564
773.571
773.577
773.584
773.591
773.598
773.605
773.613
773.62
773.627
773.634
773.642
773.649
773.656
773.664
773.672
773.679
773.687
773.695
773.702
773.71
773.718
773.726
773.734
773.742
773.75
773.759
773.767
773.775
773.784
773.792
773.8
773.809
773.818
773.826
773.835
773.844
773.852
773.861
773.87
773.879
773.888
773.897
773.907
773.916
773.925
773.934
773.944
773.953
773.963
773.972
773.982
773.992
774.001
774.011
774.021
774.031
774.041
774.051
774.061
774.071
774.081
774.092
774.102
774.112
774.123
774.133
774.144
774.155
774.165
774.176
774.187
774.198
774.208
774.219
774.23
774.242
774.253
774.264
774.275
774.287
774.298
774.309
774.321
774.332
774.344
774.356
774.367
774.379
774.391
774.403
774.415
774.427
774.439
774.451
774.463
774.476
774.488
774.5
774.513
774.525
774.538
774.551
774.563
774.576
774.589
774.602
774.614
774.627
774.64
774.654
774.667
774.68
774.693
774.706
774.72
774.733
774.747
774.76
774.774
774.787
774.801
774.815
774.829
774.843
774.857
774.871
774.885
774.899
774.913
774.927
774.941
774.956
774.97
774.985
774.999
775.014
775.028
775.043
775.058
775.072
775.087
775.102
775.117
775.132
775.147
775.162
775.177
775.193
775.208
775.223
775.238
775.254
775.269
775.285
775.301
775.316
775.332
775.348
775.363
775.379
775.395
775.411
775.427
775.443
775.459
775.475
775.492
775.508
775.524
775.54
775.557
775.573
775.59
775.606
775.623
775.64
775.656
775.673
775.69
775.707
775.724
775.74
775.757
775.775
775.791
775.809
775.826
775.843
775.86
775.878
775.894
775.913
775.929
775.948
775.964
775.984
775.999
776.019
776.034
776.055
776.069
776.091
776.104
776.127
776.14
776.164
776.177
776.205
776.222
776.278
773.054
773.054
773.053
773.053
773.053
773.053
773.053
773.053
773.054
773.054
773.054
773.054
773.054
773.055
773.055
773.055
773.055
773.056
773.056
773.056
773.057
773.057
773.057
773.058
773.058
773.059
773.059
773.06
773.06
773.061
773.061
773.062
773.062
773.063
773.063
773.064
773.065
773.065
773.066
773.067
773.068
773.068
773.069
773.07
773.071
773.072
773.072
773.073
773.074
773.075
773.076
773.077
773.078
773.079
773.08
773.081
773.082
773.084
773.085
773.086
773.087
773.088
773.09
773.091
773.092
773.094
773.095
773.097
773.098
773.099
773.101
773.102
773.104
773.106
773.108
773.111
773.113
773.115
773.117
773.119
773.121
773.123
773.125
773.127
773.128
773.13
773.131
773.133
773.134
773.136
773.138
773.14
773.142
773.144
773.146
773.149
773.152
773.155
773.158
773.161
773.164
773.166
773.169
773.172
773.175
773.178
773.18
773.183
773.186
773.189
773.192
773.195
773.198
773.201
773.204
773.207
773.209
773.212
773.215
773.218
773.22
773.223
773.226
773.23
773.233
773.236
773.24
773.243
773.247
773.251
773.256
773.26
773.264
773.269
773.273
773.277
773.281
773.285
773.289
773.293
773.297
773.301
773.305
773.309
773.313
773.317
773.321
773.326
773.33
773.335
773.339
773.344
773.349
773.354
773.359
773.364
773.369
773.374
773.379
773.384
773.389
773.395
773.4
773.405
773.411
773.416
773.422
773.427
773.433
773.439
773.444
773.45
773.456
773.462
773.468
773.474
773.48
773.486
773.492
773.499
773.505
773.511
773.518
773.524
773.53
773.537
773.544
773.55
773.557
773.564
773.57
773.577
773.584
773.591
773.598
773.605
773.612
773.62
773.627
773.634
773.642
773.649
773.656
773.664
773.672
773.679
773.687
773.695
773.702
773.71
773.718
773.726
773.734
773.742
773.75
773.759
773.767
773.775
773.784
773.792
773.8
773.809
773.818
773.826
773.835
773.844
773.852
773.861
773.87
773.879
773.888
773.897
773.907
773.916
773.925
773.934
773.944
773.953
773.963
773.972
773.982
773.992
774.001
774.011
774.021
774.031
774.041
774.051
774.061
774.071
774.081
774.092
774.102
774.112
774.123
774.133
774.144
774.155
774.165
774.176
774.187
774.198
774.208
774.219
774.23
774.242
774.253
774.264
774.275
774.287
774.298
774.309
774.321
774.332
774.344
774.356
774.367
774.379
774.391
774.403
774.415
774.427
774.439
774.451
774.463
774.476
774.488
774.5
774.513
774.525
774.538
774.55
774.563
774.576
774.589
774.602
774.614
774.627
774.64
774.653
774.667
774.68
774.693
774.706
774.72
774.733
774.747
774.76
774.774
774.787
774.801
774.815
774.829
774.843
774.857
774.871
774.885
774.899
774.913
774.927
774.941
774.956
774.97
774.985
774.999
775.014
775.028
775.043
775.058
775.072
775.087
775.102
775.117
775.132
775.147
775.162
775.177
775.193
775.208
775.223
775.238
775.254
775.269
775.285
775.3
775.316
775.332
775.348
775.363
775.379
775.395
775.411
775.427
775.443
775.459
775.475
775.492
775.508
775.524
775.54
775.557
775.573
775.59
775.606
775.623
775.64
775.656
775.673
775.69
775.707
775.724
775.74
775.757
775.775
775.791
775.809
775.826
775.843
775.86
775.878
775.894
775.913
775.929
775.948
775.964
775.984
775.999
776.019
776.034
776.055
776.069
776.091
776.104
776.127
776.14
776.164
776.177
776.205
776.222
776.272
773.054
773.054
773.054
773.053
773.053
773.053
773.053
773.054
773.054
773.054
773.054
773.054
773.055
773.055
773.055
773.055
773.056
773.056
773.056
773.056
773.057
773.057
773.058
773.058
773.058
773.059
773.059
773.06
773.06
773.061
773.061
773.062
773.062
773.063
773.064
773.064
773.065
773.066
773.066
773.067
773.068
773.068
773.069
773.07
773.071
773.072
773.073
773.073
773.074
773.075
773.076
773.077
773.078
773.079
773.08
773.081
773.083
773.084
773.085
773.086
773.087
773.088
773.09
773.091
773.092
773.094
773.095
773.097
773.098
773.1
773.101
773.103
773.104
773.106
773.108
773.111
773.113
773.115
773.117
773.119
773.121
773.123
773.125
773.127
773.128
773.13
773.131
773.133
773.134
773.136
773.138
773.14
773.142
773.144
773.146
773.149
773.152
773.155
773.158
773.161
773.164
773.167
773.169
773.172
773.175
773.178
773.18
773.183
773.186
773.189
773.192
773.195
773.198
773.201
773.204
773.207
773.209
773.212
773.215
773.218
773.221
773.223
773.227
773.23
773.233
773.236
773.24
773.243
773.247
773.251
773.256
773.26
773.264
773.269
773.273
773.277
773.281
773.285
773.29
773.293
773.297
773.301
773.305
773.309
773.313
773.317
773.321
773.326
773.33
773.335
773.339
773.344
773.349
773.354
773.359
773.364
773.369
773.374
773.379
773.384
773.389
773.395
773.4
773.405
773.411
773.416
773.422
773.427
773.433
773.439
773.444
773.45
773.456
773.462
773.468
773.474
773.48
773.486
773.492
773.499
773.505
773.511
773.518
773.524
773.53
773.537
773.544
773.55
773.557
773.564
773.57
773.577
773.584
773.591
773.598
773.605
773.612
773.62
773.627
773.634
773.642
773.649
773.656
773.664
773.672
773.679
773.687
773.695
773.702
773.71
773.718
773.726
773.734
773.742
773.75
773.759
773.767
773.775
773.784
773.792
773.8
773.809
773.818
773.826
773.835
773.844
773.852
773.861
773.87
773.879
773.888
773.897
773.907
773.916
773.925
773.934
773.944
773.953
773.963
773.972
773.982
773.992
774.001
774.011
774.021
774.031
774.041
774.051
774.061
774.071
774.081
774.092
774.102
774.112
774.123
774.133
774.144
774.155
774.165
774.176
774.187
774.198
774.208
774.219
774.23
774.242
774.253
774.264
774.275
774.287
774.298
774.309
774.321
774.332
774.344
774.356
774.367
774.379
774.391
774.403
774.415
774.427
774.439
774.451
774.463
774.476
774.488
774.5
774.513
774.525
774.538
774.55
774.563
774.576
774.589
774.602
774.614
774.627
774.64
774.653
774.667
774.68
774.693
774.706
774.72
774.733
774.747
774.76
774.774
774.787
774.801
774.815
774.829
774.843
774.857
774.871
774.885
774.899
774.913
774.927
774.941
774.956
774.97
774.985
774.999
775.014
775.028
775.043
775.058
775.072
775.087
775.102
775.117
775.132
775.147
775.162
775.177
775.193
775.208
775.223
775.238
775.254
775.269
775.285
775.3
775.316
775.332
775.348
775.363
775.379
775.395
775.411
775.427
775.443
775.459
775.475
775.492
775.508
775.524
775.54
775.557
775.573
775.59
775.606
775.623
775.64
775.656
775.673
775.69
775.707
775.724
775.74
775.757
775.775
775.791
775.809
775.826
775.843
775.86
775.878
775.894
775.913
775.929
775.948
775.964
775.984
775.999
776.019
776.034
776.055
776.069
776.091
776.104
776.127
776.14
776.164
776.177
776.203
776.221
776.259
773.054
773.054
773.054
773.054
773.054
773.054
773.054
773.054
773.054
773.054
773.054
773.054
773.055
773.055
773.055
773.055
773.056
773.056
773.056
773.057
773.057
773.057
773.058
773.058
773.058
773.059
773.059
773.06
773.06
773.061
773.061
773.062
773.062
773.063
773.064
773.064
773.065
773.066
773.066
773.067
773.068
773.069
773.069
773.07
773.071
773.072
773.073
773.074
773.074
773.075
773.076
773.077
773.078
773.079
773.08
773.081
773.083
773.084
773.085
773.086
773.087
773.089
773.09
773.091
773.093
773.094
773.095
773.097
773.098
773.1
773.101
773.103
773.104
773.106
773.108
773.111
773.113
773.115
773.117
773.119
773.121
773.123
773.125
773.127
773.128
773.13
773.131
773.133
773.134
773.136
773.138
773.14
773.142
773.144
773.147
773.149
773.152
773.155
773.158
773.161
773.164
773.167
773.169
773.172
773.175
773.178
773.18
773.183
773.186
773.189
773.192
773.195
773.198
773.201
773.204
773.207
773.209
773.212
773.215
773.218
773.221
773.223
773.227
773.23
773.233
773.236
773.24
773.243
773.247
773.251
773.256
773.26
773.264
773.269
773.273
773.277
773.281
773.286
773.29
773.293
773.297
773.301
773.305
773.309
773.313
773.317
773.321
773.326
773.33
773.335
773.339
773.344
773.349
773.354
773.359
773.364
773.369
773.374
773.379
773.384
773.389
773.395
773.4
773.405
773.411
773.416
773.422
773.427
773.433
773.439
773.444
773.45
773.456
773.462
773.468
773.474
773.48
773.486
773.492
773.499
773.505
773.511
773.518
773.524
773.53
773.537
773.544
773.55
773.557
773.564
773.57
773.577
773.584
773.591
773.598
773.605
773.612
773.62
773.627
773.634
773.642
773.649
773.656
773.664
773.672
773.679
773.687
773.695
773.702
773.71
773.718
773.726
773.734
773.742
773.75
773.759
773.767
773.775
773.784
773.792
773.8
773.809
773.818
773.826
773.835
773.844
773.852
773.861
773.87
773.879
773.888
773.897
773.907
773.916
773.925
773.934
773.944
773.953
773.963
773.972
773.982
773.992
774.001
774.011
774.021
774.031
774.041
774.051
774.061
774.071
774.081
774.092
774.102
774.112
774.123
774.133
774.144
774.155
774.165
774.176
774.187
774.198
774.208
774.219
774.23
774.242
774.253
774.264
774.275
774.287
774.298
774.309
774.321
774.332
774.344
774.356
774.367
774.379
774.391
774.403
774.415
774.427
774.439
774.451
774.463
774.476
774.488
774.5
774.513
774.525
774.538
774.55
774.563
774.576
774.589
774.602
774.614
774.627
774.64
774.653
774.667
774.68
774.693
774.706
774.72
774.733
774.747
774.76
774.774
774.787
774.801
774.815
774.829
774.843
774.857
774.871
774.885
774.899
774.913
774.927
774.941
774.956
774.97
774.985
774.999
775.014
775.028
775.043
775.058
775.072
775.087
775.102
775.117
775.132
775.147
775.162
775.177
775.193
775.208
775.223
775.238
775.254
775.269
775.285
775.3
775.316
775.332
775.348
775.363
775.379
775.395
775.411
775.427
775.443
775.459
775.475
775.492
775.508
775.524
775.54
775.557
775.573
775.59
775.606
775.623
775.64
775.656
775.673
775.69
775.707
775.724
775.74
775.757
775.775
775.791
775.809
775.826
775.843
775.86
775.878
775.894
775.913
775.929
775.948
775.964
775.984
775.999
776.019
776.034
776.055
776.069
776.091
776.104
776.127
776.14
776.163
776.176
776.201
776.216
776.25
773.054
773.054
773.054
773.054
773.054
773.054
773.054
773.054
773.054
773.054
773.054
773.054
773.055
773.055
773.055
773.055
773.056
773.056
773.056
773.057
773.057
773.057
773.058
773.058
773.058
773.059
773.059
773.06
773.06
773.061
773.061
773.062
773.062
773.063
773.064
773.064
773.065
773.066
773.066
773.067
773.068
773.069
773.069
773.07
773.071
773.072
773.073
773.074
773.074
773.075
773.076
773.077
773.078
773.079
773.08
773.081
773.083
773.084
773.085
773.086
773.087
773.089
773.09
773.091
773.093
773.094
773.095
773.097
773.098
773.1
773.101
773.103
773.104
773.106
773.108
773.111
773.113
773.115
773.117
773.119
773.121
773.123
773.125
773.127
773.128
773.13
773.131
773.133
773.134
773.136
773.138
773.14
773.142
773.144
773.147
773.149
773.152
773.155
773.158
773.161
773.164
773.167
773.169
773.172
773.175
773.178
773.18
773.183
773.186
773.189
773.192
773.195
773.198
773.201
773.204
773.207
773.209
773.212
773.215
773.218
773.221
773.223
773.227
773.23
773.233
773.236
773.24
773.243
773.247
773.251
773.256
773.26
773.264
773.269
773.273
773.277
773.281
773.286
773.29
773.293
773.297
773.301
773.305
773.309
773.313
773.317
773.321
773.326
773.33
773.335
773.339
773.344
773.349
773.354
773.359
773.364
773.369
773.374
773.379
773.384
773.389
773.395
773.4
773.405
773.411
773.416
773.422
773.427
773.433
773.439
773.444
773.45
773.456
773.462
773.468
773.474
773.48
773.486
773.492
773.499
773.505
773.511
773.518
773.524
773.53
773.537
773.544
773.55
773.557
773.564
773.57
773.577
773.584
773.591
773.598
773.605
773.612
773.62
773.627
773.634
773.642
773.649
773.656
773.664
773.672
773.679
773.687
773.695
773.702
773.71
773.718
773.726
773.734
773.742
773.75
773.759
773.767
773.775
773.784
773.792
773.8
773.809
773.818
773.826
773.835
773.844
773.852
773.861
773.87
773.879
773.888
773.897
773.907
773.916
773.925
773.934
773.944
773.953
773.963
773.972
773.982
773.992
774.001
774.011
774.021
774.031
774.041
774.051
774.061
774.071
774.081
774.092
774.102
774.112
774.123
774.133
774.144
774.155
774.165
774.176
774.187
774.198
774.208
774.219
774.23
774.242
774.253
774.264
774.275
774.287
774.298
774.309
774.321
774.332
774.344
774.356
774.367
774.379
774.391
774.403
774.415
774.427
774.439
774.451
774.463
774.476
774.488
774.5
774.513
774.525
774.538
774.55
774.563
774.576
774.589
774.602
774.614
774.627
774.64
774.653
774.667
774.68
774.693
774.706
774.72
774.733
774.747
774.76
774.774
774.787
774.801
774.815
774.829
774.843
774.857
774.871
774.885
774.899
774.913
774.927
774.941
774.956
774.97
774.985
774.999
775.014
775.028
775.043
775.058
775.072
775.087
775.102
775.117
775.132
775.147
775.162
775.177
775.193
775.208
775.223
775.238
775.254
775.269
775.285
775.3
775.316
775.332
775.348
775.363
775.379
775.395
775.411
775.427
775.443
775.459
775.475
775.492
775.508
775.524
775.54
775.557
775.573
775.59
775.606
775.623
775.64
775.656
775.673
775.69
775.707
775.724
775.74
775.757
775.774
775.792
775.809
775.826
775.843
775.86
775.878
775.895
775.912
775.929
775.948
775.964
775.983
775.999
776.018
776.036
776.052
776.072
776.088
776.107
776.124
776.142
776.161
776.177
776.195
776.213
776.222
773.054
773.054
773.054
773.053
773.053
773.053
773.053
773.054
773.054
773.054
773.054
773.054
773.055
773.055
773.055
773.055
773.056
773.056
773.056
773.056
773.057
773.057
773.058
773.058
773.058
773.059
773.059
773.06
773.06
773.061
773.061
773.062
773.062
773.063
773.064
773.064
773.065
773.066
773.066
773.067
773.068
773.068
773.069
773.07
773.071
773.072
773.073
773.073
773.074
773.075
773.076
773.077
773.078
773.079
773.08
773.081
773.083
773.084
773.085
773.086
773.087
773.088
773.09
773.091
773.092
773.094
773.095
773.097
773.098
773.1
773.101
773.103
773.104
773.106
773.108
773.111
773.113
773.115
773.117
773.119
773.121
773.123
773.125
773.127
773.128
773.13
773.131
773.133
773.134
773.136
773.138
773.14
773.142
773.144
773.146
773.149
773.152
773.155
773.158
773.161
773.164
773.167
773.169
773.172
773.175
773.178
773.18
773.183
773.186
773.189
773.192
773.195
773.198
773.201
773.204
773.207
773.209
773.212
773.215
773.218
773.221
773.223
773.227
773.23
773.233
773.236
773.24
773.243
773.247
773.251
773.256
773.26
773.264
773.269
773.273
773.277
773.281
773.285
773.29
773.293
773.297
773.301
773.305
773.309
773.313
773.317
773.321
773.326
773.33
773.335
773.339
773.344
773.349
773.354
773.359
773.364
773.369
773.374
773.379
773.384
773.389
773.395
773.4
773.405
773.411
773.416
773.422
773.427
773.433
773.439
773.444
773.45
773.456
773.462
773.468
773.474
773.48
773.486
773.492
773.499
773.505
773.511
773.518
773.524
773.53
773.537
773.544
773.55
773.557
773.564
773.57
773.577
773.584
773.591
773.598
773.605
773.612
773.62
773.627
773.634
773.642
773.649
773.656
773.664
773.672
773.679
773.687
773.695
773.702
773.71
773.718
773.726
773.734
773.742
773.75
773.759
773.767
773.775
773.784
773.792
773.8
773.809
773.818
773.826
773.835
773.844
773.852
773.861
773.87
773.879
773.888
773.897
773.907
773.916
773.925
773.934
773.944
773.953
773.963
773.972
773.982
773.992
774.001
774.011
774.021
774.031
774.041
774.051
774.061
774.071
774.081
774.092
774.102
774.112
774.123
774.133
774.144
774.155
774.165
774.176
774.187
774.198
774.208
774.219
774.23
774.242
774.253
774.264
774.275
774.287
774.298
774.309
774.321
774.332
774.344
774.356
774.367
774.379
774.391
774.403
774.415
774.427
774.439
774.451
774.463
774.476
774.488
774.5
774.513
774.525
774.538
774.55
774.563
774.576
774.589
774.602
774.614
774.627
774.64
774.653
774.667
774.68
774.693
774.706
774.72
774.733
774.747
774.76
774.774
774.787
774.801
774.815
774.829
774.843
774.857
774.871
774.885
774.899
774.913
774.927
774.941
774.956
774.97
774.985
774.999
775.014
775.028
775.043
775.058
775.072
775.087
775.102
775.117
775.132
775.147
775.162
775.177
775.193
775.208
775.223
775.238
775.254
775.269
775.285
775.3
775.316
775.332
775.348
775.363
775.379
775.395
775.411
775.427
775.443
775.459
775.475
775.492
775.508
775.524
775.54
775.557
775.573
775.59
775.606
775.623
775.64
775.656
775.673
775.69
775.707
775.724
775.74
775.757
775.774
775.792
775.809
775.826
775.843
775.86
775.878
775.895
775.912
775.93
775.947
775.966
775.981
776.001
776.017
776.036
776.053
776.07
776.09
776.105
776.125
776.142
776.159
776.179
776.19
776.208
776.201
773.054
773.054
773.053
773.053
773.053
773.053
773.053
773.053
773.054
773.054
773.054
773.054
773.054
773.055
773.055
773.055
773.055
773.056
773.056
773.056
773.057
773.057
773.057
773.058
773.058
773.059
773.059
773.06
773.06
773.061
773.061
773.062
773.062
773.063
773.063
773.064
773.065
773.065
773.066
773.067
773.068
773.068
773.069
773.07
773.071
773.072
773.072
773.073
773.074
773.075
773.076
773.077
773.078
773.079
773.08
773.081
773.082
773.084
773.085
773.086
773.087
773.088
773.09
773.091
773.092
773.094
773.095
773.097
773.098
773.099
773.101
773.102
773.104
773.106
773.108
773.111
773.113
773.115
773.117
773.119
773.121
773.123
773.125
773.127
773.128
773.13
773.131
773.133
773.134
773.136
773.138
773.14
773.142
773.144
773.146
773.149
773.152
773.155
773.158
773.161
773.164
773.166
773.169
773.172
773.175
773.178
773.18
773.183
773.186
773.189
773.192
773.195
773.198
773.201
773.204
773.207
773.209
773.212
773.215
773.218
773.22
773.223
773.226
773.23
773.233
773.236
773.24
773.243
773.247
773.251
773.256
773.26
773.264
773.269
773.273
773.277
773.281
773.285
773.289
773.293
773.297
773.301
773.305
773.309
773.313
773.317
773.321
773.326
773.33
773.335
773.339
773.344
773.349
773.354
773.359
773.364
773.369
773.374
773.379
773.384
773.389
773.395
773.4
773.405
773.411
773.416
773.422
773.427
773.433
773.439
773.444
773.45
773.456
773.462
773.468
773.474
773.48
773.486
773.492
773.499
773.505
773.511
773.518
773.524
773.53
773.537
773.544
773.55
773.557
773.564
773.57
773.577
773.584
773.591
773.598
773.605
773.612
773.62
773.627
773.634
773.642
773.649
773.656
773.664
773.672
773.679
773.687
773.695
773.702
773.71
773.718
773.726
773.734
773.742
773.75
773.759
773.767
773.775
773.784
773.792
773.8
773.809
773.818
773.826
773.835
773.844
773.852
773.861
773.87
773.879
773.888
773.897
773.907
773.916
773.925
773.934
773.944
773.953
773.963
773.972
773.982
773.992
774.001
774.011
774.021
774.031
774.041
774.051
774.061
774.071
774.081
774.092
774.102
774.112
774.123
774.133
774.144
774.155
774.165
774.176
774.187
774.198
774.208
774.219
774.23
774.242
774.253
774.264
774.275
774.287
774.298
774.309
774.321
774.332
774.344
774.356
774.367
774.379
774.391
774.403
774.415
774.427
774.439
774.451
774.463
774.476
774.488
774.5
774.513
774.525
774.538
774.55
774.563
774.576
774.589
774.602
774.614
774.627
774.64
774.653
774.667
774.68
774.693
774.706
774.72
774.733
774.747
774.76
774.774
774.787
774.801
774.815
774.829
774.843
774.857
774.871
774.885
774.899
774.913
774.927
774.941
774.956
774.97
774.985
774.999
775.014
775.028
775.043
775.058
775.072
775.087
775.102
775.117
775.132
775.147
775.162
775.177
775.193
775.208
775.223
775.238
775.254
775.269
775.285
775.3
775.316
775.332
775.348
775.363
775.379
775.395
775.411
775.427
775.443
775.459
775.475
775.492
775.508
775.524
775.54
775.557
775.573
775.59
775.606
775.623
775.64
775.656
775.673
775.69
775.707
775.724
775.74
775.757
775.774
775.792
775.809
775.826
775.843
775.86
775.878
775.895
775.912
775.93
775.947
775.966
775.981
776.001
776.016
776.037
776.052
776.072
776.088
776.107
776.123
776.145
776.156
776.18
776.189
776.209
776.137
773.054
773.054
773.053
773.053
773.053
773.053
773.053
773.053
773.054
773.054
773.054
773.054
773.054
773.055
773.055
773.055
773.055
773.056
773.056
773.056
773.057
773.057
773.057
773.058
773.058
773.059
773.059
773.06
773.06
773.061
773.061
773.062
773.062
773.063
773.063
773.064
773.065
773.065
773.066
773.067
773.067
773.068
773.069
773.07
773.071
773.071
773.072
773.073
773.074
773.075
773.076
773.077
773.078
773.079
773.08
773.081
773.082
773.084
773.085
773.086
773.087
773.088
773.09
773.091
773.092
773.094
773.095
773.097
773.098
773.099
773.101
773.102
773.104
773.106
773.108
773.11
773.113
773.115
773.117
773.119
773.121
773.123
773.125
773.127
773.128
773.13
773.131
773.133
773.134
773.136
773.138
773.14
773.142
773.144
773.146
773.149
773.152
773.155
773.158
773.161
773.164
773.166
773.169
773.172
773.175
773.178
773.18
773.183
773.186
773.189
773.192
773.195
773.198
773.201
773.204
773.207
773.209
773.212
773.215
773.218
773.22
773.223
773.226
773.23
773.233
773.236
773.24
773.243
773.247
773.251
773.256
773.26
773.264
773.269
773.273
773.277
773.281
773.285
773.289
773.293
773.297
773.301
773.305
773.309
773.313
773.317
773.321
773.326
773.33
773.335
773.339
773.344
773.349
773.354
773.359
773.364
773.369
773.374
773.379
773.384
773.389
773.395
773.4
773.405
773.411
773.416
773.422
773.427
773.433
773.439
773.444
773.45
773.456
773.462
773.468
773.474
773.48
773.486
773.492
773.499
773.505
773.511
773.518
773.524
773.53
773.537
773.544
773.55
773.557
773.564
773.571
773.577
773.584
773.591
773.598
773.605
773.613
773.62
773.627
773.634
773.642
773.649
773.656
773.664
773.672
773.679
773.687
773.695
773.702
773.71
773.718
773.726
773.734
773.742
773.75
773.759
773.767
773.775
773.784
773.792
773.8
773.809
773.818
773.826
773.835
773.844
773.852
773.861
773.87
773.879
773.888
773.897
773.907
773.916
773.925
773.934
773.944
773.953
773.963
773.972
773.982
773.992
774.001
774.011
774.021
774.031
774.041
774.051
774.061
774.071
774.081
774.092
774.102
774.112
774.123
774.133
774.144
774.155
774.165
774.176
774.187
774.198
774.208
774.219
774.23
774.242
774.253
774.264
774.275
774.287
774.298
774.309
774.321
774.332
774.344
774.356
774.367
774.379
774.391
774.403
774.415
774.427
774.439
774.451
774.463
774.476
774.488
774.5
774.513
774.525
774.538
774.551
774.563
774.576
774.589
774.602
774.614
774.627
774.64
774.654
774.667
774.68
774.693
774.706
774.72
774.733
774.747
774.76
774.774
774.787
774.801
774.815
774.829
774.843
774.857
774.871
774.885
774.899
774.913
774.927
774.941
774.956
774.97
774.985
774.999
775.014
775.028
775.043
775.058
775.072
775.087
775.102
775.117
775.132
775.147
775.162
775.177
775.193
775.208
775.223
775.238
775.254
775.269
775.285
775.301
775.316
775.332
775.348
775.363
775.379
775.395
775.411
775.427
775.443
775.459
775.475
775.492
775.508
775.524
775.54
775.557
775.573
775.59
775.606
775.623
775.64
775.656
775.673
775.69
775.707
775.724
775.74
775.757
775.774
775.792
775.809
775.826
775.843
775.86
775.878
775.895
775.912
775.93
775.947
775.966
775.981
776.002
776.016
776.037
776.051
776.073
776.086
776.109
776.122
776.145
776.156
776.18
776.188
776.212
776.096
773.062
773.061
773.061
773.061
773.061
773.061
773.061
773.061
773.061
773.061
773.061
773.062
773.062
773.062
773.062
773.063
773.063
773.063
773.063
773.064
773.064
773.064
773.065
773.065
773.066
773.066
773.066
773.067
773.067
773.068
773.068
773.069
773.069
773.07
773.071
773.071
773.072
773.072
773.073
773.074
773.075
773.075
773.076
773.077
773.078
773.079
773.079
773.08
773.081
773.082
773.083
773.084
773.085
773.086
773.087
773.088
773.089
773.09
773.091
773.093
773.094
773.095
773.096
773.098
773.099
773.1
773.102
773.103
773.105
773.106
773.108
773.109
773.111
773.113
773.115
773.117
773.119
773.121
773.124
773.126
773.128
773.129
773.131
773.133
773.134
773.136
773.137
773.139
773.14
773.142
773.144
773.146
773.148