/*--------------------------------*- C++ -*----------------------------------*\
| =========                 |                                                 |
| \\      /  F ield         | OpenFOAM: The Open Source CFD Toolbox           |
|  \\    /   O peration     | Version:  3.0.x                                 |
|   \\  /    A nd           | Web:      www.OpenFOAM.org                      |
|    \\/     M anipulation  |                                                 |
\*---------------------------------------------------------------------------*/
FoamFile
{
    version     2.0;
    format      ascii;
    class       volVectorField;
    location    "0.48";
    object      U;
}
// * * * * * * * * * * * * * * * * * * * * * * * * * * * * * * * * * * * * * //

dimensions      [0 1 -1 0 0 0 0];

internalField   nonuniform List<vector> 
27600
(
(42.6973 0.000129705 0)
(42.6935 0.000119196 0)
(42.6893 0.00011766 0)
(42.6853 0.000120455 0)
(42.6813 0.000122873 0)
(42.6773 0.000124764 0)
(42.6732 0.000126351 0)
(42.6692 0.000127706 0)
(42.6651 0.00012886 0)
(42.661 0.000129841 0)
(42.6569 0.000130681 0)
(42.6528 0.000131404 0)
(42.6486 0.00013203 0)
(42.6444 0.000132573 0)
(42.6402 0.000133045 0)
(42.6359 0.000133458 0)
(42.6316 0.000133819 0)
(42.6273 0.000134136 0)
(42.623 0.000134415 0)
(42.6186 0.00013466 0)
(42.6142 0.000134876 0)
(42.6097 0.000135067 0)
(42.6052 0.000135235 0)
(42.6006 0.000135384 0)
(42.596 0.000135516 0)
(42.5914 0.000135632 0)
(42.5867 0.000135735 0)
(42.582 0.000135827 0)
(42.5772 0.000135907 0)
(42.5723 0.000135979 0)
(42.5674 0.000136042 0)
(42.5625 0.000136097 0)
(42.5575 0.000136146 0)
(42.5524 0.000136189 0)
(42.5473 0.000136227 0)
(42.5421 0.00013626 0)
(42.5368 0.00013629 0)
(42.5315 0.000136315 0)
(42.5261 0.000136337 0)
(42.5207 0.000136356 0)
(42.5151 0.000136373 0)
(42.5095 0.000136387 0)
(42.5039 0.000136399 0)
(42.4981 0.000136409 0)
(42.4923 0.000136418 0)
(42.4864 0.000136425 0)
(42.4804 0.000136431 0)
(42.4743 0.000136435 0)
(42.4682 0.000136439 0)
(42.4619 0.000136441 0)
(42.4556 0.000136443 0)
(42.4492 0.000136444 0)
(42.4427 0.000136444 0)
(42.4361 0.000136444 0)
(42.4294 0.000136443 0)
(42.4226 0.000136441 0)
(42.4158 0.00013644 0)
(42.4088 0.000136437 0)
(42.4017 0.000136435 0)
(42.3945 0.000136432 0)
(42.3872 0.000136429 0)
(42.3799 0.000136425 0)
(42.3724 0.000136421 0)
(42.3648 0.000136417 0)
(42.3571 0.000136413 0)
(42.3492 0.000136408 0)
(42.3413 0.000136404 0)
(42.3332 0.000136399 0)
(42.3251 0.000136394 0)
(42.3168 0.000136389 0)
(42.3084 0.000136384 0)
(42.2999 0.000136379 0)
(42.2913 0.000136374 0)
(42.2825 0.000136369 0)
(42.2736 0.000136365 0)
(42.2646 0.00013636 0)
(42.2554 0.000136355 0)
(42.2462 0.000136351 0)
(42.2368 0.000136346 0)
(42.2272 0.000136342 0)
(42.2176 0.000136339 0)
(42.2078 0.000136335 0)
(42.1978 0.000136332 0)
(42.1878 0.000136329 0)
(42.1776 0.000136327 0)
(42.1672 0.000136325 0)
(42.1567 0.000136323 0)
(42.1461 0.000136322 0)
(42.1353 0.000136321 0)
(42.1243 0.00013632 0)
(42.1133 0.000136319 0)
(42.102 0.000136319 0)
(42.0907 0.000136318 0)
(42.0791 0.000136318 0)
(42.0675 0.000136318 0)
(42.0556 0.000136317 0)
(42.0436 0.000136316 0)
(42.0315 0.000136315 0)
(42.0192 0.000136314 0)
(42.0067 0.000136313 0)
(41.9941 0.000136312 0)
(41.9813 0.000136311 0)
(41.9684 0.000136311 0)
(41.9553 0.000136311 0)
(41.942 0.000136311 0)
(41.9286 0.000136311 0)
(41.915 0.000136312 0)
(41.9012 0.000136313 0)
(41.8873 0.000136315 0)
(41.8732 0.000136317 0)
(41.8589 0.000136318 0)
(41.8444 0.00013632 0)
(41.8298 0.000136322 0)
(41.815 0.000136323 0)
(41.8 0.000136325 0)
(41.7849 0.000136327 0)
(41.7695 0.000136329 0)
(41.754 0.000136331 0)
(41.7383 0.000136332 0)
(41.7225 0.000136331 0)
(41.7064 0.000136329 0)
(41.6902 0.000136324 0)
(41.6737 0.000136315 0)
(41.6571 0.000136301 0)
(41.6404 0.000136282 0)
(41.6234 0.000136256 0)
(41.6062 0.000136221 0)
(41.5889 0.000136173 0)
(41.5713 0.00013611 0)
(41.5536 0.000136029 0)
(41.5357 0.000135926 0)
(41.5176 0.000135797 0)
(41.4993 0.000135638 0)
(41.4808 0.000135442 0)
(41.4621 0.000135203 0)
(41.4433 0.000134913 0)
(41.4242 0.000134565 0)
(41.4049 0.00013415 0)
(41.3855 0.00013366 0)
(41.3659 0.000133085 0)
(41.3461 0.000132414 0)
(41.326 0.000131636 0)
(41.3058 0.000130741 0)
(41.2855 0.000129716 0)
(41.2649 0.000128552 0)
(41.2441 0.000127238 0)
(41.2232 0.000125765 0)
(41.2021 0.000124124 0)
(41.1808 0.000122306 0)
(41.1593 0.000120308 0)
(41.1376 0.000118122 0)
(41.1158 0.000115749 0)
(41.0938 0.000113186 0)
(41.0716 0.000110435 0)
(41.0493 0.000107502 0)
(41.0268 0.000104392 0)
(41.0041 0.000101115 0)
(40.9812 9.76824e-05 0)
(40.9582 9.41072e-05 0)
(40.9351 9.04057e-05 0)
(40.9118 8.65957e-05 0)
(40.8883 8.26965e-05 0)
(40.8646 7.87288e-05 0)
(40.8408 7.47145e-05 0)
(40.8169 7.06758e-05 0)
(40.7928 6.66355e-05 0)
(40.7685 6.26161e-05 0)
(40.7441 5.86395e-05 0)
(40.7194 5.47271e-05 0)
(40.6947 5.08987e-05 0)
(40.6698 4.7173e-05 0)
(40.6447 4.35667e-05 0)
(40.6194 4.00948e-05 0)
(40.5939 3.67702e-05 0)
(40.5683 3.36034e-05 0)
(40.5425 3.06029e-05 0)
(40.5165 2.77749e-05 0)
(40.4904 2.51235e-05 0)
(40.464 2.26504e-05 0)
(40.4375 2.03557e-05 0)
(40.4107 1.82375e-05 0)
(40.3838 1.62922e-05 0)
(40.3567 1.4515e-05 0)
(40.3293 1.28994e-05 0)
(40.3018 1.14384e-05 0)
(40.2741 1.01239e-05 0)
(40.2461 8.94717e-06 0)
(40.2179 7.89922e-06 0)
(40.1896 6.97071e-06 0)
(40.161 6.15225e-06 0)
(40.1321 5.43454e-06 0)
(40.1031 4.80842e-06 0)
(40.0739 4.26508e-06 0)
(40.0444 3.79604e-06 0)
(40.0147 3.39331e-06 0)
(39.9848 3.04937e-06 0)
(39.9546 2.75723e-06 0)
(39.9242 2.51046e-06 0)
(39.8936 2.30319e-06 0)
(39.8628 2.13012e-06 0)
(39.8317 1.98647e-06 0)
(39.8004 1.868e-06 0)
(39.7689 1.77097e-06 0)
(39.7372 1.69207e-06 0)
(39.7052 1.62844e-06 0)
(39.6729 1.57763e-06 0)
(39.6405 1.5375e-06 0)
(39.6078 1.50624e-06 0)
(39.5749 1.48229e-06 0)
(39.5417 1.46437e-06 0)
(39.5083 1.45138e-06 0)
(39.4747 1.44239e-06 0)
(39.4408 1.43665e-06 0)
(39.4067 1.43353e-06 0)
(39.3724 1.43251e-06 0)
(39.3378 1.43317e-06 0)
(39.303 1.43516e-06 0)
(39.2679 1.4382e-06 0)
(39.2326 1.44205e-06 0)
(39.1971 1.44655e-06 0)
(39.1613 1.45156e-06 0)
(39.1253 1.45693e-06 0)
(39.0891 1.46259e-06 0)
(39.0526 1.46847e-06 0)
(39.0158 1.47451e-06 0)
(38.9789 1.48066e-06 0)
(38.9416 1.48689e-06 0)
(38.9042 1.49317e-06 0)
(38.8665 1.49948e-06 0)
(38.8286 1.5058e-06 0)
(38.7904 1.51212e-06 0)
(38.752 1.51845e-06 0)
(38.7133 1.52475e-06 0)
(38.6744 1.53104e-06 0)
(38.6352 1.5373e-06 0)
(38.5958 1.54353e-06 0)
(38.5562 1.54973e-06 0)
(38.5163 1.5559e-06 0)
(38.4762 1.56204e-06 0)
(38.4358 1.56814e-06 0)
(38.3952 1.57421e-06 0)
(38.3543 1.58023e-06 0)
(38.3132 1.58622e-06 0)
(38.2719 1.59218e-06 0)
(38.2303 1.59809e-06 0)
(38.1884 1.60397e-06 0)
(38.1464 1.60981e-06 0)
(38.104 1.61561e-06 0)
(38.0615 1.62137e-06 0)
(38.0186 1.62707e-06 0)
(37.9756 1.63274e-06 0)
(37.9322 1.63835e-06 0)
(37.8887 1.64394e-06 0)
(37.8449 1.64947e-06 0)
(37.8008 1.65496e-06 0)
(37.7565 1.66041e-06 0)
(37.712 1.66582e-06 0)
(37.6672 1.67119e-06 0)
(37.6221 1.67652e-06 0)
(37.5768 1.6818e-06 0)
(37.5313 1.68702e-06 0)
(37.4855 1.69219e-06 0)
(37.4395 1.69731e-06 0)
(37.3932 1.70239e-06 0)
(37.3467 1.70742e-06 0)
(37.2999 1.71239e-06 0)
(37.2529 1.71733e-06 0)
(37.2056 1.72221e-06 0)
(37.1581 1.72705e-06 0)
(37.1103 1.73183e-06 0)
(37.0623 1.73655e-06 0)
(37.014 1.74122e-06 0)
(36.9655 1.74585e-06 0)
(36.9167 1.75043e-06 0)
(36.8677 1.75497e-06 0)
(36.8185 1.75945e-06 0)
(36.769 1.76388e-06 0)
(36.7192 1.76824e-06 0)
(36.6692 1.77255e-06 0)
(36.619 1.77679e-06 0)
(36.5685 1.78097e-06 0)
(36.5178 1.7851e-06 0)
(36.4668 1.78917e-06 0)
(36.4156 1.7932e-06 0)
(36.3641 1.79717e-06 0)
(36.3124 1.80109e-06 0)
(36.2604 1.80495e-06 0)
(36.2082 1.80875e-06 0)
(36.1557 1.81249e-06 0)
(36.103 1.81616e-06 0)
(36.05 1.81976e-06 0)
(35.9968 1.82331e-06 0)
(35.9434 1.82679e-06 0)
(35.8897 1.8302e-06 0)
(35.8358 1.83356e-06 0)
(35.7816 1.83685e-06 0)
(35.7272 1.84007e-06 0)
(35.6725 1.84324e-06 0)
(35.6176 1.84636e-06 0)
(35.5624 1.8494e-06 0)
(35.507 1.85238e-06 0)
(35.4514 1.85528e-06 0)
(35.3955 1.85812e-06 0)
(35.3394 1.8609e-06 0)
(35.283 1.8636e-06 0)
(35.2264 1.86624e-06 0)
(35.1695 1.86881e-06 0)
(35.1124 1.8713e-06 0)
(35.0551 1.87372e-06 0)
(34.9975 1.87608e-06 0)
(34.9397 1.87836e-06 0)
(34.8816 1.88058e-06 0)
(34.8233 1.88272e-06 0)
(34.7648 1.8848e-06 0)
(34.706 1.88679e-06 0)
(34.647 1.88871e-06 0)
(34.5877 1.89056e-06 0)
(34.5282 1.89234e-06 0)
(34.4685 1.89405e-06 0)
(34.4086 1.89567e-06 0)
(34.3484 1.89721e-06 0)
(34.2879 1.89868e-06 0)
(34.2272 1.90007e-06 0)
(34.1663 1.90139e-06 0)
(34.1052 1.90264e-06 0)
(34.0438 1.9038e-06 0)
(33.9822 1.90487e-06 0)
(33.9204 1.90585e-06 0)
(33.8583 1.90675e-06 0)
(33.796 1.90758e-06 0)
(33.7335 1.90834e-06 0)
(33.6707 1.90903e-06 0)
(33.6077 1.90964e-06 0)
(33.5445 1.91015e-06 0)
(33.4811 1.91057e-06 0)
(33.4174 1.91088e-06 0)
(33.3535 1.91112e-06 0)
(33.2894 1.91127e-06 0)
(33.225 1.91134e-06 0)
(33.1604 1.91135e-06 0)
(33.0956 1.91128e-06 0)
(33.0306 1.91112e-06 0)
(32.9653 1.91087e-06 0)
(32.8999 1.91053e-06 0)
(32.8342 1.9101e-06 0)
(32.7683 1.90957e-06 0)
(32.7021 1.90895e-06 0)
(32.6358 1.90823e-06 0)
(32.5692 1.90741e-06 0)
(32.5024 1.90649e-06 0)
(32.4354 1.90548e-06 0)
(32.3682 1.90439e-06 0)
(32.3008 1.90321e-06 0)
(32.2331 1.90196e-06 0)
(32.1652 1.90062e-06 0)
(32.0972 1.89919e-06 0)
(32.0289 1.89767e-06 0)
(31.9604 1.89604e-06 0)
(31.8917 1.8943e-06 0)
(31.8227 1.89245e-06 0)
(31.7536 1.89051e-06 0)
(31.6843 1.88847e-06 0)
(31.6147 1.88634e-06 0)
(31.545 1.88413e-06 0)
(31.475 1.88182e-06 0)
(31.4049 1.87941e-06 0)
(31.3345 1.8769e-06 0)
(31.264 1.87429e-06 0)
(31.1932 1.87156e-06 0)
(31.1223 1.86874e-06 0)
(31.0511 1.8658e-06 0)
(30.9798 1.86276e-06 0)
(30.9082 1.85964e-06 0)
(30.8365 1.85639e-06 0)
(30.7645 1.85306e-06 0)
(30.6924 1.8497e-06 0)
(30.6201 1.84614e-06 0)
(30.5476 1.84303e-06 0)
(30.4749 1.83947e-06 0)
(30.402 1.83767e-06 0)
(30.3289 1.8365e-06 0)
(30.2556 1.84068e-06 0)
(30.1822 1.8559e-06 0)
(30.1085 1.89793e-06 0)
(30.0347 2.00786e-06 0)
(29.9607 2.27449e-06 0)
(29.8865 2.93399e-06 0)
(29.8121 4.52345e-06 0)
(29.7375 8.35957e-06 0)
(29.6625 1.75235e-05 0)
(29.5869 3.93859e-05 0)
(29.5103 9.13863e-05 0)
(29.4313 0.000214925 0)
(29.3469 0.000507844 0)
(29.2501 0.00120084 0)
(29.1242 0.00283601 0)
(28.9303 0.00669645 0)
(28.5752 0.015976 0)
(27.8929 0.0408408 0)
(25.2618 0.110226 0)
(42.6992 0.000208886 0)
(42.6974 0.000168706 0)
(42.6952 0.000152631 0)
(42.6931 0.000150634 0)
(42.691 0.000149185 0)
(42.689 0.000147489 0)
(42.6869 0.000146068 0)
(42.6848 0.000144926 0)
(42.6827 0.000143967 0)
(42.6805 0.000143137 0)
(42.6783 0.00014242 0)
(42.6762 0.000141799 0)
(42.6739 0.000141259 0)
(42.6717 0.000140787 0)
(42.6694 0.000140374 0)
(42.6671 0.000140011 0)
(42.6648 0.000139692 0)
(42.6624 0.000139411 0)
(42.66 0.000139163 0)
(42.6576 0.000138944 0)
(42.6551 0.00013875 0)
(42.6526 0.000138578 0)
(42.6501 0.000138426 0)
(42.6475 0.000138291 0)
(42.6448 0.000138172 0)
(42.6421 0.000138066 0)
(42.6394 0.000137973 0)
(42.6366 0.00013789 0)
(42.6337 0.000137817 0)
(42.6309 0.000137752 0)
(42.6279 0.000137695 0)
(42.6249 0.000137645 0)
(42.6218 0.000137601 0)
(42.6187 0.000137563 0)
(42.6155 0.000137529 0)
(42.6123 0.0001375 0)
(42.609 0.000137475 0)
(42.6056 0.000137454 0)
(42.6022 0.000137435 0)
(42.5987 0.00013742 0)
(42.5951 0.000137407 0)
(42.5914 0.000137396 0)
(42.5877 0.000137388 0)
(42.5839 0.000137381 0)
(42.58 0.000137377 0)
(42.5761 0.000137374 0)
(42.572 0.000137372 0)
(42.5679 0.000137371 0)
(42.5637 0.000137372 0)
(42.5594 0.000137374 0)
(42.555 0.000137377 0)
(42.5506 0.000137381 0)
(42.546 0.000137385 0)
(42.5414 0.00013739 0)
(42.5366 0.000137396 0)
(42.5318 0.000137403 0)
(42.5269 0.00013741 0)
(42.5218 0.000137417 0)
(42.5167 0.000137425 0)
(42.5115 0.000137434 0)
(42.5061 0.000137442 0)
(42.5007 0.000137451 0)
(42.4952 0.00013746 0)
(42.4895 0.00013747 0)
(42.4837 0.000137479 0)
(42.4779 0.000137489 0)
(42.4719 0.0001375 0)
(42.4658 0.00013751 0)
(42.4596 0.000137521 0)
(42.4532 0.000137532 0)
(42.4468 0.000137543 0)
(42.4402 0.000137555 0)
(42.4335 0.000137566 0)
(42.4267 0.000137578 0)
(42.4197 0.00013759 0)
(42.4127 0.000137603 0)
(42.4055 0.000137615 0)
(42.3982 0.000137628 0)
(42.3907 0.000137642 0)
(42.3831 0.000137656 0)
(42.3754 0.00013767 0)
(42.3675 0.000137684 0)
(42.3595 0.000137699 0)
(42.3514 0.000137714 0)
(42.3431 0.000137731 0)
(42.3347 0.000137748 0)
(42.3262 0.000137765 0)
(42.3175 0.000137783 0)
(42.3086 0.000137802 0)
(42.2997 0.00013782 0)
(42.2905 0.000137839 0)
(42.2813 0.000137857 0)
(42.2718 0.000137877 0)
(42.2622 0.000137896 0)
(42.2525 0.000137916 0)
(42.2426 0.000137935 0)
(42.2326 0.000137953 0)
(42.2224 0.000137972 0)
(42.212 0.00013799 0)
(42.2015 0.000138009 0)
(42.1908 0.000138028 0)
(42.18 0.000138048 0)
(42.169 0.000138068 0)
(42.1578 0.000138088 0)
(42.1465 0.000138108 0)
(42.135 0.000138129 0)
(42.1234 0.000138151 0)
(42.1115 0.000138173 0)
(42.0995 0.000138196 0)
(42.0874 0.000138219 0)
(42.075 0.000138242 0)
(42.0625 0.000138264 0)
(42.0498 0.000138287 0)
(42.037 0.000138309 0)
(42.0239 0.000138332 0)
(42.0107 0.000138354 0)
(41.9973 0.000138378 0)
(41.9838 0.000138401 0)
(41.97 0.000138423 0)
(41.9561 0.000138443 0)
(41.942 0.000138462 0)
(41.9277 0.000138477 0)
(41.9132 0.000138488 0)
(41.8986 0.000138493 0)
(41.8837 0.000138492 0)
(41.8687 0.000138483 0)
(41.8535 0.000138463 0)
(41.8381 0.00013843 0)
(41.8225 0.000138378 0)
(41.8067 0.000138305 0)
(41.7907 0.000138208 0)
(41.7745 0.00013808 0)
(41.7582 0.000137919 0)
(41.7416 0.000137716 0)
(41.7249 0.000137465 0)
(41.7079 0.000137156 0)
(41.6908 0.000136782 0)
(41.6735 0.000136334 0)
(41.6559 0.000135803 0)
(41.6382 0.000135178 0)
(41.6203 0.000134448 0)
(41.6021 0.000133601 0)
(41.5838 0.000132626 0)
(41.5653 0.000131511 0)
(41.5465 0.000130245 0)
(41.5276 0.000128817 0)
(41.5085 0.000127219 0)
(41.4891 0.000125442 0)
(41.4696 0.000123479 0)
(41.4498 0.000121326 0)
(41.4299 0.000118978 0)
(41.4097 0.000116435 0)
(41.3894 0.000113698 0)
(41.3688 0.000110771 0)
(41.348 0.000107659 0)
(41.327 0.00010437 0)
(41.3058 0.000100918 0)
(41.2844 9.73137e-05 0)
(41.2627 9.35744e-05 0)
(41.2409 8.97176e-05 0)
(41.2188 8.57629e-05 0)
(41.1965 8.17314e-05 0)
(41.174 7.76454e-05 0)
(41.1513 7.35279e-05 0)
(41.1284 6.94022e-05 0)
(41.1053 6.52918e-05 0)
(41.0819 6.12196e-05 0)
(41.0583 5.72077e-05 0)
(41.0345 5.32771e-05 0)
(41.0105 4.94473e-05 0)
(40.9863 4.5736e-05 0)
(40.9618 4.21592e-05 0)
(40.9372 3.87305e-05 0)
(40.9123 3.54615e-05 0)
(40.8871 3.23612e-05 0)
(40.8618 2.94365e-05 0)
(40.8362 2.66921e-05 0)
(40.8104 2.41302e-05 0)
(40.7844 2.17512e-05 0)
(40.7582 1.95534e-05 0)
(40.7317 1.75335e-05 0)
(40.705 1.56867e-05 0)
(40.6781 1.40067e-05 0)
(40.6509 1.24862e-05 0)
(40.6236 1.1117e-05 0)
(40.596 9.89036e-06 0)
(40.5681 8.79691e-06 0)
(40.5401 7.82709e-06 0)
(40.5118 6.97124e-06 0)
(40.4833 6.21976e-06 0)
(40.4545 5.56322e-06 0)
(40.4256 4.99252e-06 0)
(40.3964 4.49895e-06 0)
(40.3669 4.07427e-06 0)
(40.3373 3.71076e-06 0)
(40.3074 3.40127e-06 0)
(40.2773 3.1392e-06 0)
(40.2469 2.91857e-06 0)
(40.2163 2.73392e-06 0)
(40.1855 2.58039e-06 0)
(40.1545 2.4536e-06 0)
(40.1232 2.3497e-06 0)
(40.0917 2.26527e-06 0)
(40.06 2.19732e-06 0)
(40.028 2.14327e-06 0)
(39.9958 2.10085e-06 0)
(39.9633 2.06813e-06 0)
(39.9306 2.04345e-06 0)
(39.8977 2.02541e-06 0)
(39.8646 2.01281e-06 0)
(39.8312 2.00466e-06 0)
(39.7976 2.0001e-06 0)
(39.7637 1.99845e-06 0)
(39.7296 1.99915e-06 0)
(39.6953 2.00171e-06 0)
(39.6607 2.00575e-06 0)
(39.6259 2.01096e-06 0)
(39.5908 2.01708e-06 0)
(39.5555 2.02392e-06 0)
(39.52 2.03131e-06 0)
(39.4842 2.03911e-06 0)
(39.4482 2.04723e-06 0)
(39.412 2.05558e-06 0)
(39.3755 2.06411e-06 0)
(39.3388 2.07276e-06 0)
(39.3018 2.0815e-06 0)
(39.2646 2.0903e-06 0)
(39.2272 2.09912e-06 0)
(39.1895 2.10795e-06 0)
(39.1515 2.11678e-06 0)
(39.1134 2.12561e-06 0)
(39.075 2.13441e-06 0)
(39.0363 2.14318e-06 0)
(38.9974 2.15194e-06 0)
(38.9582 2.16065e-06 0)
(38.9189 2.16932e-06 0)
(38.8792 2.17796e-06 0)
(38.8394 2.18656e-06 0)
(38.7992 2.19512e-06 0)
(38.7589 2.20363e-06 0)
(38.7183 2.2121e-06 0)
(38.6774 2.22052e-06 0)
(38.6363 2.22889e-06 0)
(38.595 2.23721e-06 0)
(38.5534 2.2455e-06 0)
(38.5115 2.25375e-06 0)
(38.4695 2.26194e-06 0)
(38.4271 2.27009e-06 0)
(38.3846 2.27818e-06 0)
(38.3417 2.28621e-06 0)
(38.2987 2.29419e-06 0)
(38.2554 2.30212e-06 0)
(38.2118 2.30999e-06 0)
(38.168 2.31782e-06 0)
(38.124 2.32559e-06 0)
(38.0797 2.33332e-06 0)
(38.0351 2.341e-06 0)
(37.9903 2.34864e-06 0)
(37.9453 2.35621e-06 0)
(37.9 2.36373e-06 0)
(37.8545 2.37118e-06 0)
(37.8087 2.37857e-06 0)
(37.7627 2.38589e-06 0)
(37.7164 2.39316e-06 0)
(37.6699 2.40037e-06 0)
(37.6231 2.40753e-06 0)
(37.5761 2.41463e-06 0)
(37.5288 2.42167e-06 0)
(37.4813 2.42865e-06 0)
(37.4335 2.43555e-06 0)
(37.3855 2.4424e-06 0)
(37.3373 2.44918e-06 0)
(37.2888 2.45592e-06 0)
(37.24 2.46259e-06 0)
(37.191 2.46921e-06 0)
(37.1418 2.47576e-06 0)
(37.0923 2.48225e-06 0)
(37.0425 2.48865e-06 0)
(36.9925 2.49498e-06 0)
(36.9423 2.50124e-06 0)
(36.8918 2.50742e-06 0)
(36.8411 2.51353e-06 0)
(36.7901 2.51958e-06 0)
(36.7389 2.52557e-06 0)
(36.6874 2.53151e-06 0)
(36.6357 2.53737e-06 0)
(36.5837 2.54316e-06 0)
(36.5315 2.54888e-06 0)
(36.479 2.55452e-06 0)
(36.4263 2.56009e-06 0)
(36.3734 2.56557e-06 0)
(36.3202 2.57097e-06 0)
(36.2667 2.57629e-06 0)
(36.2131 2.58153e-06 0)
(36.1591 2.5867e-06 0)
(36.105 2.5918e-06 0)
(36.0505 2.59682e-06 0)
(35.9959 2.60177e-06 0)
(35.941 2.60664e-06 0)
(35.8858 2.61143e-06 0)
(35.8304 2.61614e-06 0)
(35.7748 2.62076e-06 0)
(35.7189 2.6253e-06 0)
(35.6628 2.62976e-06 0)
(35.6064 2.63414e-06 0)
(35.5498 2.63843e-06 0)
(35.4929 2.64263e-06 0)
(35.4358 2.64675e-06 0)
(35.3785 2.65078e-06 0)
(35.3209 2.65474e-06 0)
(35.2631 2.6586e-06 0)
(35.205 2.66237e-06 0)
(35.1468 2.66605e-06 0)
(35.0882 2.66964e-06 0)
(35.0294 2.67314e-06 0)
(34.9704 2.67656e-06 0)
(34.9112 2.67989e-06 0)
(34.8517 2.68313e-06 0)
(34.792 2.68628e-06 0)
(34.732 2.68932e-06 0)
(34.6718 2.69226e-06 0)
(34.6114 2.69511e-06 0)
(34.5507 2.69788e-06 0)
(34.4898 2.70055e-06 0)
(34.4287 2.70313e-06 0)
(34.3673 2.70561e-06 0)
(34.3057 2.70796e-06 0)
(34.2439 2.71022e-06 0)
(34.1818 2.71236e-06 0)
(34.1195 2.71443e-06 0)
(34.057 2.71641e-06 0)
(33.9942 2.7183e-06 0)
(33.9312 2.72009e-06 0)
(33.868 2.72177e-06 0)
(33.8046 2.72333e-06 0)
(33.7409 2.72476e-06 0)
(33.677 2.72608e-06 0)
(33.6129 2.72729e-06 0)
(33.5485 2.72843e-06 0)
(33.4839 2.72947e-06 0)
(33.4191 2.73041e-06 0)
(33.3541 2.73124e-06 0)
(33.2888 2.73197e-06 0)
(33.2234 2.73258e-06 0)
(33.1577 2.73308e-06 0)
(33.0918 2.73346e-06 0)
(33.0256 2.73373e-06 0)
(32.9593 2.73386e-06 0)
(32.8927 2.73387e-06 0)
(32.8259 2.73375e-06 0)
(32.7589 2.73353e-06 0)
(32.6917 2.7332e-06 0)
(32.6243 2.73277e-06 0)
(32.5566 2.73225e-06 0)
(32.4887 2.73161e-06 0)
(32.4207 2.73087e-06 0)
(32.3524 2.73e-06 0)
(32.2839 2.72899e-06 0)
(32.2152 2.72785e-06 0)
(32.1462 2.72658e-06 0)
(32.0771 2.72518e-06 0)
(32.0078 2.72366e-06 0)
(31.9382 2.72204e-06 0)
(31.8685 2.7203e-06 0)
(31.7985 2.71844e-06 0)
(31.7284 2.71647e-06 0)
(31.658 2.71436e-06 0)
(31.5875 2.71213e-06 0)
(31.5167 2.70973e-06 0)
(31.4457 2.70724e-06 0)
(31.3746 2.70456e-06 0)
(31.3032 2.70182e-06 0)
(31.2317 2.6989e-06 0)
(31.1599 2.69593e-06 0)
(31.088 2.69277e-06 0)
(31.0159 2.68982e-06 0)
(30.9435 2.68646e-06 0)
(30.871 2.68463e-06 0)
(30.7983 2.68241e-06 0)
(30.7254 2.68557e-06 0)
(30.6523 2.69391e-06 0)
(30.5791 2.72048e-06 0)
(30.5056 2.7918e-06 0)
(30.432 2.96164e-06 0)
(30.3581 3.38037e-06 0)
(30.2841 4.35464e-06 0)
(30.2099 6.68991e-06 0)
(30.1355 1.21977e-05 0)
(30.0609 2.53293e-05 0)
(29.9859 5.65209e-05 0)
(29.9103 0.000130775 0)
(29.8336 0.000307249 0)
(29.7547 0.000726375 0)
(29.6703 0.00171993 0)
(29.5736 0.00406972 0)
(29.4479 0.0096099 0)
(29.2545 0.0226655 0)
(28.9009 0.0538861 0)
(28.2217 0.135523 0)
(25.7555 0.344925 0)
(42.6992 0.000149849 0)
(42.6973 0.000119709 0)
(42.6951 0.000105952 0)
(42.693 0.000108382 0)
(42.691 0.000110403 0)
(42.6889 0.000110991 0)
(42.6869 0.000111383 0)
(42.6848 0.000111799 0)
(42.6826 0.000112172 0)
(42.6805 0.000112483 0)
(42.6783 0.000112751 0)
(42.6761 0.000112986 0)
(42.6739 0.000113193 0)
(42.6717 0.000113376 0)
(42.6694 0.000113539 0)
(42.6671 0.000113683 0)
(42.6648 0.000113812 0)
(42.6624 0.000113928 0)
(42.66 0.000114031 0)
(42.6576 0.000114124 0)
(42.6551 0.000114208 0)
(42.6526 0.000114284 0)
(42.6501 0.000114352 0)
(42.6475 0.000114414 0)
(42.6448 0.00011447 0)
(42.6421 0.000114522 0)
(42.6394 0.000114568 0)
(42.6366 0.000114611 0)
(42.6338 0.00011465 0)
(42.6309 0.000114686 0)
(42.6279 0.000114719 0)
(42.6249 0.00011475 0)
(42.6219 0.000114778 0)
(42.6188 0.000114804 0)
(42.6156 0.000114829 0)
(42.6123 0.000114851 0)
(42.609 0.000114873 0)
(42.6057 0.000114893 0)
(42.6022 0.000114912 0)
(42.5987 0.00011493 0)
(42.5951 0.000114946 0)
(42.5915 0.000114963 0)
(42.5878 0.000114978 0)
(42.584 0.000114993 0)
(42.5801 0.000115007 0)
(42.5762 0.000115021 0)
(42.5721 0.000115034 0)
(42.568 0.000115047 0)
(42.5638 0.00011506 0)
(42.5595 0.000115072 0)
(42.5551 0.000115085 0)
(42.5507 0.000115097 0)
(42.5461 0.000115108 0)
(42.5415 0.00011512 0)
(42.5368 0.000115131 0)
(42.5319 0.000115142 0)
(42.527 0.000115154 0)
(42.522 0.000115165 0)
(42.5168 0.000115176 0)
(42.5116 0.000115186 0)
(42.5063 0.000115197 0)
(42.5008 0.000115208 0)
(42.4953 0.000115219 0)
(42.4897 0.000115229 0)
(42.4839 0.000115239 0)
(42.478 0.00011525 0)
(42.4721 0.00011526 0)
(42.466 0.000115271 0)
(42.4597 0.000115281 0)
(42.4534 0.000115292 0)
(42.447 0.000115303 0)
(42.4404 0.000115313 0)
(42.4337 0.000115324 0)
(42.4269 0.000115335 0)
(42.42 0.000115346 0)
(42.4129 0.000115357 0)
(42.4057 0.000115368 0)
(42.3984 0.00011538 0)
(42.391 0.000115391 0)
(42.3834 0.000115403 0)
(42.3757 0.000115416 0)
(42.3678 0.000115428 0)
(42.3598 0.00011544 0)
(42.3517 0.000115453 0)
(42.3434 0.000115467 0)
(42.335 0.000115481 0)
(42.3265 0.000115496 0)
(42.3178 0.000115511 0)
(42.309 0.000115526 0)
(42.3 0.000115541 0)
(42.2909 0.000115556 0)
(42.2816 0.000115572 0)
(42.2722 0.000115587 0)
(42.2626 0.000115603 0)
(42.2529 0.000115619 0)
(42.243 0.000115635 0)
(42.233 0.00011565 0)
(42.2228 0.000115665 0)
(42.2124 0.00011568 0)
(42.2019 0.000115695 0)
(42.1913 0.000115711 0)
(42.1804 0.000115726 0)
(42.1694 0.000115742 0)
(42.1583 0.000115759 0)
(42.147 0.000115775 0)
(42.1355 0.000115792 0)
(42.1238 0.000115809 0)
(42.112 0.000115827 0)
(42.1 0.000115845 0)
(42.0879 0.000115863 0)
(42.0755 0.000115882 0)
(42.063 0.0001159 0)
(42.0504 0.000115918 0)
(42.0375 0.000115936 0)
(42.0245 0.000115953 0)
(42.0113 0.000115971 0)
(41.9979 0.000115989 0)
(41.9844 0.000116007 0)
(41.9706 0.000116024 0)
(41.9567 0.000116039 0)
(41.9426 0.000116053 0)
(41.9283 0.000116064 0)
(41.9139 0.000116071 0)
(41.8992 0.000116073 0)
(41.8844 0.000116069 0)
(41.8693 0.000116058 0)
(41.8541 0.000116038 0)
(41.8387 0.000116006 0)
(41.8232 0.000115959 0)
(41.8074 0.000115893 0)
(41.7914 0.000115805 0)
(41.7753 0.000115692 0)
(41.7589 0.000115548 0)
(41.7424 0.000115369 0)
(41.7256 0.000115148 0)
(41.7087 0.000114877 0)
(41.6916 0.00011455 0)
(41.6742 0.000114159 0)
(41.6567 0.000113696 0)
(41.639 0.000113153 0)
(41.6211 0.000112518 0)
(41.603 0.000111784 0)
(41.5846 0.00011094 0)
(41.5661 0.000109976 0)
(41.5474 0.000108883 0)
(41.5285 0.000107652 0)
(41.5093 0.000106277 0)
(41.49 0.000104749 0)
(41.4705 0.000103064 0)
(41.4507 0.000101218 0)
(41.4307 9.92075e-05 0)
(41.4106 9.70329e-05 0)
(41.3902 9.46953e-05 0)
(41.3696 9.21981e-05 0)
(41.3488 8.95471e-05 0)
(41.3278 8.675e-05 0)
(41.3066 8.38165e-05 0)
(41.2852 8.07588e-05 0)
(41.2635 7.75904e-05 0)
(41.2417 7.43268e-05 0)
(41.2196 7.0985e-05 0)
(41.1973 6.7583e-05 0)
(41.1748 6.41397e-05 0)
(41.1521 6.06746e-05 0)
(41.1291 5.72075e-05 0)
(41.106 5.3758e-05 0)
(41.0826 5.03453e-05 0)
(41.059 4.69879e-05 0)
(41.0352 4.3703e-05 0)
(41.0112 4.0507e-05 0)
(40.9869 3.74142e-05 0)
(40.9624 3.44376e-05 0)
(40.9377 3.15883e-05 0)
(40.9128 2.88753e-05 0)
(40.8877 2.63061e-05 0)
(40.8623 2.38857e-05 0)
(40.8367 2.16175e-05 0)
(40.8109 1.95031e-05 0)
(40.7849 1.75422e-05 0)
(40.7586 1.57332e-05 0)
(40.7321 1.40727e-05 0)
(40.7054 1.25565e-05 0)
(40.6785 1.1179e-05 0)
(40.6514 9.93384e-06 0)
(40.624 8.814e-06 0)
(40.5964 7.81193e-06 0)
(40.5685 6.91975e-06 0)
(40.5405 6.1294e-06 0)
(40.5122 5.43276e-06 0)
(40.4837 4.82183e-06 0)
(40.4549 4.28876e-06 0)
(40.426 3.826e-06 0)
(40.3968 3.42635e-06 0)
(40.3673 3.08299e-06 0)
(40.3377 2.78957e-06 0)
(40.3078 2.54018e-06 0)
(40.2777 2.32939e-06 0)
(40.2473 2.15225e-06 0)
(40.2167 2.00428e-06 0)
(40.1859 1.88145e-06 0)
(40.1549 1.78017e-06 0)
(40.1236 1.69726e-06 0)
(40.0921 1.62994e-06 0)
(40.0603 1.57574e-06 0)
(40.0283 1.53256e-06 0)
(39.9961 1.49858e-06 0)
(39.9637 1.47224e-06 0)
(39.931 1.4522e-06 0)
(39.8981 1.43735e-06 0)
(39.8649 1.42673e-06 0)
(39.8315 1.41956e-06 0)
(39.7979 1.41517e-06 0)
(39.7641 1.41304e-06 0)
(39.73 1.4127e-06 0)
(39.6956 1.41379e-06 0)
(39.661 1.41601e-06 0)
(39.6262 1.41912e-06 0)
(39.5912 1.42293e-06 0)
(39.5559 1.42728e-06 0)
(39.5204 1.43205e-06 0)
(39.4846 1.43712e-06 0)
(39.4486 1.44244e-06 0)
(39.4124 1.44793e-06 0)
(39.3759 1.45355e-06 0)
(39.3391 1.45927e-06 0)
(39.3022 1.46504e-06 0)
(39.265 1.47085e-06 0)
(39.2275 1.47668e-06 0)
(39.1898 1.48251e-06 0)
(39.1519 1.48834e-06 0)
(39.1137 1.49415e-06 0)
(39.0753 1.49996e-06 0)
(39.0367 1.50574e-06 0)
(38.9978 1.51149e-06 0)
(38.9586 1.51721e-06 0)
(38.9192 1.5229e-06 0)
(38.8796 1.52856e-06 0)
(38.8397 1.53418e-06 0)
(38.7996 1.53977e-06 0)
(38.7592 1.54532e-06 0)
(38.7186 1.55083e-06 0)
(38.6778 1.5563e-06 0)
(38.6367 1.56174e-06 0)
(38.5953 1.56714e-06 0)
(38.5537 1.5725e-06 0)
(38.5119 1.57782e-06 0)
(38.4698 1.58311e-06 0)
(38.4275 1.58835e-06 0)
(38.3849 1.59355e-06 0)
(38.3421 1.5987e-06 0)
(38.299 1.60381e-06 0)
(38.2557 1.60888e-06 0)
(38.2122 1.61389e-06 0)
(38.1684 1.61887e-06 0)
(38.1243 1.62381e-06 0)
(38.08 1.6287e-06 0)
(38.0355 1.63356e-06 0)
(37.9907 1.63837e-06 0)
(37.9457 1.64314e-06 0)
(37.9004 1.64786e-06 0)
(37.8548 1.65253e-06 0)
(37.8091 1.65715e-06 0)
(37.763 1.66171e-06 0)
(37.7167 1.66622e-06 0)
(37.6702 1.67069e-06 0)
(37.6235 1.67512e-06 0)
(37.5764 1.6795e-06 0)
(37.5292 1.68382e-06 0)
(37.4817 1.6881e-06 0)
(37.4339 1.69231e-06 0)
(37.3859 1.69648e-06 0)
(37.3376 1.7006e-06 0)
(37.2891 1.70467e-06 0)
(37.2404 1.70869e-06 0)
(37.1914 1.71267e-06 0)
(37.1421 1.71659e-06 0)
(37.0926 1.72046e-06 0)
(37.0429 1.72426e-06 0)
(36.9929 1.728e-06 0)
(36.9427 1.73168e-06 0)
(36.8922 1.73531e-06 0)
(36.8414 1.73888e-06 0)
(36.7905 1.74239e-06 0)
(36.7392 1.74585e-06 0)
(36.6878 1.74927e-06 0)
(36.636 1.75263e-06 0)
(36.5841 1.75593e-06 0)
(36.5319 1.75916e-06 0)
(36.4794 1.76234e-06 0)
(36.4267 1.76545e-06 0)
(36.3737 1.7685e-06 0)
(36.3206 1.77148e-06 0)
(36.2671 1.7744e-06 0)
(36.2134 1.77726e-06 0)
(36.1595 1.78005e-06 0)
(36.1053 1.78278e-06 0)
(36.0509 1.78545e-06 0)
(35.9962 1.78807e-06 0)
(35.9413 1.79062e-06 0)
(35.8862 1.7931e-06 0)
(35.8308 1.79552e-06 0)
(35.7751 1.79787e-06 0)
(35.7192 1.80016e-06 0)
(35.6631 1.80237e-06 0)
(35.6068 1.80453e-06 0)
(35.5501 1.80661e-06 0)
(35.4933 1.80862e-06 0)
(35.4362 1.81055e-06 0)
(35.3789 1.81243e-06 0)
(35.3213 1.81423e-06 0)
(35.2635 1.81596e-06 0)
(35.2054 1.81763e-06 0)
(35.1471 1.81922e-06 0)
(35.0886 1.82074e-06 0)
(35.0298 1.82218e-06 0)
(34.9708 1.82356e-06 0)
(34.9115 1.82487e-06 0)
(34.8521 1.8261e-06 0)
(34.7923 1.82726e-06 0)
(34.7324 1.82833e-06 0)
(34.6722 1.82933e-06 0)
(34.6117 1.83025e-06 0)
(34.5511 1.83111e-06 0)
(34.4902 1.83188e-06 0)
(34.429 1.83259e-06 0)
(34.3677 1.83321e-06 0)
(34.3061 1.83374e-06 0)
(34.2442 1.83419e-06 0)
(34.1822 1.83455e-06 0)
(34.1199 1.83485e-06 0)
(34.0573 1.83507e-06 0)
(33.9946 1.83523e-06 0)
(33.9316 1.8353e-06 0)
(33.8684 1.83528e-06 0)
(33.8049 1.83517e-06 0)
(33.7412 1.83496e-06 0)
(33.6773 1.83467e-06 0)
(33.6132 1.83428e-06 0)
(33.5489 1.83384e-06 0)
(33.4843 1.83333e-06 0)
(33.4195 1.83273e-06 0)
(33.3545 1.83205e-06 0)
(33.2892 1.83128e-06 0)
(33.2237 1.83042e-06 0)
(33.158 1.82947e-06 0)
(33.0921 1.82842e-06 0)
(33.026 1.82729e-06 0)
(32.9596 1.82605e-06 0)
(32.8931 1.82471e-06 0)
(32.8263 1.82328e-06 0)
(32.7593 1.82177e-06 0)
(32.6921 1.82017e-06 0)
(32.6246 1.8185e-06 0)
(32.557 1.81674e-06 0)
(32.4891 1.81489e-06 0)
(32.421 1.81295e-06 0)
(32.3527 1.81093e-06 0)
(32.2842 1.80879e-06 0)
(32.2155 1.80655e-06 0)
(32.1466 1.80421e-06 0)
(32.0775 1.80177e-06 0)
(32.0081 1.79925e-06 0)
(31.9386 1.79662e-06 0)
(31.8688 1.79392e-06 0)
(31.7989 1.79111e-06 0)
(31.7287 1.78822e-06 0)
(31.6584 1.7852e-06 0)
(31.5878 1.78213e-06 0)
(31.5171 1.77887e-06 0)
(31.4461 1.77565e-06 0)
(31.375 1.77214e-06 0)
(31.3036 1.76876e-06 0)
(31.232 1.76501e-06 0)
(31.1603 1.76152e-06 0)
(31.0884 1.75755e-06 0)
(31.0162 1.75433e-06 0)
(30.9439 1.75045e-06 0)
(30.8714 1.74917e-06 0)
(30.7987 1.74815e-06 0)
(30.7258 1.7556e-06 0)
(30.6527 1.77497e-06 0)
(30.5794 1.82611e-06 0)
(30.506 1.9647e-06 0)
(30.4323 2.29066e-06 0)
(30.3585 3.1034e-06 0)
(30.2845 5.00571e-06 0)
(30.2103 9.60149e-06 0)
(30.1359 2.04809e-05 0)
(30.0612 4.64614e-05 0)
(29.9862 0.000108197 0)
(29.9107 0.000255179 0)
(29.8341 0.00060451 0)
(29.7552 0.00143423 0)
(29.6712 0.00340127 0)
(29.5751 0.00805379 0)
(29.451 0.0190242 0)
(29.2612 0.0448734 0)
(28.9169 0.106606 0)
(28.2614 0.266672 0)
(25.9794 0.661012 0)
(42.6992 9.72821e-05 0)
(42.6973 9.88288e-05 0)
(42.6951 9.45273e-05 0)
(42.693 9.88041e-05 0)
(42.6909 0.000102587 0)
(42.6889 0.000104528 0)
(42.6868 0.000105849 0)
(42.6847 0.000106999 0)
(42.6826 0.000107993 0)
(42.6804 0.000108831 0)
(42.6783 0.000109546 0)
(42.6761 0.000110163 0)
(42.6739 0.0001107 0)
(42.6716 0.000111168 0)
(42.6694 0.000111577 0)
(42.6671 0.000111937 0)
(42.6647 0.000112254 0)
(42.6624 0.000112533 0)
(42.66 0.00011278 0)
(42.6575 0.000112999 0)
(42.6551 0.000113194 0)
(42.6526 0.000113367 0)
(42.65 0.000113521 0)
(42.6474 0.000113659 0)
(42.6448 0.000113781 0)
(42.6421 0.000113892 0)
(42.6393 0.00011399 0)
(42.6365 0.000114079 0)