/*--------------------------------*- C++ -*----------------------------------*\
| =========                 |                                                 |
| \\      /  F ield         | OpenFOAM: The Open Source CFD Toolbox           |
|  \\    /   O peration     | Version:  3.0.x                                 |
|   \\  /    A nd           | Web:      www.OpenFOAM.org                      |
|    \\/     M anipulation  |                                                 |
\*---------------------------------------------------------------------------*/
FoamFile
{
    version     2.0;
    format      ascii;
    class       surfaceScalarField;
    location    "0.1";
    object      phi;
}
// * * * * * * * * * * * * * * * * * * * * * * * * * * * * * * * * * * * * * //

dimensions      [1 0 -1 0 0 0 0];

internalField   nonuniform List<scalar> 
52430
(
3.90568
0.000243632
3.90551
0.000176239
3.90536
0.000168958
3.90519
0.00017022
3.90502
0.00017067
3.90486
0.000170602
3.9047
0.000170552
3.90455
0.000170576
3.9044
0.000170625
3.90426
0.000170595
3.90411
0.000170631
3.90397
0.000170645
3.90382
0.000170653
3.90367
0.000170652
3.90352
0.000170639
3.90337
0.000170605
3.90322
0.000170533
3.90307
0.000170408
3.90293
0.000170159
3.90278
0.000169766
3.90264
0.000169105
3.9025
0.000168129
3.90237
0.000166615
3.90224
0.000164523
3.90212
0.000161621
3.902
0.000157727
3.90189
0.000152849
3.90179
0.000146774
3.9017
0.000139563
3.90162
0.00013122
3.90156
0.000121871
3.90151
0.000111704
3.90148
0.000100959
3.90146
8.99155e-05
3.90146
7.88685e-05
3.90148
6.80989e-05
3.90151
5.78584e-05
3.90156
4.8373e-05
3.90162
3.97824e-05
3.9017
3.21839e-05
3.90179
2.56134e-05
3.9019
2.00556e-05
3.90202
1.54542e-05
3.90215
1.17236e-05
3.9023
8.76002e-06
3.90245
6.45228e-06
3.90262
4.6899e-06
3.9028
3.3694e-06
3.90299
2.3983e-06
3.90319
1.6971e-06
3.9034
1.19984e-06
3.90363
8.53408e-07
3.90386
6.16285e-07
3.90411
4.56865e-07
3.90436
3.5154e-07
3.90463
2.83268e-07
3.90491
2.39879e-07
3.9052
2.12958e-07
3.9055
1.96602e-07
3.90581
1.87069e-07
3.90613
1.81786e-07
3.90646
1.79058e-07
3.9068
1.77837e-07
3.90715
1.77526e-07
3.90751
1.77741e-07
3.90788
1.78019e-07
3.90825
1.78476e-07
3.90864
1.78941e-07
3.90902
1.79236e-07
3.90942
1.79405e-07
3.90981
1.79502e-07
3.91022
1.79458e-07
3.91062
1.79067e-07
3.91103
1.78667e-07
3.91143
1.78141e-07
3.91184
1.77166e-07
3.91224
1.76162e-07
3.91265
1.75029e-07
3.91305
1.73563e-07
3.91344
1.71836e-07
3.91383
1.70094e-07
3.91421
1.68176e-07
3.91458
1.65675e-07
3.91495
1.63374e-07
3.9153
1.60924e-07
3.91564
1.5787e-07
3.91597
1.54898e-07
3.91628
1.519e-07
3.91658
1.48544e-07
3.91687
1.44835e-07
3.91713
1.41386e-07
3.91738
1.37919e-07
3.91761
1.33463e-07
3.91782
1.29743e-07
3.91801
1.25901e-07
3.91818
1.21445e-07
3.91833
1.17143e-07
3.91845
1.13114e-07
3.91855
1.08939e-07
3.91863
1.04041e-07
3.91869
1.00135e-07
3.91872
9.6139e-08
3.91873
9.13496e-08
3.91871
8.65657e-08
3.91867
8.23056e-08
3.91861
7.87204e-08
3.91853
7.46913e-08
3.91842
7.07587e-08
3.91829
6.69497e-08
3.91813
6.32717e-08
3.91796
5.97411e-08
3.91776
5.63687e-08
3.91755
5.31636e-08
3.91731
5.0135e-08
3.91706
4.72901e-08
3.91679
4.46453e-08
3.9165
4.21969e-08
3.91619
3.99596e-08
3.91588
3.7935e-08
3.91554
3.61251e-08
3.91519
3.45408e-08
3.91484
3.31765e-08
3.91447
3.2036e-08
3.91409
3.11211e-08
3.9137
3.04244e-08
3.9133
2.99515e-08
3.9129
2.96968e-08
3.91249
2.96568e-08
3.91208
2.98242e-08
3.91166
3.01989e-08
3.91125
3.07737e-08
3.91083
3.15395e-08
3.9104
3.24908e-08
3.90998
3.3624e-08
3.90957
3.49246e-08
3.90915
3.63834e-08
3.90873
3.80005e-08
3.90832
3.97631e-08
3.90791
4.16603e-08
3.90751
4.36867e-08
3.90712
4.58258e-08
3.90672
4.80777e-08
3.90634
5.04278e-08
3.90596
5.28689e-08
3.90559
5.53919e-08
3.90523
5.79857e-08
3.90487
6.06524e-08
3.90452
6.33736e-08
3.90418
6.61439e-08
3.90384
6.89615e-08
3.90352
7.18155e-08
3.9032
7.46986e-08
3.90289
7.76072e-08
3.90259
8.05358e-08
3.90229
8.34807e-08
3.90201
8.64366e-08
3.90173
8.93997e-08
3.90145
9.23628e-08
3.90118
9.5326e-08
3.90092
9.82873e-08
3.90067
1.01245e-07
3.90041
1.04195e-07
3.90017
1.07135e-07
3.89992
1.10065e-07
3.89968
1.12985e-07
3.89945
1.15895e-07
3.89921
1.18789e-07
3.89898
1.21667e-07
3.89875
1.2453e-07
3.89852
1.27331e-07
3.89829
1.28393e-07
3.89805
1.31213e-07
3.89782
1.39857e-07
3.89758
1.39045e-07
3.89735
1.41086e-07
3.8971
1.4392e-07
3.89686
1.46769e-07
3.89661
1.49525e-07
3.89635
1.52208e-07
3.89609
1.54854e-07
3.89582
1.57459e-07
3.89555
1.60018e-07
3.89527
1.62534e-07
3.89498
1.64999e-07
3.89468
1.67403e-07
3.89438
1.69744e-07
3.89407
1.72013e-07
3.89374
1.74206e-07
3.89341
1.76307e-07
3.89307
1.7831e-07
3.89272
1.80209e-07
3.89237
1.8199e-07
3.892
1.83642e-07
3.89163
1.85157e-07
3.89124
1.86521e-07
3.89085
1.87722e-07
3.89045
1.88749e-07
3.89005
1.89588e-07
3.88963
1.90237e-07
3.88921
1.90676e-07
3.88879
1.90892e-07
3.88836
1.90879e-07
3.88793
1.90626e-07
3.8875
1.90124e-07
3.88706
1.89366e-07
3.88663
1.88338e-07
3.88619
1.87038e-07
3.88576
1.85453e-07
3.88533
1.83587e-07
3.88491
1.81439e-07
3.88449
1.78998e-07
3.88408
1.76267e-07
3.88368
1.73253e-07
3.88329
1.69955e-07
3.88291
1.66379e-07
3.88254
1.62534e-07
3.88219
1.58423e-07
3.88185
1.54059e-07
3.88153
1.49459e-07
3.88123
1.44633e-07
3.88095
1.39598e-07
3.88069
1.34378e-07
3.88045
1.28979e-07
3.88023
1.23433e-07
3.88004
1.17758e-07
3.87987
1.11979e-07
3.87973
1.06122e-07
3.87962
1.00212e-07
3.87953
9.42728e-08
3.87946
8.83356e-08
3.87943
8.24421e-08
3.87942
7.72416e-08
3.87944
7.17209e-08
3.87949
6.52217e-08
3.87956
5.92172e-08
3.87966
5.42204e-08
3.87979
4.91527e-08
3.87994
4.41596e-08
3.88011
3.95885e-08
3.88031
3.48045e-08
3.88054
3.06227e-08
3.88078
2.69301e-08
3.88105
2.33431e-08
3.88134
2.01635e-08
3.88164
1.71513e-08
3.88196
1.44591e-08
3.8823
1.24601e-08
3.88265
1.06447e-08
3.88301
9.19681e-09
3.88338
8.12179e-09
3.88377
7.21957e-09
3.88416
6.98128e-09
3.88456
7.01584e-09
3.88496
7.3469e-09
3.88536
8.07813e-09
3.88577
8.92942e-09
3.88617
1.03009e-08
3.88658
1.19908e-08
3.88698
1.39044e-08
3.88738
1.60962e-08
3.88778
1.84209e-08
3.88816
2.10366e-08
3.88854
2.39288e-08
3.88892
2.69683e-08
3.88928
3.01698e-08
3.88963
3.34621e-08
3.88998
3.68491e-08
3.89031
4.04198e-08
3.89063
4.40486e-08
3.89094
4.77303e-08
3.89123
5.1441e-08
3.89152
5.51045e-08
3.89179
5.88261e-08
3.89204
6.25314e-08
3.89229
6.62094e-08
3.89252
6.98492e-08
3.89274
7.3358e-08
3.89294
7.68141e-08
3.89314
8.01974e-08
3.89332
8.34971e-08
3.89349
8.67076e-08
3.89365
8.97653e-08
3.89379
9.26957e-08
3.89393
9.55115e-08
3.89405
9.82145e-08
3.89417
1.00807e-07
3.89427
1.03253e-07
3.89437
1.05549e-07
3.89446
1.07713e-07
3.89454
1.09756e-07
3.89461
1.1169e-07
3.89467
1.1351e-07
3.89473
1.15182e-07
3.89478
1.16737e-07
3.89483
1.18178e-07
3.89487
1.19526e-07
3.89491
1.20795e-07
3.89494
1.21952e-07
3.89496
1.23015e-07
3.89498
1.23988e-07
3.895
1.24894e-07
3.89501
1.25749e-07
3.89503
1.26545e-07
3.89503
1.27273e-07
3.89504
1.27942e-07
3.89504
1.2857e-07
3.89504
1.28939e-07
3.89503
1.29845e-07
3.89503
1.30298e-07
3.89502
1.30869e-07
3.895
1.31327e-07
3.89499
1.31889e-07
3.89497
1.32402e-07
3.89495
1.32912e-07
3.89493
1.33452e-07
3.8949
1.33985e-07
3.89487
1.34543e-07
3.89484
1.35156e-07
3.8948
1.3576e-07
3.89476
1.36415e-07
3.89472
1.37099e-07
3.89467
1.37805e-07
3.89462
1.38583e-07
3.89456
1.39395e-07
3.89449
1.4025e-07
3.89443
1.41154e-07
3.89435
1.42105e-07
3.89427
1.43105e-07
3.89418
1.44182e-07
3.89409
1.45294e-07
3.89399
1.46461e-07
3.89388
1.47682e-07
3.89376
1.48952e-07
3.89364
1.50281e-07
3.8935
1.51667e-07
3.89336
1.53083e-07
3.89321
1.54547e-07
3.89305
1.56051e-07
3.89288
1.57586e-07
3.89269
1.59163e-07
3.8925
1.60762e-07
3.89229
1.62374e-07
3.89208
1.63998e-07
3.89185
1.65626e-07
3.89161
1.67249e-07
3.89136
1.68862e-07
3.8911
1.70452e-07
3.89083
1.72005e-07
3.89054
1.73513e-07
3.89025
1.74963e-07
3.88994
1.7634e-07
3.88962
1.77646e-07
3.88929
1.78856e-07
3.88894
1.79954e-07
3.88859
1.80939e-07
3.88823
1.81783e-07
3.88786
1.82481e-07
3.88748
1.83018e-07
3.88709
1.83385e-07
3.8867
1.83558e-07
3.8863
1.83532e-07
3.88589
1.8329e-07
3.88548
1.82827e-07
3.88507
1.82126e-07
3.88466
1.81184e-07
3.88424
1.79991e-07
3.88382
1.78523e-07
3.88341
1.76789e-07
3.883
1.74787e-07
3.88259
1.72507e-07
3.88219
1.69948e-07
3.8818
1.67112e-07
3.88141
1.63996e-07
3.88104
1.60619e-07
3.88067
1.57015e-07
3.88032
1.53244e-07
3.87999
1.49437e-07
3.87967
1.45894e-07
3.87936
1.43376e-07
3.87908
1.43642e-07
3.87881
1.50874e-07
3.87857
1.75065e-07
3.87835
2.40087e-07
3.87815
4.03064e-07
3.87797
8.00603e-07
3.87782
1.75952e-06
3.87769
4.06156e-06
3.87758
9.57655e-06
3.87749
2.2776e-05
3.87739
5.43483e-05
3.87724
0.000129825
3.87694
0.000310114
3.87624
0.000739485
3.87454
0.00176263
3.87044
0.00419174
3.86061
0.00994169
3.83723
0.0235331
3.78136
0.0560371
3.64176
0.139793
0.377579
3.26439
5.52385
0.000213053
5.52387
0.000170608
5.5239
0.000155979
5.52392
0.000158259
5.52393
0.000159367
5.52395
0.000159249
5.52398
0.000159162
5.52402
0.0001592
5.52406
0.00015926
5.52412
0.000159252
5.52416
0.000159293
5.5242
0.000159318
5.52424
0.000159337
5.52428
0.000159347
5.52432
0.000159347
5.52437
0.000159326
5.52441
0.000159274
5.52445
0.000159163
5.5245
0.000158954
5.52455
0.000158596
5.5246
0.000158005
5.52465
0.0001571
5.52471
0.000155722
5.52477
0.000153796
5.52483
0.000151117
5.5249
0.000147524
5.52497
0.000143003
5.52504
0.000137373
5.52512
0.000130678
5.52521
0.000122923
5.5253
0.000114223
5.52539
0.000104752
5.52549
9.47324e-05
5.5256
8.44237e-05
5.52572
7.41016e-05
5.52584
6.40287e-05
5.52597
5.44421e-05
5.52611
4.55525e-05
5.52626
3.74941e-05
5.52642
3.0359e-05
5.52659
2.41828e-05
5.52677
1.8953e-05
5.52696
1.46185e-05
5.52717
1.11004e-05
5.52738
8.30249e-06
5.52761
6.12122e-06
5.52786
4.45346e-06
5.52811
3.20234e-06
5.52839
2.28111e-06
5.52867
1.61509e-06
5.52897
1.14216e-06
5.52929
8.12235e-07
5.52962
5.86104e-07
5.52997
4.33848e-07
5.53033
3.33114e-07
5.53071
2.67701e-07
5.53111
2.26063e-07
5.53152
2.00167e-07
5.53194
1.84408e-07
5.53238
1.75178e-07
5.53284
1.70044e-07
5.5333
1.67371e-07
5.53379
1.66151e-07
5.53428
1.65812e-07
5.53479
1.65978e-07
5.53531
1.66238e-07
5.53584
1.66639e-07
5.53638
1.67068e-07
5.53693
1.67351e-07
5.53748
1.67504e-07
5.53804
1.6759e-07
5.53861
1.67545e-07
5.53918
1.67199e-07
5.53976
1.6681e-07
5.54033
1.66313e-07
5.54091
1.65428e-07
5.54148
1.64475e-07
5.54205
1.63418e-07
5.54262
1.62061e-07
5.54317
1.60451e-07
5.54372
1.58817e-07
5.54426
1.57019e-07
5.54479
1.54721e-07
5.5453
1.5254e-07
5.5458
1.50248e-07
5.54629
1.47436e-07
5.54675
1.44641e-07
5.5472
1.41837e-07
5.54762
1.38713e-07
5.54802
1.3527e-07
5.5484
1.32032e-07
5.54875
1.28765e-07
5.54907
1.24684e-07
5.54937
1.21157e-07
5.54964
1.17563e-07
5.54987
1.13443e-07
5.55008
1.09425e-07
5.55026
1.05644e-07
5.5504
1.01735e-07
5.55051
9.72286e-08
5.55059
9.35288e-08
5.55064
8.97971e-08
5.55065
8.53033e-08
5.55063
8.09059e-08
5.55057
7.69423e-08
5.55049
7.35417e-08
5.55036
6.97974e-08
5.55021
6.61303e-08
5.55003
6.25741e-08
5.54981
5.91444e-08
5.54956
5.58493e-08
5.54929
5.26998e-08
5.54898
4.97121e-08
5.54865
4.68845e-08
5.54829
4.42315e-08
5.54791
4.17594e-08
5.5475
3.94775e-08
5.54707
3.73875e-08
5.54661
3.54994e-08
5.54614
3.38132e-08
5.54565
3.23353e-08
5.54514
3.10583e-08
5.54462
2.99915e-08
5.54409
2.91402e-08
5.54354
2.84899e-08
5.54298
2.8047e-08
5.54241
2.78096e-08
5.54183
2.77723e-08
5.54125
2.79306e-08
5.54066
2.82816e-08
5.54007
2.88146e-08
5.53947
2.95286e-08
5.53888
3.04162e-08
5.53828
3.14712e-08
5.53769
3.26854e-08
5.5371
3.40478e-08
5.53651
3.55549e-08
5.53593
3.71974e-08
5.53535
3.897e-08
5.53478
4.08563e-08
5.53422
4.28536e-08
5.53367
4.49545e-08
5.53312
4.71482e-08
5.53259
4.94274e-08
5.53206
5.17803e-08
5.53155
5.42041e-08
5.53104
5.66861e-08
5.53055
5.9229e-08
5.53007
6.18165e-08
5.5296
6.44459e-08
5.52914
6.7108e-08
5.52869
6.97946e-08
5.52825
7.25104e-08
5.52782
7.52452e-08
5.5274
7.79919e-08
5.527
8.07486e-08
5.5266
8.35125e-08
5.52621
8.62783e-08
5.52583
8.90414e-08
5.52546
9.18071e-08
5.5251
9.45683e-08
5.52474
9.73178e-08
5.52439
1.00064e-07
5.52405
1.02797e-07
5.52371
1.05523e-07
5.52338
1.0824e-07
5.52305
1.10937e-07
5.52272
1.13625e-07
5.52239
1.16287e-07
5.52206
1.18845e-07
5.52173
1.19994e-07
5.52141
1.22749e-07
5.52107
1.30163e-07
5.52074
1.30028e-07
5.5204
1.31769e-07
5.52006
1.34388e-07
5.51971
1.3705e-07
5.51936
1.3962e-07
5.519
1.42127e-07
5.51863
1.44591e-07
5.51825
1.47024e-07
5.51786
1.49414e-07
5.51747
1.51758e-07
5.51706
1.5406e-07
5.51664
1.56304e-07
5.51621
1.58491e-07
5.51577
1.6061e-07
5.51531
1.62655e-07
5.51484
1.64616e-07
5.51436
1.66486e-07
5.51387
1.68256e-07
5.51336
1.69919e-07
5.51285
1.71462e-07
5.51231
1.72871e-07
5.51177
1.74145e-07
5.51122
1.75268e-07
5.51066
1.76226e-07
5.51008
1.77009e-07
5.5095
1.77612e-07
5.50891
1.78024e-07
5.50831
1.78226e-07
5.5077
1.78215e-07
5.50709
1.77978e-07
5.50648
1.7751e-07
5.50586
1.76804e-07
5.50525
1.75844e-07
5.50464
1.74629e-07
5.50402
1.73154e-07
5.50342
1.71412e-07
5.50282
1.69405e-07
5.50223
1.67131e-07
5.50165
1.64583e-07
5.50108
1.61768e-07
5.50052
1.5869e-07
5.49999
1.55354e-07
5.49947
1.51766e-07
5.49897
1.47927e-07
5.49849
1.43856e-07
5.49804
1.39559e-07
5.49761
1.3506e-07
5.49722
1.30363e-07
5.49685
1.25491e-07
5.49651
1.20453e-07
5.4962
1.15274e-07
5.49593
1.0998e-07
5.4957
1.04588e-07
5.49549
9.91195e-08
5.49533
9.36043e-08
5.4952
8.80618e-08
5.49512
8.2523e-08
5.49507
7.70415e-08
5.49506
7.21366e-08
5.49508
6.69688e-08
5.49515
6.10544e-08
5.49525
5.53491e-08
5.49539
5.06398e-08
5.49557
4.59513e-08
5.49579
4.13038e-08
5.49603
3.70183e-08
5.49632
3.25808e-08
5.49663
2.86636e-08
5.49698
2.52148e-08
5.49736
2.18761e-08
5.49776
1.89038e-08
5.49819
1.60826e-08
5.49865
1.35751e-08
5.49912
1.16934e-08
5.49962
1.00117e-08
5.50013
8.66567e-09
5.50066
7.66795e-09
5.5012
6.86214e-09
5.50175
6.60111e-09
5.50231
6.6284e-09
5.50288
6.93672e-09
5.50345
7.60519e-09
5.50403
8.42829e-09
5.5046
9.68612e-09
5.50518
1.12623e-08
5.50575
1.3054e-08
5.50631
1.50912e-08
5.50687
1.72713e-08
5.50741
1.9706e-08
5.50795
2.24027e-08
5.50848
2.52421e-08
5.50899
2.82234e-08
5.50949
3.12975e-08
5.50998
3.44617e-08
5.51045
3.7785e-08
5.5109
4.11774e-08
5.51134
4.46116e-08
5.51175
4.80704e-08
5.51216
5.14983e-08
5.51254
5.49653e-08
5.5129
5.84223e-08
5.51325
6.18575e-08
5.51357
6.52471e-08
5.51388
6.85286e-08
5.51417
7.17455e-08
5.51445
7.49078e-08
5.5147
7.79874e-08
5.51494
8.09823e-08
5.51516
8.38381e-08
5.51537
8.65693e-08
5.51556
8.91978e-08
5.51574
9.17198e-08
5.5159
9.41372e-08
5.51605
9.64219e-08
5.51619
9.85638e-08
5.51631
1.00585e-07
5.51642
1.02489e-07
5.51653
1.04295e-07
5.51662
1.05992e-07
5.5167
1.07557e-07
5.51677
1.09005e-07
5.51684
1.10354e-07
5.5169
1.11612e-07
5.51695
1.12792e-07
5.51699
1.13876e-07
5.51702
1.14866e-07
5.51705
1.15774e-07
5.51708
1.16621e-07
5.5171
1.17418e-07
5.51711
1.18162e-07
5.51713
1.18841e-07
5.51713
1.19466e-07
5.51713
1.20044e-07
5.51713
1.20421e-07
5.51713
1.21226e-07
5.51712
1.21657e-07
5.5171
1.22205e-07
5.51708
1.22627e-07
5.51706
1.23152e-07
5.51704
1.23633e-07
5.51701
1.24106e-07
5.51698
1.24607e-07
5.51694
1.25107e-07
5.5169
1.25631e-07
5.51685
1.26201e-07
5.5168
1.26766e-07
5.51674
1.27377e-07
5.51668
1.28011e-07
5.51661
1.28673e-07
5.51653
1.29399e-07
5.51645
1.3016e-07
5.51636
1.30955e-07
5.51627
1.31799e-07
5.51616
1.32689e-07
5.51605
1.33627e-07
5.51592
1.34625e-07
5.51579
1.35668e-07
5.51565
1.36755e-07
5.51549
1.37892e-07
5.51533
1.3908e-07
5.51515
1.40319e-07
5.51496
1.41617e-07
5.51476
1.42935e-07
5.51455
1.443e-07
5.51432
1.45705e-07
5.51407
1.47137e-07
5.51382
1.48611e-07
5.51354
1.50102e-07
5.51325
1.51608e-07
5.51295
1.53122e-07
5.51263
1.5464e-07
5.51229
1.56158e-07
5.51194
1.57663e-07
5.51157
1.59143e-07
5.51118
1.60594e-07
5.51077
1.62003e-07
5.51035
1.63357e-07
5.50992
1.64645e-07
5.50947
1.6586e-07
5.509
1.6699e-07
5.50852
1.68013e-07
5.50802
1.6893e-07
5.50751
1.69719e-07
5.50698
1.70372e-07
5.50645
1.70874e-07
5.5059
1.71215e-07
5.50534
1.7138e-07
5.50478
1.71356e-07
5.5042
1.71125e-07
5.50362
1.70698e-07
5.50304
1.70037e-07
5.50245
1.6916e-07
5.50186
1.6805e-07
5.50127
1.66679e-07
5.50069
1.65064e-07
5.50011
1.63199e-07
5.49953
1.61072e-07
5.49896
1.58682e-07
5.49841
1.56044e-07
5.49786
1.53157e-07
5.49733
1.50044e-07
5.49682
1.46778e-07
5.49632
1.43492e-07
5.49585
1.4049e-07
5.49539
1.38496e-07
5.49497
1.39303e-07
5.49456
1.47144e-07
5.49419
1.72044e-07
5.49384
2.38018e-07
5.49353
4.02492e-07
5.49325
8.02937e-07
5.493
1.76807e-06
5.49279
4.08441e-06
5.4926
9.63335e-06
5.49245
2.2915e-05
5.49232
5.46909e-05
5.49218
0.000130685
5.49197
0.000312346
5.49154
0.000746284
5.49056
0.00177969
5.48816
0.00424245
5.48239
0.0100901
5.46857
0.0239352
5.43563
0.0566729
5.35697
0.134941
5.16172
0.335315
0.865954
4.67365
7.81189
0.000176151
7.81193
0.000158994
7.81197
0.000138686
7.812
0.000141281
7.81202
0.000143181
7.81205
0.00014305
7.81209
0.000142916
7.81214
0.000142961
7.8122
0.000143024
7.81228
0.000143032
7.81234
0.000143068
7.8124
0.000143093
7.81246
0.000143113
7.81252
0.000143125
7.81257
0.000143126
7.81263
0.00014311
7.81269
0.000143067
7.81275
0.000142967
7.81282
0.00014279
7.81289
0.000142479
7.81296
0.000141967
7.81304
0.000141166
7.81312
0.000139964
7.8132
0.000138275
7.81329
0.000135918
7.81339
0.000132758
7.81349
0.000128763
7.81359
0.000123789
7.81371
0.000117855
7.81383
0.00011097
7.81395
0.000103232
7.81409
9.4788e-05
7.81423
8.58363e-05
7.81439
7.66065e-05
7.81455
6.73439e-05
7.81472
5.82846e-05
7.81491
4.96442e-05
7.81511
4.16121e-05
7.81532
3.43148e-05
7.81554
2.78382e-05
7.81578
2.22188e-05
7.81604
1.7449e-05
7.81631
1.34862e-05
7.8166
1.02618e-05
7.8169
7.69109e-06
7.81723
5.68197e-06
7.81757
4.14194e-06
7.81794
2.98369e-06
7.81832
2.12864e-06
7.81873
1.50886e-06
7.81915
1.06759e-06
7.8196
7.58931e-07
7.82007
5.46792e-07
7.82056
4.03548e-07
7.82108
3.08503e-07
7.82161
2.46579e-07
7.82217
2.07032e-07
7.82275
1.82334e-07
7.82335
1.67247e-07
7.82397
1.58344e-07
7.82461
1.53347e-07
7.82528
1.50709e-07
7.82596
1.49466e-07
7.82666
1.4907e-07
7.82738
1.49158e-07
7.82811
1.49378e-07
7.82886
1.49706e-07
7.82962
1.50078e-07
7.8304
1.50336e-07
7.83119
1.50469e-07
7.83198
1.50537e-07
7.83278
1.50495e-07
7.83359
1.502e-07
7.8344
1.49836e-07
7.83522
1.49383e-07
7.83603
1.48616e-07
7.83684
1.47741e-07
7.83765
1.46786e-07
7.83845
1.45578e-07
7.83923
1.44137e-07
7.84001
1.42655e-07
7.84077
1.4103e-07
7.84152
1.39005e-07
7.84225
1.37015e-07
7.84295
1.34946e-07
7.84364
1.32459e-07
7.84429
1.29927e-07
7.84492
1.27396e-07
7.84552
1.24599e-07
7.84609
1.21527e-07
7.84662
1.18599e-07
7.84712
1.15627e-07
7.84758
1.1205e-07
7.848
1.0882e-07
7.84837
1.0558e-07
7.84871
1.01917e-07
7.849
9.83027e-08
7.84925
9.48821e-08
7.84946
9.13606e-08
7.84962
8.73824e-08
7.84973
8.4e-08
7.84979
8.06413e-08
7.84981
7.65817e-08
7.84978
7.27032e-08
7.8497
6.91566e-08
7.84958
6.60407e-08
7.8494
6.26933e-08
7.84919
5.93996e-08
7.84892
5.62059e-08
7.84862
5.31254e-08
7.84827
5.01655e-08
7.84788
4.73378e-08
7.84745
4.46521e-08
7.84698
4.21123e-08
7.84647
3.97285e-08
7.84593
3.75094e-08
7.84535
3.54589e-08
7.84474
3.35799e-08
7.8441
3.18846e-08
7.84343
3.0373e-08
7.84274
2.9042e-08
7.84202
2.78965e-08
7.84128
2.69392e-08
7.84052
2.61739e-08
7.83975
2.55914e-08
7.83896
2.51935e-08
7.83815
2.49788e-08
7.83733
2.49452e-08
7.83651
2.50875e-08
7.83568
2.54026e-08
7.83484
2.58829e-08
7.834
2.65227e-08
7.83316
2.73217e-08
7.83232
2.82671e-08
7.83148
2.93558e-08
7.83064
3.05827e-08
7.82981
3.19355e-08
7.82899
3.34126e-08
7.82818
3.50046e-08
7.82737
3.6699e-08
7.82658
3.84921e-08
7.82579
4.03811e-08
7.82502
4.23511e-08
7.82427
4.43965e-08
7.82352
4.65093e-08
7.82279
4.86866e-08
7.82208
5.09185e-08
7.82138
5.32013e-08
7.8207
5.55256e-08
7.82003
5.78884e-08
7.81938
6.02804e-08
7.81875
6.26942e-08
7.81813
6.51339e-08
7.81752
6.75896e-08
7.81693
7.00561e-08
7.81636
7.25327e-08
7.8158
7.50147e-08
7.81525
7.7499e-08
7.81471
7.99837e-08
7.81419
8.24662e-08
7.81367
8.49454e-08
7.81317
8.74165e-08
7.81268
8.98863e-08
7.81219
9.23401e-08
7.81171
9.47866e-08
7.81124
9.72263e-08
7.81077
9.96506e-08
7.8103
1.02063e-07
7.80984
1.04445e-07
7.80938
1.06686e-07
7.80891
1.07898e-07
7.80845
1.10498e-07
7.80798
1.16442e-07
7.80751
1.16986e-07
7.80703
1.18391e-07
7.80655
1.20711e-07
7.80606
1.23105e-07
7.80556
1.25415e-07
7.80505
1.27668e-07
7.80452
1.2988e-07
7.80399
1.32064e-07
7.80344
1.34211e-07
7.80288
1.36319e-07
7.8023
1.38386e-07
7.80171
1.40399e-07
7.8011
1.42365e-07
7.80047
1.44268e-07
7.79983
1.46106e-07
7.79917
1.47866e-07
7.79849
1.49545e-07
7.79779
1.51135e-07
7.79708
1.52628e-07
7.79634
1.54015e-07
7.79559
1.55281e-07
7.79483
1.56425e-07
7.79404
1.57432e-07
7.79325
1.58292e-07
7.79243
1.58996e-07
7.79161
1.59539e-07
7.79077
1.59908e-07
7.78993
1.60089e-07
7.78907
1.6008e-07
7.78821
1.59868e-07
7.78734
1.59447e-07
7.78647
1.58812e-07
7.7856
1.57948e-07
7.78473
1.56857e-07
7.78387
1.55533e-07
7.78301
1.5397e-07
7.78216
1.52165e-07
7.78133
1.50121e-07
7.78051
1.47834e-07
7.7797
1.45305e-07
7.77892
1.4254e-07
7.77816
1.39544e-07
7.77742
1.3632e-07
7.77672
1.32874e-07
7.77605
1.29216e-07
7.77541
1.25355e-07
7.7748
1.21315e-07
7.77424
1.17096e-07
7.77372
1.12719e-07
7.77324
1.08193e-07
7.77281
1.03542e-07
7.77242
9.87884e-08
7.77209
9.39463e-08
7.77181
8.90345e-08
7.77157
8.40819e-08
7.7714
7.91024e-08
7.77127
7.41306e-08
7.7712
6.92257e-08
7.77118
6.47619e-08
7.77122
6.0104e-08
7.77131
5.49503e-08
7.77146
4.9728e-08
7.77166
4.54374e-08
7.77191
4.12706e-08
7.77222
3.71128e-08
7.77257
3.32425e-08
7.77297
2.92825e-08
7.77342
2.57537e-08
7.77391
2.26491e-08
7.77444
1.96596e-08
7.77501
1.69839e-08
7.77562
1.44441e-08
7.77626
1.22009e-08
7.77694
1.04856e-08
7.77764
8.98854e-09
7.77836
7.78891e-09
7.77911
6.89306e-09
7.77987
6.24004e-09
7.78066
5.94764e-09
7.78145
5.95719e-09
7.78225
6.23913e-09
7.78306
6.8062e-09
7.78387
7.6011e-09
7.78469
8.70341e-09
7.7855
1.01131e-08
7.7863
1.17311e-08
7.7871
1.35433e-08
7.78789
1.55255e-08
7.78866
1.7712e-08
7.78942
2.01226e-08
7.79017
2.26796e-08
7.7909
2.5349e-08
7.7916
2.81129e-08
7.79229
3.09656e-08
7.79295
3.39392e-08
7.79359
3.69905e-08
7.79421
4.00751e-08
7.7948
4.31742e-08
7.79537
4.62655e-08
7.79591
4.93706e-08
7.79642
5.24792e-08
7.79691
5.5566e-08
7.79737
5.86006e-08
7.79781
6.15582e-08
7.79822
6.44459e-08
7.79861
6.72831e-08
7.79897
7.00506e-08
7.79931
7.27355e-08
7.79962
7.53048e-08
7.79992
7.77591e-08
7.80019
8.01169e-08
7.80044
8.23875e-08
7.80067
8.45553e-08
7.80088
8.66057e-08
7.80107
8.85334e-08
7.80125
9.03465e-08
7.80141
9.20609e-08
7.80155
9.36816e-08
7.80168
9.52018e-08
7.8018
9.66102e-08
7.8019
9.79098e-08
7.80199
9.91249e-08
7.80207
1.00255e-07
7.80214
1.01313e-07
7.8022
1.02287e-07
7.80225
1.03175e-07
7.8023
1.03992e-07
7.80233
1.04754e-07
7.80236
1.05467e-07
7.80238
1.06135e-07
7.8024
1.06746e-07
7.8024
1.07308e-07
7.80241
1.07825e-07
7.8024
1.08194e-07
7.8024
1.08871e-07
7.80238
1.09271e-07
7.80236
1.09775e-07
7.80234
1.10153e-07
7.80231
1.10618e-07
7.80227
1.11052e-07
7.80223
1.11476e-07
7.80219
1.11927e-07
7.80213
1.12375e-07
7.80207
1.1285e-07
7.80201
1.13359e-07
7.80193
1.1387e-07
7.80185
1.14418e-07
7.80176
1.14987e-07
7.80167
1.15584e-07
7.80156
1.16234e-07
7.80145
1.16916e-07
7.80132
1.17632e-07
7.80118
1.18388e-07
7.80103
1.19187e-07
7.80087
1.20031e-07
7.8007
1.20926e-07
7.80051
1.21865e-07
7.80031
1.2284e-07
7.80009
1.23863e-07
7.79986
1.24929e-07
7.79961
1.26042e-07
7.79934
1.27208e-07
7.79905
1.28391e-07
7.79875
1.29618e-07
7.79842
1.30881e-07
7.79808
1.32166e-07
7.79772
1.33492e-07
7.79733
1.3483e-07
7.79692
1.36184e-07
7.79649
1.37544e-07
7.79603
1.38906e-07
7.79556
1.40269e-07
7.79506
1.4162e-07
7.79453
1.4295e-07
7.79399
1.44253e-07
7.79342
1.45518e-07
7.79282
1.46733e-07
7.7922
1.47892e-07
7.79156
1.48983e-07
7.7909
1.49997e-07
7.79022
1.50916e-07
7.78952
1.5174e-07
7.78879
1.52449e-07
7.78805
1.53035e-07
7.78729
1.53485e-07
7.78652
1.53793e-07
7.78573
1.53937e-07
7.78493
1.5392e-07
7.78412
1.53706e-07
7.7833
1.53329e-07
7.78247
1.52732e-07
7.78164
1.51945e-07
7.78081
1.5095e-07
7.77998
1.49717e-07
7.77915
1.48267e-07
7.77833
1.46592e-07
7.77751
1.44682e-07
7.77671
1.42538e-07
7.77593
1.40182e-07
7.77515
1.37617e-07
7.7744
1.34879e-07
7.77368
1.3209e-07
7.77298
1.2948e-07
7.77231
1.2761e-07
7.77166
1.27766e-07
7.77106
1.3319e-07
7.77049
1.5152e-07
7.76996
2.00883e-07
7.76947
3.247e-07
7.76903
6.26847e-07
7.76863
1.35597e-06
7.76828
3.10669e-06
7.76798
7.30175e-06
7.76772
1.73445e-05
7.7675
4.13755e-05
7.76731
9.88625e-05
7.76712
0.000236342
7.76683
0.000564979
7.76624
0.00135004
7.76487
0.00321968
7.76157
0.00767575
7.75358
0.0182586
7.73443
0.0433189
7.68882
0.102574
7.58015
0.243947
7.31414
0.601717
1.49151
6.689
34.4833
7.16153e-05
34.4835
8.17972e-05
34.4837
6.94153e-05
34.4838
6.95893e-05
34.4839
7.15453e-05
34.484
7.17912e-05
34.4842
7.16139e-05
34.4844
7.15894e-05
34.4847
7.1612e-05
34.485
7.16121e-05
34.4853
7.16109e-05
34.4856
7.16121e-05
34.4858
7.16128e-05
34.4861
7.16117e-05
34.4863
7.16074e-05
34.4866
7.15966e-05
34.4868
7.1573e-05
34.4871
7.15184e-05
34.4874
7.14598e-05
34.4877
7.13105e-05
34.488
7.10805e-05
34.4884
7.07065e-05
34.4887
7.01535e-05
34.4891
6.93714e-05
34.4895
6.82593e-05
34.4899
6.6765e-05
34.4904
6.48518e-05
34.4908
6.24592e-05
34.4913
5.9581e-05
34.4919
5.62216e-05
34.4924
5.24221e-05
34.493
4.82526e-05
34.4937
4.38081e-05
34.4943
3.92017e-05
34.4951
3.45558e-05
34.4958
2.99904e-05
34.4967
2.56172e-05
34.4975
2.1533e-05
34.4985
1.78074e-05
34.4995
1.44874e-05
34.5005
1.15956e-05
34.5017
9.13166e-06
34.5029
7.07703e-06
34.5041
5.39933e-06
34.5055
4.05712e-06
34.5069
3.00456e-06
34.5084
2.19508e-06
34.51
1.58431e-06
34.5117
1.13197e-06
34.5135
8.03068e-07
34.5154
5.68164e-07
34.5174
4.03331e-07
34.5195
2.89683e-07
34.5216
2.12696e-07
34.5239
1.61456e-07
34.5263
1.2796e-07
34.5287
1.06498e-07
34.5313
9.30388e-08
34.5339
8.47888e-08
34.5367
7.98793e-08
34.5395
7.70963e-08
34.5424
7.56077e-08
34.5455
7.48832e-08
34.5485
7.46186e-08
34.5517
7.46215e-08
34.555
7.47259e-08
34.5583
7.4868e-08
34.5616
7.5044e-08
34.5651
7.51775e-08
34.5685
7.52405e-08
34.572
7.52677e-08
34.5756
7.52434e-08
34.5791
7.51122e-08
34.5827
7.49162e-08
34.5863
7.46804e-08
34.5899
7.43241e-08
34.5935
7.38705e-08
34.597
7.33851e-08
34.6006
7.2793e-08
34.6041
7.2079e-08
34.6075
7.13214e-08
34.6109
7.05022e-08
34.6141
6.9527e-08
34.6174
6.85027e-08
34.6205
6.74552e-08
34.6235
6.62501e-08
34.6264
6.49661e-08
34.6292
6.36842e-08
34.6318
6.22974e-08
34.6343
6.07847e-08
34.6367
5.92943e-08
34.6389
5.77772e-08
34.6409
5.60706e-08
34.6427
5.44026e-08
34.6444
5.27641e-08
34.6459
5.09749e-08
34.6472
4.91634e-08
34.6483
4.74279e-08
34.6492
4.56598e-08
34.6499
4.3739e-08
34.6504
4.19927e-08
34.6507
4.02738e-08
34.6507
3.82652e-08
34.6506
3.63766e-08
34.6503
3.46213e-08
34.6497
3.30049e-08
34.6489
3.13401e-08
34.648
2.96977e-08
34.6468
2.81007e-08
34.6455
2.65609e-08
34.6439
2.50811e-08
34.6422
2.36671e-08
34.6403
2.23238e-08
34.6382
2.10541e-08
34.636
1.98622e-08
34.6336
1.87524e-08
34.631
1.77267e-08
34.6284
1.67877e-08
34.6255
1.59403e-08
34.6226
1.51838e-08
34.6195
1.45183e-08
34.6164
1.39457e-08
34.6131
1.34676e-08
34.6097
1.30854e-08
34.6063
1.27941e-08
34.6028
1.25956e-08
34.5993
1.2488e-08
34.5957
1.24717e-08
34.592
1.25428e-08
34.5883
1.27004e-08
34.5847
1.29407e-08
34.5809
1.32604e-08
34.5772
1.36592e-08
34.5735
1.41329e-08
34.5698
1.46774e-08
34.5661
1.529e-08
34.5625
1.59675e-08
34.5588
1.67058e-08
34.5552
1.75016e-08
34.5517
1.83497e-08
34.5482
1.92476e-08
34.5447
2.01908e-08
34.5413
2.11753e-08
34.538
2.21978e-08
34.5347
2.32544e-08
34.5315
2.43433e-08
34.5283
2.54597e-08
34.5253
2.66014e-08
34.5222
2.77635e-08
34.5193
2.89447e-08
34.5164
3.01404e-08
34.5136
3.13478e-08
34.5109
3.25672e-08
34.5082
3.37948e-08
34.5056
3.5029e-08
34.5031
3.62668e-08
34.5006
3.75085e-08
34.4982
3.87502e-08
34.4958
3.9993e-08
34.4935
4.12342e-08
34.4912
4.24743e-08
34.489
4.37105e-08
34.4868
4.49443e-08
34.4847
4.61723e-08
34.4826
4.73954e-08
34.4805
4.8615e-08
34.4784
4.98264e-08
34.4763
5.10281e-08
34.4743
5.22048e-08
34.4723
5.32873e-08
34.4702
5.40963e-08
34.4682
5.54583e-08
34.4661
5.77757e-08
34.464
5.86128e-08
34.4619
5.92577e-08
34.4598
6.03566e-08
34.4576
6.15512e-08
34.4554
6.27067e-08
34.4531
6.38333e-08
34.4508
6.49402e-08
34.4485
6.60316e-08
34.4461
6.71055e-08
34.4436
6.81603e-08
34.441
6.91919e-08
34.4384
7.01991e-08
34.4357
7.11811e-08
34.433
7.21336e-08
34.4301
7.30524e-08
34.4272
7.39319e-08
34.4242
7.47714e-08
34.4211
7.55667e-08
34.418
7.63127e-08
34.4147
7.70056e-08
34.4114
7.76395e-08
34.408
7.82111e-08
34.4046
7.87149e-08
34.4011
7.91445e-08
34.3975
7.94962e-08
34.3938
7.97677e-08
34.3901
7.99514e-08
34.3864
8.00414e-08
34.3826
8.00369e-08
34.3788
7.99309e-08
34.375
7.97202e-08
34.3711
7.94018e-08
34.3673
7.8971e-08
34.3635
7.84253e-08
34.3597
7.77627e-08
34.3559
7.69812e-08
34.3521
7.6079e-08
34.3484
7.50565e-08
34.3448
7.39133e-08
34.3413
7.26498e-08
34.3378
7.12666e-08
34.3345
6.97689e-08
34.3312
6.81575e-08
34.3281
6.64343e-08
34.3251
6.4605e-08
34.3223
6.26769e-08
34.3196
6.06558e-08
34.3172
5.85462e-08
34.3149
5.63577e-08
34.3127
5.40947e-08
34.3108
5.17705e-08
34.3091
4.93926e-08
34.3077
4.69727e-08
34.3064
4.45173e-08
34.3054
4.20414e-08
34.3046
3.95532e-08
34.304
3.70719e-08
34.3037
3.46345e-08
34.3037
3.23453e-08
34.3038
3.00081e-08
34.3042
2.75506e-08
34.3049
2.49136e-08
34.3058
2.26755e-08
34.3069
2.06137e-08
34.3082
1.85621e-08
34.3098
1.66142e-08
34.3116
1.46617e-08
34.3135
1.28903e-08
34.3157
1.13232e-08
34.318
9.83687e-09
34.3206
8.49013e-09
34.3232
7.23094e-09
34.3261
6.1234e-09
34.3291
5.24801e-09
34.3321
4.50564e-09
34.3353
3.90401e-09
34.3386
3.49928e-09
34.342
3.21484e-09
34.3455
2.99747e-09
34.349
2.9188e-09
34.3525
3.03021e-09
34.3561
3.38173e-09
34.3597
3.7719e-09
34.3633
4.34443e-09
34.3668
5.07794e-09
34.3704
5.88511e-09
34.3739
6.79825e-09
34.3774
7.76731e-09
34.3808
8.84825e-09
34.3842
1.00633e-08
34.3875
1.13475e-08
34.3907
1.26859e-08
34.3938
1.40628e-08
34.3968
1.5476e-08
34.3998
1.69662e-08
34.4026
1.84971e-08
34.4053
2.00419e-08
34.4079
2.15939e-08
34.4104
2.31319e-08
34.4128
2.46798e-08
34.4151
2.62373e-08
34.4172
2.77832e-08