/*--------------------------------*- C++ -*----------------------------------*\
| =========                 |                                                 |
| \\      /  F ield         | OpenFOAM: The Open Source CFD Toolbox           |
|  \\    /   O peration     | Version:  3.0.x                                 |
|   \\  /    A nd           | Web:      www.OpenFOAM.org                      |
|    \\/     M anipulation  |                                                 |
\*---------------------------------------------------------------------------*/
FoamFile
{
    version     2.0;
    format      ascii;
    class       surfaceScalarField;
    location    "0.65";
    object      phi;
}
// * * * * * * * * * * * * * * * * * * * * * * * * * * * * * * * * * * * * * //

dimensions      [1 0 -1 0 0 0 0];

internalField   nonuniform List<scalar> 
999
(
2523.38
2523.38
2523.38
2523.38
2523.38
2523.38
2523.38
2523.38
2523.38
2523.38
2523.38
2523.38
2523.38
2523.38
2523.38
2523.38
2523.38
2523.38
2523.38
2523.38
2523.38
2523.38
2523.38
2523.38
2523.38
2523.38
2523.38
2523.38
2523.38
2523.38
2523.38
2523.38
2523.38
2523.38
2523.38
2523.38
2523.38
2523.38
2523.38
2523.38
2523.38
2523.38
2523.38
2523.38
2523.38
2523.38
2523.38
2523.38
2523.38
2523.38
2523.38
2523.38
2523.38
2523.38
2523.38
2523.38
2523.38
2523.38
2523.38
2523.38
2523.38
2523.38
2523.38
2523.38
2523.38
2523.38
2523.38
2523.38
2523.38
2523.38
2523.38
2523.38
2523.38
2523.38
2523.38
2523.38
2523.38
2523.38
2523.38
2523.38
2523.38
2523.38
2523.38
2523.38
2523.38
2523.38
2523.38
2523.38
2523.38
2523.38
2523.38
2523.38
2523.38
2523.38
2523.38
2523.38
2523.38
2523.38
2523.38
2523.38
2523.38
2523.38
2523.38
2523.38
2523.38
2523.38
2523.38
2523.38
2523.38
2523.38
2523.38
2523.38
2523.38
2523.38
2523.38
2523.38
2523.38
2523.38
2523.38
2523.38
2523.38
2523.38
2523.38
2523.38
2523.38
2523.38
2523.38
2523.38
2523.38
2523.38
2523.38
2523.38
2523.38
2523.38
2523.38
2523.38
2523.38
2523.38
2523.38
2523.38
2523.38
2523.38
2523.38
2523.38
2523.38
2523.38
2523.38
2523.38
2523.38
2523.38
2523.38
2523.38
2523.38
2523.38
2523.38
2523.38
2523.38
2523.38
2523.38
2523.38
2523.38
2523.38
2523.38
2523.38
2523.38
2523.38
2523.38
2523.38
2523.38
2523.38
2523.38
2523.38
2523.38
2523.38
2523.38
2523.38
2523.38
2523.38
2523.38
2523.38
2523.38
2523.38
2523.38
2523.38
2523.38
2523.38
2523.38
2523.38
2523.38
2523.38
2523.38
2523.38
2523.38
2523.38
2523.38
2523.38
2523.38
2523.38
2523.38
2523.38
2523.38
2523.38
2523.38
2523.38
2523.38
2523.38
2523.38
2523.38
2523.38
2523.38
2523.38
2523.38
2523.38
2523.38
2523.38
2523.38
2523.38
2523.38
2523.38
2523.38
2523.38
2523.38
2523.38
2523.38
2523.38
2523.38
2523.38
2523.38
2523.38
2523.38
2523.38
2523.38
2523.38
2523.38
2523.38
2523.38
2523.38
2523.38
2523.38
2523.38
2523.38
2523.38
2523.38
2523.38
2523.38
2523.38
2523.38
2523.38
2523.38
2523.38
2523.38
2523.38
2523.38
2523.38
2523.38
2523.38
2523.38
2523.38
2523.38
2523.38
2523.38
2523.38
2523.38
2523.38
2523.38
2523.38
2523.38
2523.38
2523.38
2523.38
2523.38
2523.38
2523.38
2523.38
2523.38
2523.38
2523.38
2523.38
2523.38
2523.38
2523.38
2523.38
2523.38
2523.38
2523.38
2523.38
2523.38
2523.38
2523.38
2523.38
2523.38
2523.38
2523.38
2523.38
2523.38
2523.38
2523.38
2523.38
2523.38
2523.38
2523.38
2523.38
2523.38
2523.38
2523.38
2523.38
2523.38
2523.38
2523.38
2523.38
2523.38
2523.38
2523.38
2523.38
2523.38
2523.38
2523.38
2523.38
2523.38
2523.38
2523.38
2523.38
2523.38
2523.38
2523.38
2523.38
2523.38
2523.38
2523.38
2523.38
2523.38
2523.38
2523.38
2523.38
2523.38
2523.38
2523.38
2523.38
2523.38
2523.38
2523.38
2523.38
2523.38
2523.38
2523.38
2523.38
2523.38
2523.38
2523.38
2523.38
2523.38
2523.38
2523.38
2523.38
2523.38
2523.38
2523.38
2523.38
2523.38
2523.38
2523.38
2523.38
2523.38
2523.38
2523.38
2523.38
2523.38
2523.38
2523.38
2523.38
2523.38
2523.38
2523.38
2523.38
2523.38
2523.38
2523.38
2523.38
2523.38
2523.38
2523.38
2523.38
2523.38
2523.38
2523.38
2523.38
2523.38
2523.38
2523.38
2523.38
2523.38
2523.38
2523.38
2523.38
2523.38
2523.38
2523.38
2523.38
2523.38
2523.38
2523.38
2523.38
2523.38
2523.38
2523.38
2523.38
2523.38
2523.38
2523.38
2523.38
2523.38
2523.38
2523.38
2523.38
2523.38
2523.38
2523.38
2523.38
2523.38
2523.38
2523.38
2523.38
2523.38
2523.38
2523.38
2523.38
2523.38
2523.38
2523.38
2523.38
2523.38
2523.38
2523.38
2523.38
2523.38
2523.38
2523.38
2523.38
2523.38
2523.38
2523.38
2523.38
2523.38
2523.38
2523.38
2523.38
2523.38
2523.38
2523.38
2523.38
2523.38
2523.38
2523.38
2523.38
2523.38
2523.38
2523.38
2523.38
2523.38
2523.38
2523.38
2523.38
2523.38
2523.38
2523.38
2523.38
2523.38
2523.38
2523.38
2523.38
2523.38
2523.38
2523.38
2523.38
2523.38
2523.38
2523.38
2523.38
2523.38
2523.38
2523.38
2523.38
2523.38
2523.38
2523.38
2523.38
2523.38
2523.38
2523.38
2523.38
2523.38
2523.38
2523.38
2523.38
2523.38
2523.38
2523.38
2523.38
2523.38
2523.38
2523.38
2523.38
2523.38
2523.38
2523.38
2523.38
2523.38
2523.38
2523.38
2523.38
2523.38
2523.38
2523.38
2523.38
2523.38
2523.38
2523.38
2523.38
2523.38
2523.38
2523.38
2523.38
2523.38
2523.38
2523.38
2523.38
2523.38
2523.38
2523.38
2523.38
2523.38
2523.38
2523.38
2523.38
2523.38
2523.38
2523.38
2523.38
2523.38
2523.38
2523.38
2523.38
2523.38
2523.38
2523.38
2523.38
2523.38
2523.38
2523.38
2523.38
2523.38
2523.38
2523.38
2523.38
2523.38
2523.38
2523.38
2523.38
2523.38
2523.38
2523.38
2523.38
2523.38
2523.38
2523.38
2523.38
2523.38
2523.38
2523.38
2523.38
2523.38
2523.38
2523.38
2523.38
2523.38
2523.38
2523.38
2523.38
2523.38
2523.38
2523.38
2523.38
2523.38
2523.38
2523.38
2523.38
2523.38
2523.38
2523.38
2523.38
2523.38
2523.38
2523.38
2523.38
2523.38
2523.38
2523.38
2523.38
2523.38
2523.38
2523.38
2523.38
2523.38
2523.38
2523.38
2523.38
2523.38
2523.38
2523.38
2523.38
2523.38
2523.38
2523.38
2523.38
2523.38
2523.38
2523.38
2523.38
2523.38
2523.38
2523.38
2523.38
2523.38
2523.38
2523.38
2523.38
2523.38
2523.38
2523.38
2523.38
2523.38
2523.38
2523.38
2523.38
2523.38
2523.38
2523.38
2523.37
2523.37
2523.37
2523.36
2523.35
2523.35
2523.34
2523.32
2523.3
2523.28
2523.25
2523.22
2523.17
2523.12
2523.05
2522.97
2522.86
2522.73
2522.58
2522.39
2522.16
2521.88
2521.54
2521.14
2520.66
2520.09
2519.41
2518.61
2517.66
2516.56
2515.27
2513.77
2512.03
2510.02
2507.7
2505.05
2502.01
2498.56
2494.64
2490.21
2485.22
2479.62
2473.36
2466.38
2458.62
2450.03
2440.55
2430.14
2418.72
2406.25
2392.69
2377.97
2362.06
2344.91
2326.5
2306.79
2285.77
2263.4
2239.69
2214.64
2188.25
2160.53
2131.51
2101.21
2069.67
2036.94
2003.05
1968.07
1932.05
1895.06
1857.16
1818.42
1778.9
1738.7
1697.86
1656.47
1614.61
1572.33
1529.71
1486.82
1443.73
1400.5
1357.19
1313.86
1270.58
1227.4
1184.37
1141.55
1098.99
1056.74
1014.84
973.346
932.296
891.737
851.709
812.255
773.415
735.227
697.731
660.965
624.965
589.769
555.412
521.929
489.355
457.722
427.064
397.411
368.792
341.234
314.762
289.398
265.161
242.068
220.129
199.352
179.741
161.294
144.004
127.859
112.843
98.9327
86.1013
74.3166
63.5423
53.7378
44.8592
36.8599
29.6909
23.3021
17.6425
12.6616
8.30994
4.54141
1.31588
-1.4022
-3.31696
-4.96295
-6.35583
-7.5172
-8.47338
-9.2545
-9.88742
-10.3961
-10.8003
-11.1169
-11.3611
-11.5462
-11.6838
-11.7839
-11.8547
-11.9027
-11.9335
-11.9514
-11.9597
-11.9611
-11.9578
-11.9512
-11.9426
-11.9327
-11.9222
-11.9115
-11.9009
-11.8906
-11.8807
-11.8713
-11.8623
-11.8538
-11.8458
-11.8382
-11.831
-11.8243
-11.818
-11.812
-11.8063
-11.801
-11.796
-11.7913
-11.7868
-11.7826
-11.7787
-11.775
-11.7716
-11.7684
-11.7654
-11.7626
-11.7601
-11.7579
-11.7558
-11.7541
-11.7526
-11.7514
-11.7504
-11.7496
-11.749
-11.7484
-11.7478
-11.7472
-11.7467
-11.7461
-11.7455
-11.7449
-11.7443
-11.7437
-11.7431
-11.7427
-11.7422
-11.7418
-11.7413
-11.7409
-11.7404
-11.7398
-11.7391
-11.7383
-11.7374
-11.7363
-11.7352
-11.7341
-11.7329
-11.7317
-11.7304
-11.7293
-11.7281
-11.727
-11.7259
-11.7248
-11.7238
-11.7228
-11.7218
-11.7208
-11.7198
-11.7189
-11.718
-11.717
-11.7161
-11.7152
-11.7143
-11.7135
-11.7126
-11.7118
-11.7109
-11.7101
-11.7094
-11.7086
-11.7079
-11.7072
-11.7065
-11.7058
-11.7052
-11.7046
-11.704
-11.7035
-11.703
-11.7025
-11.702
-11.7016
-11.7012
-11.7008
-11.7005
-11.7002
-11.7
-11.6999
-11.6998
-11.6998
-11.6998
-11.7
-11.7002
-11.7005
-11.7009
-11.7013
-11.7018
-11.7023
-11.7029
-11.7034
-11.704
-11.7045
-11.7051
-11.7055
-11.706
-11.7064
-11.7068
-11.7072
-11.7076
-11.7079
-11.7082
-11.7085
-11.7087
-11.709
-11.7092
-11.7093
-11.7094
-11.7094
-11.7094
-11.7093
-11.7091
-11.7088
-11.7085
-11.7081
-11.7077
-11.7073
-11.7068
-11.7063
-11.7057
-11.7052
-11.7047
-11.7042
-11.7037
-11.7032
-11.7027
-11.7023
-11.7018
-11.7014
-11.701
-11.7006
-11.7002
-11.6998
-11.6994
-11.699
-11.6986
-11.6982
-11.6978
-11.6974
-11.697
-11.6965
-11.6961
-11.6957
-11.6953
-11.6949
-11.6945
-11.6941
-11.6937
-11.6934
-11.693
-11.6927
-11.6924
-11.6921
-11.6919
-11.6917
-11.6915
-11.6913
-11.6911
-11.6909
-11.6908
-11.6907
-11.6906
-11.6905
-11.6904
-11.6903
-11.6903
-11.6902
-11.6902
-11.6901
-11.6901
-11.69
-11.69
-11.69
-11.69
-11.69
-11.6899
-11.69
-11.6899
-11.6901
)
;

boundaryField
{
    inlet
    {
        type            calculated;
        value           uniform -2523.38;
    }
    backWall
    {
        type            calculated;
        value           uniform -11.6901;
    }
    sides
    {
        type            empty;
        value           nonuniform 0();
    }
}


// ************************************************************************* //
