/*--------------------------------*- C++ -*----------------------------------*\
| =========                 |                                                 |
| \\      /  F ield         | OpenFOAM: The Open Source CFD Toolbox           |
|  \\    /   O peration     | Version:  3.0.x                                 |
|   \\  /    A nd           | Web:      www.OpenFOAM.org                      |
|    \\/     M anipulation  |                                                 |
\*---------------------------------------------------------------------------*/
FoamFile
{
    version     2.0;
    format      ascii;
    class       volScalarField;
    location    "0.17";
    object      rho;
}
// * * * * * * * * * * * * * * * * * * * * * * * * * * * * * * * * * * * * * //

dimensions      [1 -3 0 0 0 0 0];

internalField   nonuniform List<scalar> 
6900
(
50.7119
50.7121
50.7124
50.7128
50.7132
50.7136
50.7139
50.7142
50.7145
50.7147
50.715
50.7152
50.7155
50.7159
50.7164
50.7168
50.7172
50.7176
50.7179
50.7182
50.7184
50.7185
50.7187
50.7188
50.7189
50.7189
50.719
50.719
50.719
50.719
50.719
50.7189
50.7189
50.7188
50.7188
50.7187
50.7187
50.7186
50.7186
50.7185
50.7185
50.7185
50.7185
50.7186
50.7186
50.7187
50.7188
50.7189
50.719
50.7191
50.7192
50.7194
50.7195
50.7197
50.7199
50.72
50.7201
50.7202
50.7203
50.7204
50.7204
50.7204
50.7203
50.7202
50.7201
50.7199
50.7197
50.7194
50.7191
50.7187
50.7183
50.7178
50.7173
50.7168
50.7162
50.7156
50.7149
50.7142
50.7136
50.7129
50.7122
50.7115
50.7107
50.71
50.7094
50.7087
50.708
50.7074
50.7068
50.7062
50.7056
50.7051
50.7046
50.7041
50.7037
50.7033
50.7029
50.7025
50.7022
50.7019
50.7016
50.7013
50.701
50.7007
50.7005
50.7002
50.7
50.6997
50.6995
50.6993
50.6991
50.6988
50.6986
50.6984
50.6982
50.6981
50.6979
50.6977
50.6976
50.6974
50.6973
50.6972
50.6971
50.6971
50.697
50.697
50.697
50.697
50.6971
50.6971
50.6972
50.6973
50.6974
50.6975
50.6976
50.6978
50.6979
50.698
50.6982
50.6983
50.6984
50.6985
50.6987
50.6988
50.6989
50.6991
50.6992
50.6994
50.6995
50.6997
50.6999
50.7002
50.7004
50.7007
50.701
50.7014
50.7018
50.7022
50.7027
50.7032
50.7038
50.7045
50.7052
50.7059
50.7068
50.7076
50.7085
50.7094
50.7104
50.7114
50.7124
50.7133
50.7143
50.7153
50.7162
50.7171
50.7179
50.7187
50.7194
50.7201
50.7207
50.7212
50.7217
50.7222
50.7226
50.7229
50.7232
50.7235
50.7237
50.7238
50.7239
50.7239
50.7239
50.7239
50.7238
50.7237
50.7237
50.7236
50.7239
50.7213
50.7119
50.7122
50.7125
50.7128
50.7132
50.7136
50.714
50.7143
50.7146
50.7148
50.715
50.7153
50.7156
50.716
50.7164
50.7169
50.7173
50.7177
50.718
50.7182
50.7184
50.7186
50.7187
50.7188
50.7189
50.719
50.719
50.7191
50.7191
50.7191
50.719
50.719
50.7189
50.7189
50.7188
50.7188
50.7187
50.7187
50.7186
50.7186
50.7186
50.7186
50.7186
50.7186
50.7187
50.7187
50.7188
50.7189
50.719
50.7192
50.7193
50.7195
50.7196
50.7198
50.7199
50.72
50.7202
50.7203
50.7204
50.7204
50.7204
50.7204
50.7204
50.7203
50.7202
50.72
50.7197
50.7195
50.7191
50.7188
50.7183
50.7179
50.7174
50.7168
50.7162
50.7156
50.715
50.7143
50.7136
50.7129
50.7122
50.7115
50.7108
50.7101
50.7094
50.7087
50.7081
50.7074
50.7068
50.7063
50.7057
50.7052
50.7047
50.7042
50.7038
50.7033
50.703
50.7026
50.7022
50.7019
50.7016
50.7013
50.701
50.7008
50.7005
50.7003
50.7
50.6998
50.6995
50.6993
50.6991
50.6989
50.6987
50.6985
50.6983
50.6981
50.6979
50.6978
50.6976
50.6975
50.6974
50.6973
50.6972
50.6971
50.6971
50.6971
50.6971
50.6971
50.6971
50.6972
50.6973
50.6974
50.6975
50.6976
50.6977
50.6978
50.698
50.6981
50.6982
50.6983
50.6985
50.6986
50.6987
50.6988
50.699
50.6991
50.6993
50.6994
50.6996
50.6998
50.7
50.7002
50.7005
50.7008
50.7011
50.7014
50.7018
50.7023
50.7028
50.7033
50.7039
50.7045
50.7052
50.706
50.7068
50.7077
50.7086
50.7095
50.7104
50.7114
50.7124
50.7134
50.7144
50.7153
50.7162
50.7171
50.7179
50.7187
50.7194
50.7201
50.7207
50.7213
50.7218
50.7222
50.7226
50.723
50.7233
50.7235
50.7237
50.7239
50.7239
50.724
50.724
50.7239
50.7239
50.7238
50.7237
50.7236
50.724
50.7216
50.7119
50.7122
50.7125
50.7128
50.7132
50.7136
50.714
50.7143
50.7145
50.7148
50.715
50.7153
50.7156
50.716
50.7164
50.7169
50.7173
50.7177
50.718
50.7182
50.7184
50.7186
50.7187
50.7188
50.7189
50.719
50.719
50.7191
50.7191
50.7191
50.719
50.719
50.7189
50.7189
50.7188
50.7188
50.7187
50.7187
50.7186
50.7186
50.7186
50.7186
50.7186
50.7186
50.7187
50.7187
50.7188
50.7189
50.719
50.7192
50.7193
50.7195
50.7196
50.7198
50.7199
50.72
50.7202
50.7203
50.7204
50.7204
50.7204
50.7204
50.7204
50.7203
50.7202
50.72
50.7197
50.7195
50.7191
50.7188
50.7183
50.7179
50.7174
50.7168
50.7162
50.7156
50.715
50.7143
50.7136
50.7129
50.7122
50.7115
50.7108
50.7101
50.7094
50.7087
50.7081
50.7074
50.7068
50.7063
50.7057
50.7052
50.7047
50.7042
50.7038
50.7033
50.703
50.7026
50.7022
50.7019
50.7016
50.7013
50.701
50.7008
50.7005
50.7003
50.7
50.6998
50.6995
50.6993
50.6991
50.6989
50.6987
50.6985
50.6983
50.6981
50.6979
50.6978
50.6976
50.6975
50.6974
50.6973
50.6972
50.6971
50.6971
50.6971
50.6971
50.6971
50.6971
50.6972
50.6973
50.6974
50.6975
50.6976
50.6977
50.6978
50.698
50.6981
50.6982
50.6983
50.6985
50.6986
50.6987
50.6988
50.699
50.6991
50.6993
50.6994
50.6996
50.6998
50.7
50.7002
50.7005
50.7008
50.7011
50.7014
50.7018
50.7023
50.7028
50.7033
50.7039
50.7045
50.7052
50.706
50.7068
50.7077
50.7086
50.7095
50.7104
50.7114
50.7124
50.7134
50.7144
50.7153
50.7162
50.7171
50.7179
50.7187
50.7194
50.7201
50.7207
50.7213
50.7218
50.7222
50.7226
50.723
50.7233
50.7235
50.7237
50.7239
50.7239
50.724
50.724
50.7239
50.7239
50.7238
50.7237
50.7236
50.7236
50.7236
50.7119
50.7122
50.7125
50.7128
50.7132
50.7136
50.714
50.7143
50.7146
50.7148
50.715
50.7153
50.7156
50.716
50.7164
50.7169
50.7173
50.7177
50.718
50.7182
50.7184
50.7186
50.7187
50.7188
50.7189
50.719
50.719
50.7191
50.7191
50.7191
50.719
50.719
50.7189
50.7189
50.7188
50.7188
50.7187
50.7187
50.7186
50.7186
50.7186
50.7186
50.7186
50.7186
50.7187
50.7187
50.7188
50.7189
50.719
50.7192
50.7193
50.7195
50.7196
50.7198
50.7199
50.72
50.7202
50.7203
50.7204
50.7204
50.7204
50.7204
50.7204
50.7203
50.7202
50.72
50.7197
50.7195
50.7191
50.7188
50.7183
50.7179
50.7174
50.7168
50.7162
50.7156
50.715
50.7143
50.7136
50.7129
50.7122
50.7115
50.7108
50.7101
50.7094
50.7087
50.7081
50.7074
50.7068
50.7063
50.7057
50.7052
50.7047
50.7042
50.7038
50.7033
50.703
50.7026
50.7022
50.7019
50.7016
50.7013
50.701
50.7008
50.7005
50.7003
50.7
50.6998
50.6995
50.6993
50.6991
50.6989
50.6987
50.6985
50.6983
50.6981
50.6979
50.6978
50.6976
50.6975
50.6974
50.6973
50.6972
50.6971
50.6971
50.6971
50.6971
50.6971
50.6971
50.6972
50.6973
50.6974
50.6975
50.6976
50.6977
50.6978
50.698
50.6981
50.6982
50.6983
50.6985
50.6986
50.6987
50.6988
50.699
50.6991
50.6993
50.6994
50.6996
50.6998
50.7
50.7002
50.7005
50.7008
50.7011
50.7014
50.7018
50.7023
50.7028
50.7033
50.7039
50.7045
50.7052
50.706
50.7068
50.7077
50.7086
50.7095
50.7104
50.7114
50.7124
50.7134
50.7144
50.7153
50.7162
50.7171
50.7179
50.7187
50.7194
50.7201
50.7207
50.7213
50.7218
50.7222
50.7226
50.723
50.7233
50.7235
50.7237
50.7239
50.7239
50.724
50.724
50.7239
50.7239
50.7238
50.7237
50.7237
50.7228
50.7285
50.7119
50.7121
50.7124
50.7128
50.7132
50.7136
50.7139
50.7142
50.7145
50.7147
50.715
50.7152
50.7155
50.7159
50.7164
50.7168
50.7172
50.7176
50.7179
50.7182
50.7184
50.7185
50.7187
50.7188
50.7189
50.7189
50.719
50.719
50.719
50.719
50.719
50.7189
50.7189
50.7188
50.7188
50.7187
50.7187
50.7186
50.7186
50.7185
50.7185
50.7185
50.7185
50.7186
50.7186
50.7187
50.7188
50.7189
50.719
50.7191
50.7192
50.7194
50.7195
50.7197
50.7199
50.72
50.7201
50.7202
50.7203
50.7204
50.7204
50.7204
50.7203
50.7202
50.7201
50.7199
50.7197
50.7194
50.7191
50.7187
50.7183
50.7178
50.7173
50.7168
50.7162
50.7156
50.7149
50.7142
50.7136
50.7129
50.7122
50.7115
50.7107
50.71
50.7094
50.7087
50.708
50.7074
50.7068
50.7062
50.7056
50.7051
50.7046
50.7041
50.7037
50.7033
50.7029
50.7025
50.7022
50.7019
50.7016
50.7013
50.701
50.7007
50.7005
50.7002
50.7
50.6997
50.6995
50.6993
50.6991
50.6988
50.6986
50.6984
50.6982
50.6981
50.6979
50.6977
50.6976
50.6974
50.6973
50.6972
50.6971
50.6971
50.697
50.697
50.697
50.697
50.6971
50.6971
50.6972
50.6973
50.6974
50.6975
50.6976
50.6978
50.6979
50.698
50.6982
50.6983
50.6984
50.6985
50.6987
50.6988
50.6989
50.6991
50.6992
50.6994
50.6995
50.6997
50.6999
50.7002
50.7004
50.7007
50.701
50.7014
50.7018
50.7022
50.7027
50.7032
50.7038
50.7045
50.7052
50.7059
50.7068
50.7076
50.7085
50.7094
50.7104
50.7114
50.7124
50.7133
50.7143
50.7153
50.7162
50.7171
50.7179
50.7187
50.7194
50.7201
50.7207
50.7212
50.7217
50.7222
50.7226
50.7229
50.7232
50.7235
50.7237
50.7238
50.7239
50.7239
50.7239
50.7239
50.7238
50.7237
50.7236
50.7237
50.7223
50.7338
50.7385
50.7448
50.7454
50.7436
50.7418
50.74
50.7381
50.7371
50.7388
50.739
50.7346
50.7248
50.715
50.7074
50.7004
50.6941
50.6924
50.7011
50.7129
50.7119
50.7351
50.7383
50.738
50.7363
50.7347
50.733
50.7311
50.7302
50.7323
50.7323
50.7267
50.7161
50.7068
50.6996
50.693
50.6874
50.6859
50.6967
50.7066
50.7022
50.7244
50.7243
50.7233
50.7213
50.7187
50.7154
50.7113
50.7065
50.7003
50.694
50.6875
50.6811
50.6739
50.6652
50.6558
50.6456
50.6343
50.6215
50.609
50.5982
50.7032
50.7004
50.7012
50.7026
50.7015
50.6979
50.693
50.6863
50.6808
50.6736
50.6675
50.6608
50.6546
50.6485
50.6429
50.6381
50.6341
50.6303
50.6277
50.6255
50.6939
50.6825
50.6783
50.6776
50.6755
50.6708
50.6647
50.657
50.6499
50.6416
50.634
50.6259
50.6185
50.6112
50.6049
50.5988
50.5939
50.5894
50.586
50.5844
50.6371
50.6097
50.6203
50.6239
50.617
50.6135
50.6135
50.6137
50.6134
50.6129
50.6129
50.613
50.6131
50.613
50.6126
50.6123
50.6122
50.6121
50.6121
50.6124
50.6129
50.6129
50.6124
50.6118
50.6115
50.6115
50.6115
50.6114
50.6113
50.6114
50.6116
50.6118
50.6117
50.6089
50.5931
50.5601
50.5425
50.5404
50.5494
50.5836
50.6143
50.6279
50.6311
50.6302
50.626
50.6218
50.6193
50.6178
50.6168
50.6162
50.6156
50.6152
50.6147
50.6143
50.6139
50.6134
50.613
50.6125
50.612
50.6116
50.6111
50.6105
50.61
50.6095
50.6089
50.6084
50.6078
50.6073
50.6067
50.6061
50.6056
50.605
50.6044
50.6038
50.6033
50.6027
50.6021
50.6016
50.601
50.6004
50.5998
50.5993
50.5987
50.5982
50.5976
50.5971
50.5965
50.596
50.5954
50.5949
50.5944
50.5939
50.5934
50.593
50.5925
50.5921
50.5917
50.5913
50.5909
50.5905
50.5902
50.5899
50.5896
50.5893
50.5891
50.5889
50.5887
50.5885
50.5884
50.5883
50.5882
50.5881
50.5881
50.588
50.588
50.588
50.588
50.5881
50.5881
50.5881
50.5882
50.5882
50.5883
50.5883
50.5883
50.5883
50.5883
50.5883
50.5883
50.5883
50.5882
50.5881
50.5881
50.588
50.5879
50.5877
50.5876
50.5874
50.5873
50.5871
50.5869
50.5867
50.5866
50.5864
50.5862
50.586
50.5858
50.5856
50.5854
50.5853
50.5851
50.585
50.5849
50.5848
50.5847
50.5846
50.5846
50.5846
50.5847
50.5847
50.5848
50.5849
50.5851
50.5852
50.5854
50.5856
50.5858
50.586
50.5863
50.5865
50.5867
50.5869
50.5871
50.5873
50.5875
50.5876
50.5877
50.5877
50.5878
50.5878
50.5877
50.5877
50.5876
50.5875
50.5874
50.5872
50.5871
50.5869
50.5867
50.5865
50.5862
50.586
50.5858
50.5855
50.5852
50.5849
50.5846
50.5844
50.583
50.5907
50.6322
50.6091
50.6201
50.623
50.6162
50.6127
50.6125
50.6126
50.6122
50.6118
50.6117
50.6118
50.6118
50.6116
50.6113
50.611
50.6109
50.6108
50.6108
50.6109
50.6111
50.6111
50.6106
50.6102
50.61
50.61
50.6099
50.6099
50.6098
50.6099
50.6102
50.6105
50.6104
50.608
50.5968
50.5825
50.5764
50.5764
50.5819
50.5981
50.611
50.6173
50.6195
50.6198
50.6194
50.6185
50.6176
50.617
50.6165
50.616
50.6156
50.6152
50.6147
50.6143
50.6139
50.6135
50.613
50.6126
50.6121
50.6116
50.6111
50.6106
50.6101
50.6095
50.609
50.6084
50.6079
50.6073
50.6068
50.6062
50.6056
50.605
50.6045
50.6039
50.6033
50.6028
50.6022
50.6016
50.601
50.6005
50.5999
50.5993
50.5988
50.5982
50.5977
50.5971
50.5966
50.596
50.5955
50.595
50.5945
50.594
50.5935
50.593
50.5926
50.5921
50.5917
50.5913
50.5909
50.5906
50.5902
50.5899
50.5897
50.5894
50.5892
50.5889
50.5888
50.5886
50.5885
50.5883
50.5883
50.5882
50.5881
50.5881
50.5881
50.5881
50.5881
50.5881
50.5881
50.5882
50.5882
50.5883
50.5883
50.5883
50.5884
50.5884
50.5884
50.5884
50.5883
50.5883
50.5883
50.5882
50.5881
50.588
50.5879
50.5878
50.5876
50.5875
50.5873
50.5871
50.587
50.5868
50.5866
50.5864
50.5862
50.586
50.5858
50.5857
50.5855
50.5853
50.5852
50.585
50.5849
50.5848
50.5847
50.5847
50.5847
50.5847
50.5847
50.5848
50.5849
50.585
50.5851
50.5853
50.5855
50.5857
50.5859
50.5861
50.5863
50.5866
50.5868
50.587
50.5872
50.5874
50.5875
50.5876
50.5877
50.5878
50.5878
50.5878
50.5878
50.5877
50.5877
50.5875
50.5874
50.5873
50.5871
50.5869
50.5867
50.5865
50.5863
50.5861
50.5858
50.5855
50.5853
50.585
50.5847
50.5844
50.5834
50.5865
50.5784
50.5898
50.5969
50.5975
50.5964
50.596
50.596
50.5961
50.596
50.5958
50.5957
50.5954
50.5951
50.5949
50.5947
50.5945
50.5943
50.594
50.5937
50.5935
50.5932
50.5931
50.5931
50.5935
50.5952
50.5995
50.6039
50.6073
50.6096
50.6111
50.612
50.6126
50.613
50.6133
50.6136
50.6141
50.6147
50.6156
50.6166
50.6172
50.6175
50.6175
50.6175
50.6173
50.617
50.6168
50.6165
50.6163
50.616
50.6157
50.6154
50.615
50.6146
50.6143
50.6139
50.6134
50.613
50.6125
50.6121
50.6116
50.6111
50.6106
50.6101
50.6095
50.609
50.6084
50.6079
50.6073
50.6068
50.6062
50.6056
50.605
50.6045
50.6039
50.6033
50.6028
50.6022
50.6016
50.601
50.6005
50.5999
50.5993
50.5988
50.5982
50.5977
50.5971
50.5966
50.596
50.5955
50.595
50.5945
50.594
50.5935
50.593
50.5926
50.5921
50.5917
50.5913
50.5909
50.5906
50.5902
50.5899
50.5897
50.5894
50.5892
50.5889
50.5888
50.5886
50.5885
50.5883
50.5883
50.5882
50.5881
50.5881
50.5881
50.5881
50.5881
50.5881
50.5881
50.5882
50.5882
50.5883
50.5883
50.5883
50.5884
50.5884
50.5884
50.5884
50.5883
50.5883
50.5883
50.5882
50.5881
50.588
50.5879
50.5878
50.5876
50.5875
50.5873
50.5871
50.587
50.5868
50.5866
50.5864
50.5862
50.586
50.5858
50.5857
50.5855
50.5853
50.5852
50.585
50.5849
50.5848
50.5847
50.5847
50.5847
50.5847
50.5847
50.5848
50.5849
50.585
50.5851
50.5853
50.5855
50.5857
50.5859
50.5861
50.5863
50.5866
50.5868
50.587
50.5872
50.5874
50.5875
50.5876
50.5877
50.5878
50.5878
50.5878
50.5878
50.5877
50.5877
50.5875
50.5874
50.5873
50.5871
50.5869
50.5867
50.5865
50.5863
50.5861
50.5858
50.5855
50.5853
50.585
50.5847
50.5844
50.5841
50.5838
50.6174
50.6157
50.615
50.6138
50.6128
50.6125
50.6126
50.6126
50.6126
50.6125
50.6125
50.6125
50.6123
50.6122
50.6121
50.612
50.612
50.6119
50.6118
50.6117
50.6116
50.6114
50.6113
50.6112
50.6112
50.6111
50.611
50.611
50.6107
50.61
50.6095
50.6095
50.6095
50.6087
50.6056
50.6031
50.6026
50.603
50.6051
50.6104
50.6148
50.6172
50.6182
50.6184
50.6182
50.6178
50.6173
50.6168
50.6163
50.6159
50.6155
50.6151
50.6147
50.6143
50.6139
50.6135
50.613
50.6126
50.6121
50.6116
50.6111
50.6106
50.6101
50.6095
50.609
50.6084
50.6079
50.6073
50.6068
50.6062
50.6056
50.605
50.6045
50.6039
50.6033
50.6028
50.6022
50.6016
50.601
50.6005
50.5999
50.5993
50.5988
50.5982
50.5977
50.5971
50.5966
50.596
50.5955
50.595
50.5945
50.594
50.5935
50.593
50.5926
50.5921
50.5917
50.5913
50.5909
50.5906
50.5902
50.5899
50.5897
50.5894
50.5892
50.5889
50.5888
50.5886
50.5885
50.5883
50.5883
50.5882
50.5881
50.5881
50.5881
50.5881
50.5881
50.5881
50.5881
50.5882
50.5882
50.5883
50.5883
50.5883
50.5884
50.5884
50.5884
50.5884
50.5883
50.5883
50.5883
50.5882
50.5881
50.588
50.5879
50.5878
50.5876
50.5875
50.5873
50.5871
50.587
50.5868
50.5866
50.5864
50.5862
50.586
50.5858
50.5857
50.5855
50.5853
50.5852
50.585
50.5849
50.5848
50.5847
50.5847
50.5847
50.5847
50.5847
50.5848
50.5849
50.585
50.5851
50.5853
50.5855
50.5857
50.5859
50.5861
50.5863
50.5866
50.5868
50.587
50.5872
50.5874
50.5875
50.5876
50.5877
50.5878
50.5878
50.5878
50.5878
50.5877
50.5877
50.5875
50.5874
50.5873
50.5871
50.5869
50.5867
50.5865
50.5863
50.5861
50.5858
50.5855
50.5853
50.585
50.5847
50.5844
50.5845
50.5832
50.6032
50.6069
50.6071
50.6061
50.6052
50.6049
50.6049
50.605
50.605
50.6051
50.605
50.605
50.6049
50.6048
50.6047
50.6046
50.6045
50.6044
50.6042
50.6041
50.604
50.6038
50.6036
50.6035
50.6035
50.6034
50.6029
50.6024
50.6024
50.6028
50.6038
50.6045
50.6042
50.5989
50.5812
50.5666
50.5612
50.5613
50.5659
50.5803
50.5941
50.6034
50.6093
50.6128
50.6147
50.6156
50.6159
50.616
50.6158
50.6156
50.6153
50.615
50.6146
50.6142
50.6138
50.6134
50.613
50.6125
50.612
50.6116
50.6111
50.6105
50.61
50.6095
50.6089
50.6084
50.6078
50.6073
50.6067
50.6061
50.6056
50.605
50.6044
50.6038
50.6033
50.6027
50.6021
50.6016
50.601
50.6004
50.5998
50.5993
50.5987
50.5982
50.5976
50.5971
50.5965
50.596
50.5954
50.5949
50.5944
50.5939
50.5934
50.593
50.5925
50.5921
50.5917
50.5913
50.5909
50.5905
50.5902
50.5899
50.5896
50.5893
50.5891
50.5889
50.5887
50.5885
50.5884
50.5883
50.5882
50.5881
50.5881
50.588
50.588
50.588
50.588
50.5881
50.5881
50.5881
50.5882
50.5882
50.5883
50.5883
50.5883
50.5883
50.5883
50.5883
50.5883
50.5883
50.5882
50.5881
50.5881
50.588
50.5879
50.5877
50.5876
50.5874
50.5873
50.5871
50.5869
50.5867
50.5866
50.5864
50.5862
50.586
50.5858
50.5856
50.5854
50.5853
50.5851
50.585
50.5849
50.5848
50.5847
50.5846
50.5846
50.5846
50.5847
50.5847
50.5848
50.5849
50.5851
50.5852
50.5854
50.5856
50.5858
50.586
50.5863
50.5865
50.5867
50.5869
50.5871
50.5873
50.5875
50.5876
50.5877
50.5877
50.5878
50.5878
50.5877
50.5877
50.5876
50.5875
50.5874
50.5872
50.5871
50.5869
50.5867
50.5865
50.5862
50.586
50.5858
50.5855
50.5852
50.5849
50.5847
50.5844
50.5845
50.5829
50.5566
50.5447
50.5403
50.5393
50.537
50.5323
50.5259
50.5192
50.5117
50.5043
50.4966
50.4889
50.4818
50.4749
50.4688
50.463
50.4581
50.4534
50.45
50.4482
50.5648
50.5619
50.5623
50.5633
50.5621
50.5585
50.5528
50.5478
50.5411
50.5354
50.5287
50.5225
50.5161
50.5105
50.5057
50.501
50.4969
50.4932
50.4903
50.4879
50.5843
50.5842
50.5832
50.5812
50.5787
50.5754
50.5715
50.5664
50.5611
50.5554
50.5495
50.5426
50.5345
50.5256
50.5158
50.5047
50.4931
50.4825
50.4732
50.4654
50.5941
50.5973
50.5971
50.5955
50.5941
50.5928
50.5919
50.5924
50.5911
50.5859
50.5776
50.5707
50.5653
50.5605
50.5588
50.5659
50.5767
50.58
50.5731
50.5548
50.5973
50.6036
50.6042
50.6025
50.6009
50.5996
50.5987
50.5988
50.5978
50.5932
50.5852
50.578
50.5722
50.5671
50.565
50.5714
50.5817
50.5873
50.5836
50.5678
50.4684
50.4727
50.4721
50.4707
50.4699
50.4694
50.4692
50.469
50.4689
50.4689
50.4688
50.4687
50.4687
50.4687
50.4687
50.4687
50.4687
50.4687
50.4686
50.4684
50.4684
50.4683
50.4683
50.4683
50.4683
50.4683
50.468
50.4675
50.4673
50.4675
50.468
50.469
50.4695
50.4685
50.4599
50.4409
50.4293
50.426
50.427
50.434
50.4496
50.4621
50.4705
50.4758
50.479
50.4808
50.4818
50.4823
50.4825
50.4826
50.4826
50.4826
50.4826
50.4826
50.4826
50.4826
50.4826
50.4826
50.4826
50.4826
50.4827
50.4827
50.4828
50.4829
50.4829
50.483
50.4831
50.4832
50.4833
50.4834
50.4835
50.4835
50.4836
50.4836
50.4836
50.4836
50.4836
50.4836
50.4835
50.4834
50.4833
50.4832
50.4831
50.4829
50.4828
50.4827
50.4825
50.4824
50.4822
50.482
50.4819
50.4817
50.4816
50.4814
50.4813
50.4811
50.4809
50.4808
50.4795
50.487
50.4825
50.4811
50.4798
50.4782
50.4773
50.4768
50.4765
50.4763
50.4762
50.4761
50.4761
50.476
50.4759
50.4759
50.4759
50.476
50.476
50.476
50.476
50.4759
50.4759
50.4758
50.4758
50.4758
50.4758
50.4758
50.4756
50.4755
50.4754
50.475
50.4745
50.4743
50.4744
50.4743
50.473
50.4697
50.4679
50.4679
50.4686
50.4715
50.477
50.4808
50.4829
50.4838
50.484
50.484
50.4838
50.4835
50.4832
50.4831
50.4829
50.4828
50.4828
50.4827
50.4827
50.4826
50.4826
50.4826
50.4826
50.4827
50.4827
50.4828
50.4828
50.4829
50.483
50.4831
50.4832
50.4833
50.4834
50.4834
50.4835
50.4836
50.4836
50.4837
50.4837
50.4837
50.4837
50.4836
50.4836
50.4835
50.4834
50.4832
50.4831
50.483
50.4829
50.4827
50.4826
50.4824
50.4822
50.4821
50.4819
50.4818
50.4816
50.4815
50.4813
50.4811
50.4809
50.4808
50.4799
50.4828
50.446
50.4557
50.4614
50.4618
50.461
50.4605
50.4604
50.4602
50.4601
50.4599
50.4597
50.4595
50.4593
50.4592
50.4591
50.459
50.459
50.459
50.4588
50.4584
50.4581
50.458
50.458
50.4581
50.4587
50.4609
50.4654
50.4693
50.4723
50.4742
50.4755
50.4763
50.4768
50.4773
50.4777
50.4781
50.4787
50.4795
50.4807
50.4816
50.4823
50.4826
50.4828
50.4829
50.4829
50.4828
50.4828
50.4828
50.4828
50.4827
50.4827
50.4827
50.4827
50.4826
50.4826
50.4826
50.4826
50.4826
50.4826
50.4827
50.4827
50.4828
50.4828
50.4829
50.483
50.4831
50.4832
50.4833
50.4834
50.4834
50.4835
50.4836
50.4836
50.4837
50.4837
50.4837
50.4837
50.4836
50.4836
50.4835
50.4834
50.4832
50.4831
50.483
50.4829
50.4827
50.4826
50.4824
50.4822
50.4821
50.4819
50.4818
50.4816
50.4815
50.4813
50.4811
50.481
50.4808
50.4807
50.4805
50.4818
50.4724
50.4892
50.4867
50.479
50.4769
50.4768
50.4765
50.4758
50.4754
50.4755
50.4756
50.4756
50.4752
50.475
50.475
50.475
50.4751
50.4753
50.4757
50.4754
50.475
50.4746
50.4746
50.4747
50.4747
50.4747
50.4745
50.4742
50.474
50.4741
50.4744
50.4746
50.4743
50.4706
50.4574
50.4454
50.4414
50.4424
50.4501
50.467
50.4782
50.4836
50.4853
50.4856
50.4852
50.4844
50.4839
50.4835
50.4832
50.483
50.4829
50.4828
50.4827
50.4827
50.4826
50.4826
50.4826
50.4826
50.4827
50.4827
50.4828
50.4828
50.4829
50.483
50.4831
50.4832
50.4833
50.4834
50.4834
50.4835
50.4836
50.4836
50.4837
50.4837
50.4837
50.4837
50.4836
50.4836
50.4835
50.4834
50.4832
50.4831
50.483
50.4829
50.4827
50.4826
50.4824
50.4822
50.4821
50.4819
50.4818
50.4816
50.4815
50.4813
50.4811
50.481
50.4809
50.4811
50.48
50.4869
50.4723
50.4898
50.4873
50.4796
50.4778
50.4778
50.4777
50.4769
50.4765
50.4767
50.4769
50.4769
50.4765
50.4762
50.4762
50.4763
50.4764
50.4767
50.4773
50.4772
50.4766
50.4762
50.476
50.476
50.4761
50.4761
50.4761
50.476
50.4758
50.4757
50.4759
50.4761
50.4758
50.4719
50.4525
50.4226
50.4092
50.4089
50.4206
50.4559
50.4824
50.4936
50.496
50.495
50.4909
50.4873
50.4853
50.4842
50.4835
50.4832
50.4829
50.4828
50.4827
50.4827
50.4826
50.4826
50.4826
50.4826
50.4826
50.4827
50.4827
50.4828
50.4829
50.4829
50.483
50.4831
50.4832
50.4833
50.4834
50.4835
50.4835
50.4836
50.4836
50.4836
50.4836
50.4836
50.4836
50.4835
50.4834
50.4833
50.4832
50.4831
50.4829
50.4828
50.4827
50.4825
50.4824
50.4822
50.482
50.4819
50.4817
50.4816
50.4814
50.4813
50.4811
50.4809
50.4808
50.4811
50.4798
50.4534
50.4414
50.437
50.436
50.4337
50.429
50.4226
50.4159
50.4084
50.401
50.3933
50.3855
50.3785
50.3715
50.3655
50.3596
50.3547
50.3501
50.3467
50.3449
50.4616
50.4586
50.4591
50.4601
50.4589
50.4554
50.4497
50.4447
50.4379
50.4323
50.4255
50.4193
50.413
50.4073
50.4026
50.3978
50.3937
50.39
50.3871
50.3848
50.4811
50.481
50.48
50.4781
50.4755
50.4723
50.4684
50.4634
50.4581
50.4523
50.4464
50.4396
50.4315
50.4226
50.4129
50.4019
50.3902
50.3795
50.3701
50.3622
50.4908
50.494
50.4939
50.4924
50.491
50.4896
50.4887
50.4893
50.4882
50.4832
50.4748
50.4679
50.4624
50.4576
50.4555
50.4616
50.4728
50.4766
50.4703
50.4525
50.494
50.5004
50.501
50.4994
50.4978
50.4964
50.4955
50.4957
50.4949
50.4905
50.4826
50.4752
50.4694
50.4642
50.4618
50.4674
50.4777
50.4837
50.4806
50.4654
50.3651
50.3694
50.3692
50.3679
50.3672
50.3666
50.3664
50.3663
50.3661
50.366
50.3659
50.3658
50.3657
50.3656
50.3656
50.3656
50.3655
50.3654
50.3653
50.3651
50.3649
50.3647
50.3645
50.3644
50.3643
50.3639
50.3633
50.3629
50.3631
50.3637
50.3646
50.365
50.3638
50.3542
50.3356
50.3252
50.3226
50.3241
50.3325
50.3483
50.3602
50.3682
50.3733
50.3763
50.3781
50.3791
50.3797
50.38
50.3802
50.3803
50.3804
50.3805
50.3806
50.3807
50.3807
50.3808
50.3808
50.3809
50.3809
50.3809
50.3809
50.381
50.381
50.381
50.3809
50.3809
50.3809
50.3809
50.3808
50.3808
50.3807
50.3807
50.3806
50.3805
50.3804
50.3803
50.3802
50.3801
50.38
50.3798
50.3797
50.3796
50.3794
50.3793
50.3791
50.379
50.3789
50.3787
50.3786
50.3785
50.3784
50.3784
50.3783
50.3782
50.3782
50.3782
50.3782
50.3782
50.3782
50.3782
50.3782
50.3783
50.3784
50.3785
50.3785
50.3786
50.3787
50.3788
50.379
50.3791
50.3792
50.3793
50.3794
50.3795
50.3796
50.3797
50.3797
50.3798
50.3798
50.3798
50.3798
50.3798
50.3797
50.3797
50.3796
50.3795
50.3794
50.3792
50.3791
50.3789
50.3788
50.3786
50.3784
50.3782
50.378
50.3778
50.3776
50.3774
50.3772
50.377
50.3769
50.3767
50.3766
50.3765
50.3764
50.3763
50.3762
50.3762
50.3762
50.3762
50.3762
50.3763
50.3764
50.3765
50.3766
50.3768
50.3769
50.3771
50.3773
50.3775
50.3778
50.378
50.3782
50.3784
50.3786
50.3788
50.3789
50.3791
50.3792
50.3793
50.3793
50.3794
50.3793
50.3793
50.3792
50.3791
50.379
50.3789
50.3787
50.3786
50.3784
50.3782
50.378
50.3778
50.3776
50.3774
50.3772
50.377
50.3768
50.3766
50.3764
50.3762
50.3761
50.3759
50.3758
50.3757
50.3756
50.3756
50.376
50.3747
50.379
50.3779
50.3769
50.3755
50.3746
50.3741
50.3738
50.3736
50.3735
50.3734
50.3733
50.3732
50.373
50.3729
50.3729
50.3728
50.3728
50.3727
50.3726
50.3725
50.3723
50.3721
50.372
50.3719
50.3718
50.3716
50.3715
50.3713
50.3708
50.3702
50.3699
50.37
50.3699
50.3684
50.3655
50.3642
50.3645
50.3655
50.3692
50.3744
50.3779
50.3798
50.3807
50.3809
50.381
50.3809
50.3807
50.3806
50.3806
50.3806
50.3806
50.3807
50.3807
50.3807
50.3808
50.3808
50.3809
50.3809
50.3809
50.381
50.381
50.381
50.381
50.381
50.381
50.381
50.381
50.3809
50.3809
50.3808
50.3808
50.3807
50.3806
50.3806
50.3805
50.3804
50.3803
50.3801
50.38
50.3799
50.3797
50.3796
50.3795
50.3793
50.3792
50.379
50.3789
50.3788
50.3787
50.3786
50.3785
50.3784
50.3783
50.3783
50.3782
50.3782
50.3782
50.3782
50.3782
50.3783
50.3783
50.3784
50.3784
50.3785
50.3786
50.3787
50.3788
50.3789
50.379
50.3791
50.3792
50.3793
50.3794
50.3795
50.3796
50.3797
50.3798
50.3798
50.3798
50.3799
50.3799
50.3798
50.3798
50.3797
50.3797
50.3796
50.3794
50.3793
50.3791
50.379
50.3788
50.3786
50.3784
50.3782
50.378
50.3778
50.3777
50.3775
50.3773
50.3771
50.3769
50.3768
50.3766
50.3765
50.3764
50.3764
50.3763
50.3763
50.3762
50.3762
50.3763
50.3763
50.3764
50.3765
50.3767
50.3768
50.377
50.3772
50.3774
50.3776
50.3778
50.378
50.3782
50.3784
50.3786
50.3788
50.379
50.3791
50.3792
50.3793
50.3794
50.3794
50.3794
50.3794
50.3793
50.3792
50.3791
50.3789
50.3788
50.3786
50.3784
50.3782
50.378
50.3779
50.3777
50.3775
50.3773
50.3771
50.3769
50.3767
50.3765
50.3763
50.3761
50.376
50.3758
50.3757
50.3756
50.3756
50.376
50.3749
50.3424
50.3527
50.3587
50.3592
50.3584
50.3579
50.3578
50.3577
50.3576
50.3574
50.3572
50.357
50.3568
50.3564
50.3562
50.356
50.3558
50.3555
50.3551
50.3547
50.3543
50.3542
50.3542
50.3546
50.3564
50.3606
50.3647
50.3677
50.3698
50.3712
50.372
50.3726
50.3732
50.3736
50.3741
50.3748
50.3758
50.3771
50.3781
50.3787
50.3792
50.3795
50.3796
50.3797
50.3799
50.38
50.3801
50.3802
50.3803
50.3804
50.3805
50.3806
50.3806
50.3807
50.3808
50.3808
50.3809
50.3809
50.3809
50.381
50.381
50.381
50.381
50.381
50.381
50.381
50.381
50.3809
50.3809
50.3808
50.3808
50.3807
50.3806
50.3806
50.3805
50.3804
50.3803
50.3801
50.38
50.3799
50.3797
50.3796
50.3795
50.3793
50.3792
50.379
50.3789
50.3788
50.3787
50.3786
50.3785
50.3784
50.3783
50.3783
50.3782
50.3782
50.3782
50.3782
50.3782
50.3783
50.3783
50.3784
50.3784
50.3785
50.3786
50.3787
50.3788
50.3789
50.379
50.3791
50.3792
50.3793
50.3794
50.3795
50.3796
50.3797
50.3798
50.3798
50.3798
50.3799
50.3799
50.3798
50.3798
50.3797
50.3797
50.3796
50.3794
50.3793
50.3791
50.379
50.3788
50.3786
50.3784
50.3782
50.378
50.3778
50.3777
50.3775
50.3773
50.3771
50.3769
50.3768
50.3766
50.3765
50.3764
50.3764
50.3763
50.3763
50.3762
50.3762
50.3763
50.3763
50.3764
50.3765
50.3767
50.3768
50.377
50.3772
50.3774
50.3776
50.3778
50.378
50.3782
50.3784
50.3786
50.3788
50.379
50.3791
50.3792
50.3793
50.3794
50.3794
50.3794
50.3794
50.3793
50.3792
50.3791
50.3789
50.3788
50.3786
50.3784
50.3782
50.378
50.3779
50.3777
50.3775
50.3773
50.3771
50.3769
50.3767
50.3765
50.3763
50.3761
50.376
50.3758
50.3757
50.3756
50.3756
50.3756
50.3756
50.3775
50.3691
50.3857
50.3832
50.376
50.3741
50.374
50.3737
50.3731
50.3728
50.3728
50.3727
50.3725
50.3722
50.372
50.3719
50.3719
50.3718
50.3718
50.372
50.3719
50.3714
50.3709
50.3706
50.3705
50.3705
50.3704
50.3701
50.37
50.3701
50.3704
50.3706
50.3701
50.3654
50.3515
50.3411
50.3384
50.3402
50.35
50.3663
50.3762
50.3807
50.3821
50.3823
50.382
50.3814
50.381
50.3808
50.3807
50.3807
50.3807
50.3807
50.3807
50.3808
50.3808
50.3808
50.3809
50.3809
50.381
50.381
50.381
50.381
50.381
50.381
50.381
50.381
50.381
50.3809
50.3809
50.3808
50.3808
50.3807
50.3806
50.3806
50.3805
50.3804
50.3803
50.3801
50.38
50.3799
50.3797
50.3796
50.3795
50.3793
50.3792
50.379
50.3789
50.3788
50.3787
50.3786
50.3785
50.3784
50.3783
50.3783
50.3782
50.3782
50.3782
50.3782
50.3782
50.3783
50.3783
50.3784
50.3784
50.3785
50.3786
50.3787
50.3788
50.3789
50.379
50.3791
50.3792
50.3793
50.3794
50.3795
50.3796
50.3797
50.3798
50.3798
50.3798
50.3799
50.3799
50.3798
50.3798
50.3797
50.3797
50.3796
50.3794
50.3793
50.3791
50.379
50.3788
50.3786
50.3784
50.3782
50.378
50.3778
50.3777
50.3775
50.3773
50.3771
50.3769
50.3768
50.3766
50.3765
50.3764
50.3764
50.3763
50.3763
50.3762
50.3762
50.3763
50.3763
50.3764
50.3765
50.3767
50.3768
50.377
50.3772
50.3774
50.3776
50.3778
50.378
50.3782
50.3784
50.3786
50.3788
50.379
50.3791
50.3792
50.3793
50.3794
50.3794
50.3794
50.3794
50.3793
50.3792
50.3791
50.3789
50.3788
50.3786
50.3784
50.3782
50.378
50.3779
50.3777
50.3775
50.3772
50.3771
50.3769
50.3767
50.3765
50.3763
50.3761
50.376
50.3758
50.3757
50.3756
50.3756
50.3748
50.3782
50.3825
50.369
50.3864
50.3838
50.3766
50.3751
50.375
50.3749
50.3742
50.3738
50.3739
50.3738
50.3736
50.3733
50.3732
50.3731
50.373
50.373
50.3732
50.3737
50.3737
50.3731
50.3725
50.3721
50.372
50.3719
50.3718
50.3717
50.3715
50.3715
50.3718
50.3719
50.3714
50.3662
50.3433
50.316
50.3058
50.3073
50.3235
50.3598
50.3822
50.3909
50.3924
50.3909
50.3867
50.3838
50.3822
50.3814
50.381
50.3808
50.3807
50.3807
50.3807
50.3807
50.3808
50.3808
50.3808
50.3809
50.3809
50.3809
50.3809
50.381
50.381
50.381
50.3809
50.3809
50.3809
50.3809
50.3808
50.3808
50.3807
50.3807
50.3806
50.3805
50.3804
50.3803
50.3802
50.3801
50.38
50.3798
50.3797
50.3796
50.3794
50.3793
50.3791
50.379
50.3789
50.3787
50.3786
50.3785
50.3784
50.3784
50.3783
50.3782
50.3782
50.3782
50.3782
50.3782