/*--------------------------------*- C++ -*----------------------------------*\
| =========                 |                                                 |
| \\      /  F ield         | OpenFOAM: The Open Source CFD Toolbox           |
|  \\    /   O peration     | Version:  3.0.x                                 |
|   \\  /    A nd           | Web:      www.OpenFOAM.org                      |
|    \\/     M anipulation  |                                                 |
\*---------------------------------------------------------------------------*/
FoamFile
{
    version     2.0;
    format      ascii;
    class       volVectorField;
    location    "0.110075";
    object      U;
}
// * * * * * * * * * * * * * * * * * * * * * * * * * * * * * * * * * * * * * //

dimensions      [0 1 -1 0 0 0 0];

internalField   nonuniform List<vector> 
13800
(
(57.8964 0.000142627 0)
(57.8933 0.000124144 0)
(57.8903 0.000122813 0)
(57.8873 0.000124863 0)
(57.8842 0.000126685 0)
(57.881 0.000128174 0)
(57.8779 0.00012943 0)
(57.8748 0.000130496 0)
(57.8717 0.000131388 0)
(57.8686 0.000132094 0)
(57.8656 0.000132659 0)
(57.8625 0.000133057 0)
(57.8594 0.000133235 0)
(57.8564 0.000133145 0)
(57.8534 0.000132657 0)
(57.8504 0.000131572 0)
(57.8475 0.000129747 0)
(57.8446 0.000126964 0)
(57.8419 0.000123038 0)
(57.8393 0.000117833 0)
(57.8368 0.000111298 0)
(57.8345 0.000103482 0)
(57.8324 9.45532e-05 0)
(57.8306 8.47785e-05 0)
(57.829 7.45026e-05 0)
(57.8276 6.41112e-05 0)
(57.8265 5.39838e-05 0)
(57.8257 4.44585e-05 0)
(57.825 3.58001e-05 0)
(57.8245 2.81846e-05 0)
(57.8242 2.16955e-05 0)
(57.824 1.63331e-05 0)
(57.8239 1.20315e-05 0)
(57.8239 8.67861e-06 0)
(57.8239 6.13639e-06 0)
(57.8239 4.2605e-06 0)
(57.824 2.9109e-06 0)
(57.8242 1.96875e-06 0)
(57.8245 1.32414e-06 0)
(57.8248 8.9369e-07 0)
(57.8253 6.13785e-07 0)
(57.826 4.36489e-07 0)
(57.8269 3.27091e-07 0)
(57.8281 2.61705e-07 0)
(57.8297 2.24134e-07 0)
(57.8316 2.037e-07 0)
(57.834 1.93558e-07 0)
(57.8369 1.89455e-07 0)
(57.8404 1.88818e-07 0)
(57.8445 1.90119e-07 0)
(57.8493 1.92482e-07 0)
(57.8548 1.95397e-07 0)
(57.861 1.98587e-07 0)
(57.8681 2.01838e-07 0)
(57.8758 2.04982e-07 0)
(57.8844 2.07867e-07 0)
(57.8936 2.10352e-07 0)
(57.9035 2.12321e-07 0)
(57.9139 2.13655e-07 0)
(57.9247 2.14259e-07 0)
(57.9359 2.14035e-07 0)
(57.9472 2.12919e-07 0)
(57.9584 2.10843e-07 0)
(57.9694 2.0795e-07 0)
(57.98 2.0393e-07 0)
(57.9898 1.99068e-07 0)
(57.9988 1.93379e-07 0)
(58.0065 1.86915e-07 0)
(58.0127 1.80317e-07 0)
(58.0173 1.71922e-07 0)
(58.0199 1.64972e-07 0)
(58.0203 1.56525e-07 0)
(58.0184 1.48504e-07 0)
(58.0138 1.40638e-07 0)
(58.0066 1.33253e-07 0)
(57.9964 1.25559e-07 0)
(57.9833 1.18349e-07 0)
(57.9671 1.1247e-07 0)
(57.948 1.0748e-07 0)
(57.9259 1.04296e-07 0)
(57.9012 1.02936e-07 0)
(57.8739 1.01904e-07 0)
(57.8444 1.01315e-07 0)
(57.8128 9.92322e-08 0)
(57.7796 9.81684e-08 0)
(57.7451 9.47901e-08 0)
(57.71 8.48571e-08 0)
(57.6745 8.73432e-08 0)
(57.6388 1.18163e-07 0)
(57.6034 1.00124e-07 0)
(57.5693 8.22046e-08 0)
(57.5368 7.36968e-08 0)
(57.5063 6.17268e-08 0)
(57.4781 4.94418e-08 0)
(57.4526 3.31462e-08 0)
(57.43 1.67543e-08 0)
(57.4106 7.77032e-10 0)
(57.3944 -1.09717e-08 0)
(57.3816 -2.21074e-08 0)
(57.372 -3.21017e-08 0)
(57.3656 -4.2643e-08 0)
(57.3624 -5.14981e-08 0)
(57.362 -5.84484e-08 0)
(57.3644 -6.5776e-08 0)
(57.3691 -6.95345e-08 0)
(57.3759 -7.2164e-08 0)
(57.3844 -7.30276e-08 0)
(57.3941 -7.1222e-08 0)
(57.4048 -6.73598e-08 0)
(57.416 -6.19024e-08 0)
(57.4274 -5.45872e-08 0)
(57.4388 -4.56177e-08 0)
(57.4498 -3.53387e-08 0)
(57.4603 -2.47395e-08 0)
(57.4701 -1.32563e-08 0)
(57.479 -1.54502e-09 0)
(57.487 1.09651e-08 0)
(57.4941 2.28426e-08 0)
(57.5002 3.44563e-08 0)
(57.5054 4.55621e-08 0)
(57.5097 5.62667e-08 0)
(57.5131 6.57176e-08 0)
(57.5159 7.44449e-08 0)
(57.5181 8.21857e-08 0)
(57.5197 8.88363e-08 0)
(57.5208 9.4712e-08 0)
(57.5217 9.95828e-08 0)
(57.5222 1.03667e-07 0)
(57.5225 1.0712e-07 0)
(57.5227 1.09833e-07 0)
(57.5228 1.12117e-07 0)
(57.5229 1.13935e-07 0)
(57.5229 1.15378e-07 0)
(57.5229 1.16639e-07 0)
(57.5229 1.17646e-07 0)
(57.5229 1.18589e-07 0)
(57.5229 1.19409e-07 0)
(57.5229 1.20254e-07 0)
(57.5228 1.2112e-07 0)
(57.5226 1.22233e-07 0)
(57.5224 1.23489e-07 0)
(57.522 1.24924e-07 0)
(57.5214 1.26533e-07 0)
(57.5205 1.28462e-07 0)
(57.5194 1.30707e-07 0)
(57.5178 1.33303e-07 0)
(57.5158 1.36341e-07 0)
(57.5133 1.39809e-07 0)
(57.5101 1.43721e-07 0)
(57.5063 1.4818e-07 0)
(57.5017 1.53061e-07 0)
(57.4962 1.58481e-07 0)
(57.4897 1.64381e-07 0)
(57.4822 1.70723e-07 0)
(57.4736 1.77481e-07 0)
(57.4638 1.84552e-07 0)
(57.4528 1.91835e-07 0)
(57.4405 1.99185e-07 0)
(57.427 2.06436e-07 0)
(57.4123 2.1342e-07 0)
(57.3964 2.1992e-07 0)
(57.3794 2.25717e-07 0)
(57.3614 2.30575e-07 0)
(57.3426 2.34248e-07 0)
(57.3232 2.36507e-07 0)
(57.3034 2.37132e-07 0)
(57.2835 2.3593e-07 0)
(57.2637 2.32763e-07 0)
(57.2444 2.27537e-07 0)
(57.226 2.20241e-07 0)
(57.2086 2.10949e-07 0)
(57.1927 1.9983e-07 0)
(57.1785 1.87161e-07 0)
(57.1663 1.72893e-07 0)
(57.1563 1.56714e-07 0)
(57.1488 1.38251e-07 0)
(57.1438 1.17188e-07 0)
(57.1414 9.41121e-08 0)
(57.1416 7.64325e-08 0)
(57.1441 4.48473e-08 0)
(57.149 1.44966e-08 0)
(57.1563 -7.07388e-09 0)
(57.1658 -2.13692e-08 0)
(57.1773 -3.52377e-08 0)
(57.1903 -4.68164e-08 0)
(57.2046 -5.24346e-08 0)
(57.2198 -5.97057e-08 0)
(57.2355 -6.13184e-08 0)
(57.2514 -5.92207e-08 0)
(57.2672 -4.21937e-08 0)
(57.2826 6.96608e-08 0)
(57.2973 5.60704e-07 0)
(57.3111 2.81522e-06 0)
(57.3236 1.3577e-05 0)
(57.3335 6.51569e-05 0)
(57.3352 0.000312116 0)
(57.3026 0.00148822 0)
(57.1173 0.00710492 0)
(56.5063 0.0362094 0)
(50.6407 0.142742 0)
(57.9003 0.000222673 0)
(57.9011 0.000162123 0)
(57.902 0.000149703 0)
(57.9029 0.000147544 0)
(57.9037 0.000145839 0)
(57.9045 0.000144388 0)
(57.9052 0.000143306 0)
(57.906 0.000142479 0)
(57.9068 0.00014181 0)
(57.9076 0.000141192 0)
(57.9085 0.000140647 0)
(57.9093 0.000140101 0)
(57.9101 0.000139461 0)
(57.911 0.000138674 0)
(57.9119 0.000137582 0)
(57.9127 0.000135939 0)
(57.9136 0.000133623 0)
(57.9144 0.000130389 0)
(57.9153 0.000126045 0)
(57.9161 0.00012045 0)
(57.917 0.000113548 0)
(57.9178 0.00010539 0)
(57.9185 9.61429e-05 0)
(57.9193 8.60784e-05 0)
(57.92 7.55434e-05 0)
(57.9206 6.49263e-05 0)
(57.9212 5.46071e-05 0)
(57.9217 4.49234e-05 0)
(57.9222 3.61381e-05 0)
(57.9227 2.84243e-05 0)
(57.923 2.18611e-05 0)
(57.9234 1.64449e-05 0)
(57.9236 1.21059e-05 0)
(57.9239 8.728e-06 0)
(57.9241 6.16959e-06 0)
(57.9243 4.28398e-06 0)
(57.9245 2.92812e-06 0)
(57.9247 1.98591e-06 0)
(57.925 1.34106e-06 0)
(57.9254 9.10429e-07 0)
(57.9259 6.30904e-07 0)
(57.9266 4.54413e-07 0)
(57.9275 3.45761e-07 0)
(57.9287 2.81097e-07 0)
(57.9303 2.44482e-07 0)
(57.9322 2.25477e-07 0)
(57.9346 2.17402e-07 0)
(57.9375 2.16044e-07 0)
(57.941 2.1878e-07 0)
(57.9451 2.24026e-07 0)
(57.9499 2.30813e-07 0)
(57.9554 2.38559e-07 0)
(57.9616 2.46909e-07 0)
(57.9686 2.55595e-07 0)
(57.9764 2.64383e-07 0)
(57.985 2.73038e-07 0)
(57.9942 2.81351e-07 0)
(58.004 2.89106e-07 0)
(58.0145 2.96103e-07 0)
(58.0253 3.02145e-07 0)
(58.0365 3.07072e-07 0)
(58.0478 3.10722e-07 0)
(58.059 3.12942e-07 0)
(58.07 3.1388e-07 0)
(58.0806 3.13013e-07 0)
(58.0904 3.10732e-07 0)
(58.0993 3.07013e-07 0)
(58.1071 3.01864e-07 0)
(58.1133 2.96218e-07 0)
(58.1179 2.87392e-07 0)
(58.1205 2.80539e-07 0)
(58.1209 2.7087e-07 0)
(58.1189 2.61441e-07 0)
(58.1144 2.51843e-07 0)
(58.1071 2.42489e-07 0)
(58.097 2.32088e-07 0)
(58.0838 2.22065e-07 0)
(58.0677 2.13863e-07 0)
(58.0485 2.051e-07 0)
(58.0265 1.94146e-07 0)
(58.0017 1.83662e-07 0)
(57.9745 1.73985e-07 0)
(57.9449 1.66197e-07 0)
(57.9134 1.57029e-07 0)
(57.8802 1.50383e-07 0)
(57.8457 1.39846e-07 0)
(57.8105 1.1875e-07 0)
(57.775 1.22111e-07 0)
(57.7394 1.6444e-07 0)
(57.704 1.21955e-07 0)
(57.6698 8.90634e-08 0)
(57.6373 7.36921e-08 0)
(57.6068 5.03029e-08 0)
(57.5786 2.84807e-08 0)
(57.5531 2.31923e-09 0)
(57.5305 -2.01685e-08 0)
(57.5111 -4.33727e-08 0)
(57.4949 -6.32111e-08 0)
(57.4821 -8.2299e-08 0)
(57.4725 -9.94613e-08 0)
(57.4661 -1.17044e-07 0)
(57.4629 -1.31381e-07 0)
(57.4625 -1.42487e-07 0)
(57.4649 -1.53562e-07 0)
(57.4696 -1.58192e-07 0)
(57.4764 -1.60986e-07 0)
(57.4848 -1.60129e-07 0)
(57.4945 -1.54731e-07 0)
(57.5052 -1.45906e-07 0)
(57.5164 -1.3429e-07 0)
(57.5278 -1.19522e-07 0)
(57.5392 -1.0195e-07 0)
(57.5502 -8.22013e-08 0)
(57.5607 -6.18342e-08 0)
(57.5705 -3.95348e-08 0)
(57.5794 -1.5108e-08 0)
(57.5874 8.75593e-09 0)
(57.5945 2.7851e-08 0)
(57.6006 4.61348e-08 0)
(57.6057 6.34703e-08 0)
(57.61 7.98356e-08 0)
(57.6135 9.41754e-08 0)
(57.6163 1.07127e-07 0)
(57.6184 1.18333e-07 0)
(57.62 1.27645e-07 0)
(57.6212 1.35589e-07 0)
(57.622 1.41798e-07 0)
(57.6226 1.46712e-07 0)
(57.6229 1.50546e-07 0)
(57.6231 1.53192e-07 0)
(57.6232 1.55161e-07 0)
(57.6232 1.56421e-07 0)
(57.6232 1.57163e-07 0)
(57.6233 1.57665e-07 0)
(57.6233 1.57848e-07 0)
(57.6233 1.58045e-07 0)
(57.6232 1.58086e-07 0)
(57.6232 1.58265e-07 0)
(57.6231 1.58567e-07 0)
(57.623 1.59426e-07 0)
(57.6227 1.60614e-07 0)
(57.6223 1.62188e-07 0)
(57.6217 1.64166e-07 0)
(57.6209 1.66779e-07 0)
(57.6197 1.70032e-07 0)
(57.6181 1.73963e-07 0)
(57.6161 1.78719e-07 0)
(57.6136 1.8428e-07 0)
(57.6104 1.90678e-07 0)
(57.6066 1.98085e-07 0)
(57.602 2.0623e-07 0)
(57.5965 2.15358e-07 0)
(57.59 2.25322e-07 0)
(57.5825 2.36058e-07 0)
(57.5739 2.4748e-07 0)
(57.5641 2.59425e-07 0)
(57.5531 2.71683e-07 0)
(57.5409 2.84015e-07 0)
(57.5273 2.96101e-07 0)
(57.5126 3.07647e-07 0)
(57.4967 3.18269e-07 0)
(57.4797 3.27576e-07 0)
(57.4617 3.35159e-07 0)
(57.4429 3.40589e-07 0)
(57.4235 3.43468e-07 0)
(57.4037 3.43414e-07 0)
(57.3838 3.40103e-07 0)
(57.364 3.33302e-07 0)
(57.3447 3.22858e-07 0)
(57.3263 3.08728e-07 0)
(57.3089 2.91012e-07 0)
(57.293 2.69949e-07 0)
(57.2788 2.45923e-07 0)
(57.2666 2.19033e-07 0)
(57.2566 1.89221e-07 0)
(57.249 1.56473e-07 0)
(57.2441 1.20931e-07 0)
(57.2417 8.43535e-08 0)
(57.2418 5.91112e-08 0)
(57.2443 9.84635e-09 0)
(57.2492 -2.33478e-08 0)
(57.2566 -5.01742e-08 0)
(57.2661 -7.47212e-08 0)
(57.2775 -9.00615e-08 0)
(57.2906 -1.11284e-07 0)
(57.3048 -1.13654e-07 0)
(57.32 -1.31345e-07 0)
(57.3357 -1.21308e-07 0)
(57.3516 -1.07565e-07 0)
(57.3674 -2.83839e-08 0)
(57.3828 3.00253e-07 0)
(57.3975 1.90425e-06 0)
(57.4113 9.53456e-06 0)
(57.4238 4.61767e-05 0)
(57.4337 0.000221907 0)
(57.4354 0.00106339 0)
(57.403 0.0050717 0)
(57.2188 0.0241639 0)
(56.6107 0.12069 0)
(51.0663 0.449917 0)
(57.9003 0.00016339 0)
(57.9011 0.000113482 0)
(57.902 0.00010752 0)
(57.9029 0.000110495 0)
(57.9037 0.000111691 0)
(57.9044 0.000112109 0)
(57.9052 0.000112494 0)
(57.906 0.00011285 0)
(57.9068 0.000113151 0)
(57.9076 0.000113358 0)
(57.9085 0.000113517 0)
(57.9093 0.000113587 0)
(57.9102 0.00011351 0)
(57.911 0.000113248 0)
(57.9119 0.000112689 0)
(57.9127 0.000111632 0)
(57.9136 0.000109981 0)
(57.9145 0.000107538 0)
(57.9153 0.000104145 0)
(57.9162 9.96862e-05 0)
(57.917 9.41149e-05 0)
(57.9178 8.74739e-05 0)
(57.9186 7.99025e-05 0)
(57.9193 7.1625e-05 0)
(57.92 6.29319e-05 0)
(57.9206 5.41473e-05 0)
(57.9212 4.55901e-05 0)
(57.9218 3.75443e-05 0)
(57.9223 3.02328e-05 0)
(57.9227 2.38027e-05 0)
(57.9231 1.83237e-05 0)
(57.9234 1.37956e-05 0)
(57.9237 1.01632e-05 0)
(57.9239 7.33113e-06 0)
(57.9241 5.18281e-06 0)
(57.9243 3.59649e-06 0)
(57.9245 2.45312e-06 0)
(57.9247 1.65699e-06 0)
(57.925 1.11025e-06 0)
(57.9254 7.44342e-07 0)
(57.9259 5.06208e-07 0)
(57.9266 3.55603e-07 0)
(57.9276 2.62839e-07 0)
(57.9288 2.07564e-07 0)
(57.9303 1.76056e-07 0)
(57.9322 1.59322e-07 0)
(57.9346 1.51661e-07 0)
(57.9375 1.49538e-07 0)
(57.941 1.508e-07 0)
(57.9451 1.54164e-07 0)
(57.9499 1.58842e-07 0)
(57.9554 1.64363e-07 0)
(57.9617 1.70406e-07 0)
(57.9687 1.76753e-07 0)
(57.9765 1.83222e-07 0)
(57.985 1.89662e-07 0)
(57.9942 1.95915e-07 0)
(58.0041 2.01832e-07 0)
(58.0145 2.07265e-07 0)
(58.0253 2.12076e-07 0)
(58.0365 2.16136e-07 0)
(58.0478 2.19313e-07 0)
(58.0591 2.21499e-07 0)
(58.0701 2.22791e-07 0)
(58.0806 2.22802e-07 0)
(58.0905 2.21766e-07 0)
(58.0994 2.19681e-07 0)
(58.1071 2.16533e-07 0)
(58.1133 2.12904e-07 0)
(58.1179 2.07042e-07 0)
(58.1205 2.0246e-07 0)
(58.1209 1.9582e-07 0)
(58.119 1.89131e-07 0)
(58.1144 1.82267e-07 0)
(58.1072 1.75457e-07 0)
(58.097 1.67638e-07 0)
(58.0839 1.59923e-07 0)
(58.0677 1.53391e-07 0)
(58.0486 1.47132e-07 0)
(58.0265 1.41281e-07 0)
(58.0018 1.36231e-07 0)
(57.9745 1.30645e-07 0)
(57.9449 1.24938e-07 0)
(57.9134 1.16889e-07 0)
(57.8802 1.09782e-07 0)
(57.8457 9.8873e-08 0)
(57.8106 8.03658e-08 0)
(57.7751 8.32389e-08 0)
(57.7394 1.07554e-07 0)
(57.704 6.90374e-08 0)
(57.6698 4.33884e-08 0)
(57.6373 3.25085e-08 0)
(57.6068 1.46469e-08 0)
(57.5786 9.19494e-10 0)
(57.5531 -1.25021e-08 0)
(57.5305 -2.16439e-08 0)
(57.5111 -3.40942e-08 0)
(57.495 -4.80494e-08 0)
(57.4821 -6.16553e-08 0)
(57.4725 -7.37974e-08 0)
(57.4661 -8.62088e-08 0)
(57.4629 -9.61234e-08 0)
(57.4625 -1.03379e-07 0)
(57.4649 -1.1028e-07 0)
(57.4696 -1.12419e-07 0)
(57.4764 -1.1293e-07 0)
(57.4848 -1.10672e-07 0)
(57.4946 -1.05074e-07 0)
(57.5052 -9.70284e-08 0)
(57.5164 -8.69877e-08 0)
(57.5278 -7.49295e-08 0)
(57.5392 -6.11369e-08 0)
(57.5502 -4.62464e-08 0)
(57.5607 -3.13817e-08 0)
(57.5705 -1.60655e-08 0)
(57.5794 -1.5968e-09 0)
(57.5874 1.19239e-08 0)
(57.5945 2.72461e-08 0)
(57.6006 4.17203e-08 0)
(57.6058 5.50634e-08 0)
(57.6101 6.73593e-08 0)
(57.6135 7.78793e-08 0)
(57.6163 8.70593e-08 0)
(57.6185 9.47725e-08 0)
(57.6201 1.00901e-07 0)
(57.6212 1.05881e-07 0)
(57.6221 1.09506e-07 0)
(57.6226 1.1212e-07 0)
(57.6229 1.13932e-07 0)
(57.6231 1.14934e-07 0)
(57.6232 1.15483e-07 0)
(57.6233 1.15607e-07 0)
(57.6233 1.15449e-07 0)
(57.6233 1.15217e-07 0)
(57.6233 1.14873e-07 0)
(57.6233 1.14643e-07 0)
(57.6233 1.14403e-07 0)
(57.6232 1.14369e-07 0)
(57.6232 1.1451e-07 0)
(57.623 1.15215e-07 0)
(57.6228 1.16232e-07 0)
(57.6223 1.17592e-07 0)
(57.6217 1.19306e-07 0)
(57.6209 1.21555e-07 0)
(57.6197 1.24332e-07 0)
(57.6182 1.27648e-07 0)
(57.6162 1.31609e-07 0)
(57.6136 1.36188e-07 0)
(57.6105 1.41355e-07 0)
(57.6066 1.47324e-07 0)
(57.602 1.53715e-07 0)
(57.5965 1.60813e-07 0)
(57.59 1.68456e-07 0)
(57.5825 1.76573e-07 0)
(57.5739 1.85083e-07 0)
(57.5641 1.93842e-07 0)
(57.5531 2.02663e-07 0)
(57.5409 2.1136e-07 0)
(57.5274 2.19677e-07 0)
(57.5126 2.27379e-07 0)
(57.4967 2.34169e-07 0)
(57.4797 2.39758e-07 0)
(57.4617 2.43833e-07 0)
(57.4429 2.46088e-07 0)
(57.4235 2.4624e-07 0)
(57.4037 2.44028e-07 0)
(57.3838 2.39243e-07 0)
(57.364 2.31732e-07 0)
(57.3448 2.21412e-07 0)
(57.3263 2.08297e-07 0)
(57.3089 1.92474e-07 0)
(57.293 1.7412e-07 0)
(57.2788 1.53494e-07 0)
(57.2666 1.30958e-07 0)
(57.2566 1.06984e-07 0)
(57.2491 8.21929e-08 0)
(57.2441 5.73404e-08 0)
(57.2417 3.44358e-08 0)
(57.2419 2.26225e-08 0)
(57.2444 -9.13591e-09 0)
(57.2493 -1.99932e-08 0)
(57.2566 -3.49932e-08 0)
(57.2661 -5.49226e-08 0)
(57.2776 -6.51683e-08 0)
(57.2906 -8.75274e-08 0)
(57.3048 -7.16612e-08 0)
(57.32 -1.01702e-07 0)
(57.3357 -7.78174e-08 0)
(57.3516 -5.44425e-08 0)
(57.3674 1.0237e-07 0)
(57.3828 7.45361e-07 0)
(57.3975 3.88569e-06 0)
(57.4114 1.89873e-05 0)
(57.4239 9.16847e-05 0)
(57.4338 0.000440445 0)
(57.4357 0.00211098 0)
(57.4042 0.0100743 0)
(57.2245 0.0479842 0)
(56.6325 0.238642 0)
(51.3816 0.870245 0)
(57.9003 0.00011905 0)
(57.901 0.000103372 0)
(57.902 0.000100155 0)
(57.9029 0.000103948 0)
(57.9037 0.0001063 0)
(57.9044 0.000107485 0)
(57.9052 0.000108507 0)
(57.9059 0.00010941 0)
(57.9068 0.000110173 0)
(57.9076 0.000110781 0)
(57.9084 0.000111275 0)
(57.9093 0.000111631 0)
(57.9101 0.000111809 0)
(57.911 0.000111758 0)
(57.9118 0.000111391 0)
(57.9127 0.000110526 0)
(57.9136 0.00010905 0)
(57.9144 0.000106779 0)
(57.9153 0.000103556 0)
(57.9161 9.92631e-05 0)
(57.917 9.3852e-05 0)
(57.9178 8.73605e-05 0)
(57.9186 7.9923e-05 0)
(57.9193 7.17582e-05 0)
(57.92 6.31525e-05 0)
(57.9206 5.44286e-05 0)
(57.9212 4.59059e-05 0)
(57.9218 3.78707e-05 0)
(57.9223 3.055e-05 0)
(57.9227 2.40961e-05 0)
(57.9231 1.85839e-05 0)
(57.9234 1.40182e-05 0)
(57.9237 1.03476e-05 0)
(57.9239 7.47955e-06 0)
(57.9241 5.29991e-06 0)
(57.9243 3.68755e-06 0)
(57.9245 2.52377e-06 0)
(57.9247 1.71057e-06 0)
(57.925 1.15202e-06 0)
(57.9254 7.78448e-07 0)
(57.9259 5.35171e-07 0)
(57.9266 3.80953e-07 0)
(57.9276 2.85661e-07 0)
(57.9288 2.28556e-07 0)
(57.9303 1.95642e-07 0)
(57.9322 1.77689e-07 0)
(57.9346 1.68805e-07 0)
(57.9375 1.6534e-07 0)
(57.941 1.65085e-07 0)
(57.9451 1.66732e-07 0)
(57.9499 1.69497e-07 0)
(57.9554 1.72916e-07 0)
(57.9617 1.76693e-07 0)
(57.9687 1.80626e-07 0)
(57.9765 1.84561e-07 0)
(57.985 1.8837e-07 0)
(57.9942 1.91939e-07 0)
(58.0041 1.9516e-07 0)
(58.0145 1.9793e-07 0)
(58.0253 2.00147e-07 0)
(58.0365 2.01729e-07 0)
(58.0478 2.02594e-07 0)
(58.0591 2.02675e-07 0)
(58.0701 2.02071e-07 0)
(58.0806 2.0053e-07 0)
(58.0905 1.98196e-07 0)
(58.0994 1.95143e-07 0)
(58.1071 1.91385e-07 0)
(58.1133 1.87308e-07 0)
(58.1179 1.81842e-07 0)
(58.1205 1.77212e-07 0)
(58.1209 1.71414e-07 0)
(58.119 1.65634e-07 0)
(58.1144 1.59915e-07 0)
(58.1072 1.54363e-07 0)
(58.097 1.48298e-07 0)
(58.0839 1.42467e-07 0)
(58.0677 1.37471e-07 0)
(58.0486 1.3321e-07 0)
(58.0265 1.30962e-07 0)
(58.0018 1.30166e-07 0)
(57.9745 1.2929e-07 0)
(57.9449 1.28174e-07 0)
(57.9134 1.2513e-07 0)
(57.8802 1.22092e-07 0)
(57.8457 1.16053e-07 0)
(57.8106 1.04976e-07 0)
(57.7751 1.07881e-07 0)
(57.7394 1.25709e-07 0)
(57.704 1.0549e-07 0)
(57.6698 8.80164e-08 0)
(57.6373 8.03824e-08 0)
(57.6068 6.95553e-08 0)
(57.5786 6.05957e-08 0)
(57.5531 5.17629e-08 0)
(57.5305 4.19612e-08 0)
(57.5111 3.03888e-08 0)
(57.495 1.8744e-08 0)
(57.4821 7.66454e-09 0)
(57.4725 -2.45882e-09 0)
(57.4661 -1.2982e-08 0)
(57.4629 -2.21846e-08 0)
(57.4625 -2.95308e-08 0)
(57.4649 -3.64723e-08 0)
(57.4696 -4.05422e-08 0)
(57.4764 -4.31026e-08 0)
(57.4848 -4.38224e-08 0)
(57.4946 -4.20242e-08 0)
(57.5052 -3.83892e-08 0)
(57.5164 -3.31992e-08 0)
(57.5278 -2.64946e-08 0)
(57.5392 -1.83528e-08 0)
(57.5502 -9.22645e-09 0)
(57.5607 1.92878e-10 0)
(57.5705 1.0121e-08 0)
(57.5794 1.93465e-08 0)
(57.5874 2.8575e-08 0)
(57.5945 4.00428e-08 0)
(57.6006 5.06471e-08 0)
(57.6058 6.03333e-08 0)
(57.6101 6.93641e-08 0)
(57.6135 7.71686e-08 0)
(57.6163 8.40651e-08 0)
(57.6185 9.00325e-08 0)
(57.6201 9.49617e-08 0)
(57.6212 9.9115e-08 0)
(57.6221 1.02401e-07 0)
(57.6226 1.04977e-07 0)
(57.6229 1.07024e-07 0)
(57.6231 1.08532e-07 0)
(57.6232 1.09692e-07 0)
(57.6233 1.10574e-07 0)
(57.6233 1.11234e-07 0)
(57.6233 1.11827e-07 0)
(57.6233 1.12336e-07 0)
(57.6233 1.12881e-07 0)
(57.6233 1.13423e-07 0)
(57.6232 1.14064e-07 0)
(57.6232 1.14812e-07 0)
(57.623 1.15932e-07 0)
(57.6228 1.17227e-07 0)
(57.6223 1.18745e-07 0)
(57.6217 1.20476e-07 0)
(57.6209 1.22559e-07 0)
(57.6197 1.25001e-07 0)
(57.6182 1.27808e-07 0)
(57.6162 1.31059e-07 0)
(57.6136 1.34753e-07 0)
(57.6105 1.38832e-07 0)
(57.6066 1.43567e-07 0)
(57.602 1.48554e-07 0)
(57.5965 1.54081e-07 0)
(57.59 1.60043e-07 0)
(57.5825 1.66393e-07 0)
(57.5739 1.73076e-07 0)
(57.5641 1.80012e-07 0)
(57.5531 1.87066e-07 0)
(57.5409 1.94118e-07 0)
(57.5274 2.00995e-07 0)
(57.5126 2.07524e-07 0)
(57.4967 2.13512e-07 0)
(57.4797 2.18742e-07 0)
(57.4617 2.22993e-07 0)
(57.4429 2.26046e-07 0)
(57.4235 2.27679e-07 0)
(57.4037 2.27696e-07 0)
(57.3838 2.25927e-07 0)
(57.364 2.22239e-07 0)
(57.3448 2.16556e-07 0)
(57.3263 2.08855e-07 0)
(57.3089 1.99174e-07 0)
(57.293 1.87611e-07 0)
(57.2788 1.7433e-07 0)
(57.2666 1.59568e-07 0)
(57.2566 1.43606e-07 0)
(57.2491 1.2677e-07 0)
(57.2441 1.09423e-07 0)
(57.2417 9.28016e-08 0)
(57.2419 8.30819e-08 0)
(57.2444 5.53126e-08 0)
(57.2493 3.98974e-08 0)
(57.2566 3.08808e-08 0)
(57.2661 9.05999e-09 0)
(57.2776 6.89455e-09 0)
(57.2906 -2.09943e-08 0)
(57.3048 -4.89315e-09 0)
(57.32 -3.71198e-08 0)
(57.3357 8.33113e-09 0)
(57.3516 5.37367e-08 0)
(57.3674 4.21332e-07 0)
(57.3828 2.08402e-06 0)
(57.3976 1.00659e-05 0)
(57.4114 4.84137e-05 0)
(57.4239 0.000233053 0)
(57.4341 0.00111868 0)
(57.4369 0.00535837 0)
(57.41 0.0254938 0)
(57.2542 0.11981 0)
(56.7425 0.549128 0)
(52.7711 1.96298 0)
(57.9003 3.57067e-05 0)
(57.901 2.78617e-05 0)
(57.9019 1.95121e-05 0)
(57.9029 1.61174e-05 0)
(57.9037 1.374e-05 0)
(57.9044 1.15575e-05 0)
(57.9051 9.84216e-06 0)
(57.9059 8.48038e-06 0)
(57.9067 7.36066e-06 0)
(57.9076 6.41815e-06 0)
(57.9084 5.6238e-06 0)
(57.9092 4.94754e-06 0)
(57.9101 4.36649e-06 0)
(57.911 3.86406e-06 0)
(57.9118 3.43543e-06 0)
(57.9127 3.05082e-06 0)
(57.9136 2.71398e-06 0)
(57.9144 2.41416e-06 0)
(57.9153 2.14313e-06 0)
(57.9161 1.89522e-06 0)
(57.917 1.66586e-06 0)
(57.9178 1.45213e-06 0)
(57.9185 1.25334e-06 0)
(57.9193 1.06802e-06 0)
(57.92 8.9641e-07 0)
(57.9206 7.4043e-07 0)
(57.9212 6.00618e-07 0)
(57.9218 4.77709e-07 0)
(57.9222 3.72201e-07 0)
(57.9227 2.83645e-07 0)
(57.9231 2.11013e-07 0)
(57.9234 1.52902e-07 0)
(57.9237 1.07925e-07 0)
(57.9239 7.39073e-08 0)
(57.9241 4.91145e-08 0)
(57.9243 3.1792e-08 0)
(57.9245 1.95824e-08 0)
(57.9247 1.34168e-08 0)
(57.925 9.42289e-09 0)
(57.9254 7.31553e-09 0)
(57.9259 6.51528e-09 0)
(57.9266 6.36004e-09 0)
(57.9276 6.28078e-09 0)
(57.9288 6.21274e-09 0)
(57.9303 6.33085e-09 0)
(57.9322 6.78915e-09 0)
(57.9346 7.6502e-09 0)
(57.9375 8.89545e-09 0)
(57.941 1.04626e-08 0)
(57.9451 1.22819e-08 0)
(57.9499 1.42836e-08 0)
(57.9554 1.64115e-08 0)
(57.9617 1.86135e-08 0)
(57.9687 2.08482e-08 0)
(57.9765 2.30718e-08 0)
(57.985 2.52438e-08 0)
(57.9942 2.73165e-08 0)
(58.0041 2.92468e-08 0)
(58.0145 3.09952e-08 0)
(58.0253 3.25274e-08 0)
(58.0365 3.38154e-08 0)
(58.0478 3.48231e-08 0)
(58.0591 3.55215e-08 0)
(58.0701 3.59428e-08 0)
(58.0806 3.60052e-08 0)
(58.0905 3.5744e-08 0)
(58.0994 3.51932e-08 0)
(58.1071 3.43659e-08 0)
(58.1133 3.33754e-08 0)
(58.1179 3.18827e-08 0)
(58.1205 3.05294e-08 0)
(58.1209 2.87944e-08 0)
(58.119 2.70011e-08 0)
(58.1144 2.51794e-08 0)
(58.1072 2.33214e-08 0)
(58.097 2.12828e-08 0)
(58.0839 1.93334e-08 0)
(58.0677 1.76009e-08 0)
(58.0486 1.49182e-08 0)
(58.0265 9.92441e-09 0)
(58.0018 4.27138e-09 0)
(57.9745 -4.07689e-10 0)
(57.9449 -3.69722e-09 0)
(57.9134 -6.42286e-09 0)
(57.8802 -8.52196e-09 0)
(57.8457 -1.12747e-08 0)
(57.8106 -1.52636e-08 0)
(57.7751 -1.47036e-08 0)
(57.7394 -1.03293e-08 0)
(57.704 -1.71433e-08 0)
(57.6698 -2.41134e-08 0)
(57.6373 -2.75418e-08 0)
(57.6068 -3.16292e-08 0)
(57.5786 -3.60117e-08 0)
(57.5531 -4.07538e-08 0)
(57.5305 -4.68103e-08 0)
(57.5111 -5.22611e-08 0)
(57.495 -5.69532e-08 0)
(57.4821 -6.11086e-08 0)
(57.4725 -6.47966e-08 0)
(57.4661 -6.83313e-08 0)
(57.4629 -7.13234e-08 0)
(57.4625 -7.36437e-08 0)
(57.4649 -7.5394e-08 0)
(57.4696 -7.60581e-08 0)
(57.4764 -7.60805e-08 0)
(57.4848 -7.51111e-08 0)
(57.4946 -7.30963e-08 0)
(57.5052 -7.03439e-08 0)
(57.5164 -6.68771e-08 0)
(57.5278 -6.27291e-08 0)
(57.5392 -5.78392e-08 0)
(57.5502 -5.23263e-08 0)
(57.5607 -4.6334e-08 0)
(57.5705 -3.9382e-08 0)
(57.5794 -3.05514e-08 0)
(57.5874 -2.22857e-08 0)
(57.5945 -1.78611e-08 0)
(57.6006 -1.4154e-08 0)
(57.6058 -1.08093e-08 0)
(57.6101 -7.77554e-09 0)
(57.6135 -5.08151e-09 0)
(57.6163 -2.71639e-09 0)
(57.6185 -6.61398e-10 0)
(57.6201 1.0633e-09 0)
(57.6212 2.49504e-09 0)
(57.6221 3.64486e-09 0)
(57.6226 4.53206e-09 0)
(57.6229 5.21919e-09 0)
(57.6231 5.70841e-09 0)
(57.6232 6.04223e-09 0)
(57.6233 6.26293e-09 0)
(57.6233 6.39461e-09 0)
(57.6233 6.47189e-09 0)
(57.6233 6.51157e-09 0)
(57.6233 6.54409e-09 0)
(57.6233 6.55863e-09 0)
(57.6232 6.57517e-09 0)
(57.6232 6.61039e-09 0)
(57.623 6.75436e-09 0)
(57.6228 6.94792e-09 0)
(57.6223 7.20811e-09 0)
(57.6217 7.53218e-09 0)
(57.6209 7.96638e-09 0)
(57.6197 8.51362e-09 0)
(57.6182 9.16801e-09 0)
(57.6162 9.95969e-09 0)
(57.6136 1.0895e-08 0)
(57.6105 1.19511e-08 0)
(57.6066 1.32429e-08 0)
(57.602 1.46021e-08 0)
(57.5965 1.61411e-08 0)
(57.59 1.78244e-08 0)
(57.5825 1.96287e-08 0)
(57.5739 2.15326e-08 0)
(57.5641 2.35121e-08 0)
(57.5531 2.5516e-08 0)
(57.5409 2.75077e-08 0)
(57.5274 2.94256e-08 0)
(57.5126 3.12081e-08 0)
(57.4967 3.27849e-08 0)
(57.4797 3.40786e-08 0)
(57.4617 3.50099e-08 0)
(57.4429 3.55005e-08 0)
(57.4235 3.54717e-08 0)
(57.4037 3.48556e-08 0)
(57.3838 3.35924e-08 0)
(57.364 3.16308e-08 0)
(57.3448 2.89395e-08 0)
(57.3263 2.55038e-08 0)
(57.3089 2.13274e-08 0)
(57.293 1.64364e-08 0)
(57.2788 1.08739e-08 0)
(57.2666 4.70342e-09 0)
(57.2566 -2.00085e-09 0)
(57.2491 -9.15842e-09 0)
(57.2441 -1.66892e-08 0)
(57.2417 -2.44765e-08 0)
(57.2419 -2.70159e-08 0)
(57.2444 -4.98216e-08 0)
(57.2493 -5.08229e-08 0)
(57.2566 -4.11699e-08 0)
(57.2661 -6.22915e-08 0)
(57.2776 -4.33576e-08 0)
(57.2906 -9.08687e-08 0)
(57.3048 -1.57152e-08 0)
(57.32 -1.11324e-07 0)
(57.3357 -8.48903e-09 0)
(57.3516 6.54565e-08 0)
(57.3674 6.87456e-07 0)
(57.3828 3.40078e-06 0)
(57.3976 1.66814e-05 0)
(57.4114 8.03563e-05 0)
(57.4242 0.000387363 0)
(57.4353 0.0018614 0)
(57.4428 0.00892974 0)
(57.4375 0.0425877 0)
(57.3753 0.199678 0)
(57.1554 0.895566 0)
(54.7754 3.16966 0)
(57.9003 -3.57067e-05 0)
(57.901 -2.78617e-05 0)
(57.9019 -1.95121e-05 0)
(57.9029 -1.61174e-05 0)
(57.9037 -1.374e-05 0)
(57.9044 -1.15575e-05 0)
(57.9051 -9.84216e-06 0)
(57.9059 -8.48038e-06 0)
(57.9067 -7.36066e-06 0)
(57.9076 -6.41815e-06 0)
(57.9084 -5.6238e-06 0)
(57.9092 -4.94754e-06 0)
(57.9101 -4.36649e-06 0)
(57.911 -3.86406e-06 0)
(57.9118 -3.43543e-06 0)
(57.9127 -3.05082e-06 0)
(57.9136 -2.71398e-06 0)
(57.9144 -2.41416e-06 0)
(57.9153 -2.14313e-06 0)
(57.9161 -1.89522e-06 0)
(57.917 -1.66586e-06 0)
(57.9178 -1.45213e-06 0)
(57.9185 -1.25334e-06 0)
(57.9193 -1.06802e-06 0)
(57.92 -8.96411e-07 0)
(57.9206 -7.40431e-07 0)
(57.9212 -6.00617e-07 0)
(57.9218 -4.77709e-07 0)
(57.9222 -3.722e-07 0)
(57.9227 -2.83643e-07 0)
(57.9231 -2.11013e-07 0)
(57.9234 -1.52902e-07 0)
(57.9237 -1.07924e-07 0)
(57.9239 -7.39075e-08 0)
(57.9241 -4.91146e-08 0)
(57.9243 -3.17924e-08 0)
(57.9245 -1.9583e-08 0)
(57.9247 -1.34173e-08 0)
(57.925 -9.42406e-09 0)
(57.9254 -7.31689e-09 0)
(57.9259 -6.51731e-09 0)
(57.9266 -6.35932e-09 0)
(57.9276 -6.27982e-09 0)
(57.9288 -6.21467e-09 0)
(57.9303 -6.33045e-09 0)
(57.9322 -6.78815e-09 0)
(57.9346 -7.64976e-09 0)
(57.9375 -8.89564e-09 0)
(57.941 -1.04631e-08 0)
(57.9451 -1.22824e-08 0)
(57.9499 -1.4284e-08 0)
(57.9554 -1.64112e-08 0)
(57.9617 -1.86138e-08 0)
(57.9687 -2.08483e-08 0)
(57.9765 -2.30717e-08 0)
(57.985 -2.52424e-08 0)
(57.9942 -2.73154e-08 0)
(58.0041 -2.92462e-08 0)
(58.0145 -3.09943e-08 0)
(58.0253 -3.25255e-08 0)
(58.0365 -3.38132e-08 0)
(58.0478 -3.48216e-08 0)
(58.0591 -3.55202e-08 0)
(58.0701 -3.59429e-08 0)
(58.0806 -3.60058e-08 0)
(58.0905 -3.57438e-08 0)
(58.0994 -3.5194e-08 0)
(58.1071 -3.43665e-08 0)
(58.1133 -3.33748e-08 0)
(58.1179 -3.18816e-08 0)
(58.1205 -3.05288e-08 0)
(58.1209 -2.87933e-08 0)
(58.119 -2.70006e-08 0)
(58.1144 -2.51787e-08 0)
(58.1072 -2.33227e-08 0)
(58.097 -2.12837e-08 0)
(58.0839 -1.93331e-08 0)
(58.0677 -1.76019e-08 0)
(58.0486 -1.49194e-08 0)
(58.0265 -9.92345e-09 0)
(58.0018 -4.27008e-09 0)
(57.9745 4.07197e-10 0)
(57.9449 3.69757e-09 0)
(57.9134 6.4244e-09 0)
(57.8802 8.52114e-09 0)
(57.8457 1.12753e-08 0)
(57.8106 1.5264e-08 0)
(57.7751 1.47035e-08 0)
(57.7394 1.03296e-08 0)
(57.704 1.71458e-08 0)
(57.6698 2.41134e-08 0)
(57.6373 2.75429e-08 0)
(57.6068 3.16302e-08 0)
(57.5786 3.60125e-08 0)
(57.5531 4.07541e-08 0)
(57.5305 4.6811e-08 0)
(57.5111 5.22629e-08 0)
(57.495 5.69533e-08 0)
(57.4821 6.11093e-08 0)
(57.4725 6.47964e-08 0)
(57.4661 6.83311e-08 0)
(57.4629 7.13232e-08 0)
(57.4625 7.36439e-08 0)
(57.4649 7.53937e-08 0)
(57.4696 7.60563e-08 0)
(57.4764 7.60777e-08 0)
(57.4848 7.5111e-08 0)
(57.4946 7.30936e-08 0)
(57.5052 7.03441e-08 0)
(57.5164 6.6877e-08 0)
(57.5278 6.27303e-08 0)
(57.5392 5.7839e-08 0)
(57.5502 5.23268e-08 0)
(57.5607 4.63341e-08 0)
(57.5705 3.93812e-08 0)
(57.5794 3.05517e-08 0)
(57.5874 2.22865e-08 0)
(57.5945 1.78618e-08 0)
(57.6006 1.4156e-08 0)
(57.6058 1.08103e-08 0)
(57.6101 7.77519e-09 0)
(57.6135 5.08164e-09 0)
(57.6163 2.71706e-09 0)
(57.6185 6.61979e-10 0)
(57.6201 -1.0615e-09 0)
(57.6212 -2.49504e-09 0)
(57.6221 -3.64472e-09 0)
(57.6226 -4.53291e-09 0)
(57.6229 -5.21746e-09 0)
(57.6231 -5.70612e-09 0)
(57.6232 -6.04098e-09 0)
(57.6233 -6.2621e-09 0)
(57.6233 -6.39413e-09 0)
(57.6233 -6.47193e-09 0)
(57.6233 -6.51067e-09 0)
(57.6233 -6.54206e-09 0)
(57.6233 -6.55629e-09 0)
(57.6232 -6.57413e-09 0)
(57.6232 -6.61002e-09 0)
(57.623 -6.75492e-09 0)
(57.6228 -6.94643e-09 0)
(57.6223 -7.20825e-09 0)
(57.6217 -7.53194e-09 0)
(57.6209 -7.96697e-09 0)
(57.6197 -8.51208e-09 0)
(57.6182 -9.16677e-09 0)
(57.6162 -9.95888e-09 0)
(57.6136 -1.08945e-08 0)
(57.6105 -1.19485e-08 0)
(57.6066 -1.32424e-08 0)
(57.602 -1.46026e-08 0)
(57.5965 -1.61406e-08 0)
(57.59 -1.78237e-08 0)
(57.5825 -1.9629e-08 0)
(57.5739 -2.15348e-08 0)
(57.5641 -2.35115e-08 0)
(57.5531 -2.55162e-08 0)
(57.5409 -2.75088e-08 0)
(57.5274 -2.94264e-08 0)
(57.5126 -3.12076e-08 0)
(57.4967 -3.27848e-08 0)
(57.4797 -3.40778e-08 0)
(57.4617 -3.50091e-08 0)
(57.4429 -3.54999e-08 0)
(57.4235 -3.54719e-08 0)
(57.4037 -3.4857e-08 0)
(57.3838 -3.35925e-08 0)
(57.364 -3.16305e-08 0)
(57.3448 -2.89405e-08 0)
(57.3263 -2.55039e-08 0)
(57.3089 -2.13274e-08 0)
(57.293 -1.64365e-08 0)
(57.2788 -1.08727e-08 0)
(57.2666 -4.70258e-09 0)
(57.2566 1.99952e-09 0)
(57.2491 9.15299e-09 0)
(57.2441 1.66309e-08 0)
(57.2417 2.34597e-08 0)
(57.2419 3.52476e-08 0)
(57.2444 2.52769e-08 0)
(57.2493 4.68228e-08 0)
(57.2566 6.7679e-08 0)
(57.2661 5.22784e-08 0)
(57.2776 8.22472e-08 0)
(57.2906 2.71281e-08 0)
(57.3048 1.35776e-07 0)
(57.32 -4.12649e-11 0)
(57.3357 1.24326e-07 0)
(57.3516 1.81021e-07 0)
(57.3674 8.17814e-07 0)
(57.3828 3.49383e-06 0)
(57.3976 1.6825e-05 0)
(57.4115 8.05769e-05 0)
(57.4245 0.000388756 0)
(57.4368 0.00187458 0)
(57.4501 0.00906366 0)
(57.472 0.0439413 0)
(57.5329 0.212046 0)
(57.7253 1.01768 0)
(58.4333 3.56308 0)
(57.9003 -0.00011905 0)
(57.901 -0.000103372 0)
(57.902 -0.000100155 0)
(57.9029 -0.000103948 0)
(57.9037 -0.0001063 0)
(57.9044 -0.000107485 0)
(57.9052 -0.000108507 0)
(57.9059 -0.00010941 0)
(57.9068 -0.000110173 0)
(57.9076 -0.000110781 0)
(57.9084 -0.000111275 0)
(57.9093 -0.000111631 0)
(57.9101 -0.000111809 0)
(57.911 -0.000111758 0)
(57.9118 -0.000111391 0)