/*--------------------------------*- C++ -*----------------------------------*\
| =========                 |                                                 |
| \\      /  F ield         | OpenFOAM: The Open Source CFD Toolbox           |
|  \\    /   O peration     | Version:  3.0.x                                 |
|   \\  /    A nd           | Web:      www.OpenFOAM.org                      |
|    \\/     M anipulation  |                                                 |
\*---------------------------------------------------------------------------*/
FoamFile
{
    version     2.0;
    format      ascii;
    class       volScalarField;
    location    "0.52005";
    object      p;
}
// * * * * * * * * * * * * * * * * * * * * * * * * * * * * * * * * * * * * * //

dimensions      [1 -1 -2 0 0 0 0];

internalField   nonuniform List<scalar> 
13800
(
1.8085e+07
1.80851e+07
1.80854e+07
1.80857e+07
1.8086e+07
1.80864e+07
1.80868e+07
1.80874e+07
1.80879e+07
1.80885e+07
1.80892e+07
1.809e+07
1.80908e+07
1.80916e+07
1.80925e+07
1.80935e+07
1.80945e+07
1.80956e+07
1.80968e+07
1.8098e+07
1.80993e+07
1.81007e+07
1.81021e+07
1.81036e+07
1.81051e+07
1.81067e+07
1.81084e+07
1.81102e+07
1.8112e+07
1.81139e+07
1.81158e+07
1.81179e+07
1.81199e+07
1.81221e+07
1.81244e+07
1.81267e+07
1.81291e+07
1.81315e+07
1.8134e+07
1.81367e+07
1.81393e+07
1.81421e+07
1.8145e+07
1.81479e+07
1.81509e+07
1.8154e+07
1.81571e+07
1.81604e+07
1.81637e+07
1.81671e+07
1.81706e+07
1.81742e+07
1.81778e+07
1.81816e+07
1.81854e+07
1.81893e+07
1.81934e+07
1.81975e+07
1.82017e+07
1.8206e+07
1.82104e+07
1.82148e+07
1.82194e+07
1.82241e+07
1.82289e+07
1.82337e+07
1.82387e+07
1.82438e+07
1.82489e+07
1.82542e+07
1.82596e+07
1.82651e+07
1.82706e+07
1.82763e+07
1.82821e+07
1.82881e+07
1.82941e+07
1.83002e+07
1.83065e+07
1.83128e+07
1.83193e+07
1.83259e+07
1.83326e+07
1.83394e+07
1.83464e+07
1.83534e+07
1.83606e+07
1.83679e+07
1.83754e+07
1.83829e+07
1.83906e+07
1.83984e+07
1.84063e+07
1.84144e+07
1.84226e+07
1.84309e+07
1.84393e+07
1.84479e+07
1.84566e+07
1.84654e+07
1.84744e+07
1.84835e+07
1.84927e+07
1.85021e+07
1.85116e+07
1.85212e+07
1.8531e+07
1.85409e+07
1.85509e+07
1.85611e+07
1.85714e+07
1.85819e+07
1.85924e+07
1.86032e+07
1.8614e+07
1.8625e+07
1.86361e+07
1.86473e+07
1.86587e+07
1.86702e+07
1.86819e+07
1.86936e+07
1.87055e+07
1.87176e+07
1.87297e+07
1.8742e+07
1.87544e+07
1.87669e+07
1.87795e+07
1.87923e+07
1.88052e+07
1.88182e+07
1.88313e+07
1.88445e+07
1.88578e+07
1.88713e+07
1.88848e+07
1.88985e+07
1.89122e+07
1.8926e+07
1.894e+07
1.8954e+07
1.89681e+07
1.89823e+07
1.89966e+07
1.90109e+07
1.90254e+07
1.90399e+07
1.90545e+07
1.90691e+07
1.90838e+07
1.90986e+07
1.91134e+07
1.91283e+07
1.91432e+07
1.91581e+07
1.91731e+07
1.91882e+07
1.92032e+07
1.92183e+07
1.92334e+07
1.92486e+07
1.92637e+07
1.92789e+07
1.92941e+07
1.93092e+07
1.93244e+07
1.93396e+07
1.93548e+07
1.93699e+07
1.93851e+07
1.94002e+07
1.94153e+07
1.94304e+07
1.94454e+07
1.94605e+07
1.94755e+07
1.94904e+07
1.95053e+07
1.95202e+07
1.9535e+07
1.95498e+07
1.95645e+07
1.95791e+07
1.95937e+07
1.96083e+07
1.96227e+07
1.96371e+07
1.96515e+07
1.96657e+07
1.96799e+07
1.9694e+07
1.9708e+07
1.9722e+07
1.97358e+07
1.97496e+07
1.97633e+07
1.97769e+07
1.97906e+07
1.98041e+07
1.8085e+07
1.80851e+07
1.80854e+07
1.80857e+07
1.8086e+07
1.80864e+07
1.80868e+07
1.80874e+07
1.80879e+07
1.80885e+07
1.80892e+07
1.809e+07
1.80908e+07
1.80916e+07
1.80925e+07
1.80935e+07
1.80945e+07
1.80956e+07
1.80968e+07
1.8098e+07
1.80993e+07
1.81007e+07
1.81021e+07
1.81036e+07
1.81051e+07
1.81067e+07
1.81084e+07
1.81102e+07
1.8112e+07
1.81139e+07
1.81158e+07
1.81179e+07
1.81199e+07
1.81221e+07
1.81244e+07
1.81267e+07
1.81291e+07
1.81315e+07
1.8134e+07
1.81367e+07
1.81393e+07
1.81421e+07
1.8145e+07
1.81479e+07
1.81509e+07
1.8154e+07
1.81571e+07
1.81604e+07
1.81637e+07
1.81671e+07
1.81706e+07
1.81742e+07
1.81778e+07
1.81816e+07
1.81854e+07
1.81893e+07
1.81934e+07
1.81975e+07
1.82017e+07
1.8206e+07
1.82104e+07
1.82148e+07
1.82194e+07
1.82241e+07
1.82289e+07
1.82337e+07
1.82387e+07
1.82438e+07
1.82489e+07
1.82542e+07
1.82596e+07
1.82651e+07
1.82706e+07
1.82763e+07
1.82821e+07
1.82881e+07
1.82941e+07
1.83002e+07
1.83065e+07
1.83128e+07
1.83193e+07
1.83259e+07
1.83326e+07
1.83394e+07
1.83464e+07
1.83534e+07
1.83606e+07
1.83679e+07
1.83754e+07
1.83829e+07
1.83906e+07
1.83984e+07
1.84063e+07
1.84144e+07
1.84226e+07
1.84309e+07
1.84393e+07
1.84479e+07
1.84566e+07
1.84654e+07
1.84744e+07
1.84835e+07
1.84927e+07
1.85021e+07
1.85116e+07
1.85212e+07
1.8531e+07
1.85409e+07
1.85509e+07
1.85611e+07
1.85714e+07
1.85819e+07
1.85924e+07
1.86032e+07
1.8614e+07
1.8625e+07
1.86361e+07
1.86473e+07
1.86587e+07
1.86702e+07
1.86819e+07
1.86936e+07
1.87055e+07
1.87176e+07
1.87297e+07
1.8742e+07
1.87544e+07
1.87669e+07
1.87795e+07
1.87923e+07
1.88052e+07
1.88182e+07
1.88313e+07
1.88445e+07
1.88578e+07
1.88713e+07
1.88848e+07
1.88985e+07
1.89122e+07
1.8926e+07
1.894e+07
1.8954e+07
1.89681e+07
1.89823e+07
1.89966e+07
1.90109e+07
1.90254e+07
1.90399e+07
1.90545e+07
1.90691e+07
1.90838e+07
1.90986e+07
1.91134e+07
1.91283e+07
1.91432e+07
1.91581e+07
1.91731e+07
1.91882e+07
1.92032e+07
1.92183e+07
1.92334e+07
1.92486e+07
1.92637e+07
1.92789e+07
1.92941e+07
1.93092e+07
1.93244e+07
1.93396e+07
1.93548e+07
1.93699e+07
1.93851e+07
1.94002e+07
1.94153e+07
1.94304e+07
1.94454e+07
1.94605e+07
1.94755e+07
1.94904e+07
1.95053e+07
1.95202e+07
1.9535e+07
1.95498e+07
1.95645e+07
1.95791e+07
1.95937e+07
1.96083e+07
1.96227e+07
1.96371e+07
1.96515e+07
1.96657e+07
1.96799e+07
1.9694e+07
1.9708e+07
1.9722e+07
1.97358e+07
1.97496e+07
1.97633e+07
1.97769e+07
1.97906e+07
1.98041e+07
1.8085e+07
1.80851e+07
1.80854e+07
1.80857e+07
1.8086e+07
1.80864e+07
1.80868e+07
1.80874e+07
1.80879e+07
1.80885e+07
1.80892e+07
1.809e+07
1.80908e+07
1.80916e+07
1.80925e+07
1.80935e+07
1.80945e+07
1.80956e+07
1.80968e+07
1.8098e+07
1.80993e+07
1.81007e+07
1.81021e+07
1.81036e+07
1.81051e+07
1.81067e+07
1.81084e+07
1.81102e+07
1.8112e+07
1.81139e+07
1.81158e+07
1.81179e+07
1.81199e+07
1.81221e+07
1.81244e+07
1.81267e+07
1.81291e+07
1.81315e+07
1.8134e+07
1.81367e+07
1.81393e+07
1.81421e+07
1.8145e+07
1.81479e+07
1.81509e+07
1.8154e+07
1.81571e+07
1.81604e+07
1.81637e+07
1.81671e+07
1.81706e+07
1.81742e+07
1.81778e+07
1.81816e+07
1.81854e+07
1.81893e+07
1.81934e+07
1.81975e+07
1.82017e+07
1.8206e+07
1.82104e+07
1.82148e+07
1.82194e+07
1.82241e+07
1.82289e+07
1.82337e+07
1.82387e+07
1.82438e+07
1.82489e+07
1.82542e+07
1.82596e+07
1.82651e+07
1.82706e+07
1.82763e+07
1.82821e+07
1.82881e+07
1.82941e+07
1.83002e+07
1.83065e+07
1.83128e+07
1.83193e+07
1.83259e+07
1.83326e+07
1.83394e+07
1.83464e+07
1.83534e+07
1.83606e+07
1.83679e+07
1.83754e+07
1.83829e+07
1.83906e+07
1.83984e+07
1.84063e+07
1.84144e+07
1.84226e+07
1.84309e+07
1.84393e+07
1.84479e+07
1.84566e+07
1.84654e+07
1.84744e+07
1.84835e+07
1.84927e+07
1.85021e+07
1.85116e+07
1.85212e+07
1.8531e+07
1.85409e+07
1.85509e+07
1.85611e+07
1.85714e+07
1.85819e+07
1.85924e+07
1.86032e+07
1.8614e+07
1.8625e+07
1.86361e+07
1.86473e+07
1.86587e+07
1.86702e+07
1.86819e+07
1.86936e+07
1.87055e+07
1.87176e+07
1.87297e+07
1.8742e+07
1.87544e+07
1.87669e+07
1.87795e+07
1.87923e+07
1.88052e+07
1.88182e+07
1.88313e+07
1.88445e+07
1.88578e+07
1.88713e+07
1.88848e+07
1.88985e+07
1.89122e+07
1.8926e+07
1.894e+07
1.8954e+07
1.89681e+07
1.89823e+07
1.89966e+07
1.90109e+07
1.90254e+07
1.90399e+07
1.90545e+07
1.90691e+07
1.90838e+07
1.90986e+07
1.91134e+07
1.91283e+07
1.91432e+07
1.91581e+07
1.91731e+07
1.91882e+07
1.92032e+07
1.92183e+07
1.92334e+07
1.92486e+07
1.92637e+07
1.92789e+07
1.92941e+07
1.93092e+07
1.93244e+07
1.93396e+07
1.93548e+07
1.93699e+07
1.93851e+07
1.94002e+07
1.94153e+07
1.94304e+07
1.94454e+07
1.94605e+07
1.94755e+07
1.94904e+07
1.95053e+07
1.95202e+07
1.9535e+07
1.95498e+07
1.95645e+07
1.95791e+07
1.95937e+07
1.96083e+07
1.96227e+07
1.96371e+07
1.96515e+07
1.96657e+07
1.96799e+07
1.9694e+07
1.9708e+07
1.9722e+07
1.97358e+07
1.97496e+07
1.97633e+07
1.97769e+07
1.97906e+07
1.98041e+07
1.8085e+07
1.80851e+07
1.80854e+07
1.80857e+07
1.8086e+07
1.80864e+07
1.80868e+07
1.80874e+07
1.80879e+07
1.80885e+07
1.80892e+07
1.809e+07
1.80908e+07
1.80916e+07
1.80925e+07
1.80935e+07
1.80945e+07
1.80956e+07
1.80968e+07
1.8098e+07
1.80993e+07
1.81007e+07
1.81021e+07
1.81036e+07
1.81051e+07
1.81067e+07
1.81084e+07
1.81102e+07
1.8112e+07
1.81139e+07
1.81158e+07
1.81179e+07
1.81199e+07
1.81221e+07
1.81244e+07
1.81267e+07
1.81291e+07
1.81315e+07
1.8134e+07
1.81367e+07
1.81393e+07
1.81421e+07
1.8145e+07
1.81479e+07
1.81509e+07
1.8154e+07
1.81571e+07
1.81604e+07
1.81637e+07
1.81671e+07
1.81706e+07
1.81742e+07
1.81778e+07
1.81816e+07
1.81854e+07
1.81893e+07
1.81934e+07
1.81975e+07
1.82017e+07
1.8206e+07
1.82104e+07
1.82148e+07
1.82194e+07
1.82241e+07
1.82289e+07
1.82337e+07
1.82387e+07
1.82438e+07
1.82489e+07
1.82542e+07
1.82596e+07
1.82651e+07
1.82706e+07
1.82763e+07
1.82821e+07
1.82881e+07
1.82941e+07
1.83002e+07
1.83065e+07
1.83128e+07
1.83193e+07
1.83259e+07
1.83326e+07
1.83394e+07
1.83464e+07
1.83534e+07
1.83606e+07
1.83679e+07
1.83754e+07
1.83829e+07
1.83906e+07
1.83984e+07
1.84063e+07
1.84144e+07
1.84226e+07
1.84309e+07
1.84393e+07
1.84479e+07
1.84566e+07
1.84654e+07
1.84744e+07
1.84835e+07
1.84927e+07
1.85021e+07
1.85116e+07
1.85212e+07
1.8531e+07
1.85409e+07
1.85509e+07
1.85611e+07
1.85714e+07
1.85819e+07
1.85924e+07
1.86032e+07
1.8614e+07
1.8625e+07
1.86361e+07
1.86473e+07
1.86587e+07
1.86702e+07
1.86819e+07
1.86936e+07
1.87055e+07
1.87176e+07
1.87297e+07
1.8742e+07
1.87544e+07
1.87669e+07
1.87795e+07
1.87923e+07
1.88052e+07
1.88182e+07
1.88313e+07
1.88445e+07
1.88578e+07
1.88713e+07
1.88848e+07
1.88985e+07
1.89122e+07
1.8926e+07
1.894e+07
1.8954e+07
1.89681e+07
1.89823e+07
1.89966e+07
1.90109e+07
1.90254e+07
1.90399e+07
1.90545e+07
1.90691e+07
1.90838e+07
1.90986e+07
1.91134e+07
1.91283e+07
1.91432e+07
1.91581e+07
1.91731e+07
1.91882e+07
1.92032e+07
1.92183e+07
1.92334e+07
1.92486e+07
1.92637e+07
1.92789e+07
1.92941e+07
1.93092e+07
1.93244e+07
1.93396e+07
1.93548e+07
1.93699e+07
1.93851e+07
1.94002e+07
1.94153e+07
1.94304e+07
1.94454e+07
1.94605e+07
1.94755e+07
1.94904e+07
1.95053e+07
1.95202e+07
1.9535e+07
1.95498e+07
1.95645e+07
1.95791e+07
1.95937e+07
1.96083e+07
1.96227e+07
1.96371e+07
1.96515e+07
1.96657e+07
1.96799e+07
1.9694e+07
1.9708e+07
1.9722e+07
1.97358e+07
1.97496e+07
1.97633e+07
1.97769e+07
1.97906e+07
1.98041e+07
1.8085e+07
1.80851e+07
1.80854e+07
1.80857e+07
1.8086e+07
1.80864e+07
1.80868e+07
1.80874e+07
1.80879e+07
1.80885e+07
1.80892e+07
1.809e+07
1.80908e+07
1.80916e+07
1.80925e+07
1.80935e+07
1.80945e+07
1.80956e+07
1.80968e+07
1.8098e+07
1.80993e+07
1.81007e+07
1.81021e+07
1.81036e+07
1.81051e+07
1.81067e+07
1.81084e+07
1.81102e+07
1.8112e+07
1.81139e+07
1.81158e+07
1.81179e+07
1.81199e+07
1.81221e+07
1.81244e+07
1.81267e+07
1.81291e+07
1.81315e+07
1.8134e+07
1.81367e+07
1.81393e+07
1.81421e+07
1.8145e+07
1.81479e+07
1.81509e+07
1.8154e+07
1.81571e+07
1.81604e+07
1.81637e+07
1.81671e+07
1.81706e+07
1.81742e+07
1.81778e+07
1.81816e+07
1.81854e+07
1.81893e+07
1.81934e+07
1.81975e+07
1.82017e+07
1.8206e+07
1.82104e+07
1.82148e+07
1.82194e+07
1.82241e+07
1.82289e+07
1.82337e+07
1.82387e+07
1.82438e+07
1.82489e+07
1.82542e+07
1.82596e+07
1.82651e+07
1.82706e+07
1.82763e+07
1.82821e+07
1.82881e+07
1.82941e+07
1.83002e+07
1.83065e+07
1.83128e+07
1.83193e+07
1.83259e+07
1.83326e+07
1.83394e+07
1.83464e+07
1.83534e+07
1.83606e+07
1.83679e+07
1.83754e+07
1.83829e+07
1.83906e+07
1.83984e+07
1.84063e+07
1.84144e+07
1.84226e+07
1.84309e+07
1.84393e+07
1.84479e+07
1.84566e+07
1.84654e+07
1.84744e+07
1.84835e+07
1.84927e+07
1.85021e+07
1.85116e+07
1.85212e+07
1.8531e+07
1.85409e+07
1.85509e+07
1.85611e+07
1.85714e+07
1.85819e+07
1.85924e+07
1.86032e+07
1.8614e+07
1.8625e+07
1.86361e+07
1.86473e+07
1.86587e+07
1.86702e+07
1.86819e+07
1.86936e+07
1.87055e+07
1.87176e+07
1.87297e+07
1.8742e+07
1.87544e+07
1.87669e+07
1.87795e+07
1.87923e+07
1.88052e+07
1.88182e+07
1.88313e+07
1.88445e+07
1.88578e+07
1.88713e+07
1.88848e+07
1.88985e+07
1.89122e+07
1.8926e+07
1.894e+07
1.8954e+07
1.89681e+07
1.89823e+07
1.89966e+07
1.90109e+07
1.90254e+07
1.90399e+07
1.90545e+07
1.90691e+07
1.90838e+07
1.90986e+07
1.91134e+07
1.91283e+07
1.91432e+07
1.91581e+07
1.91731e+07
1.91882e+07
1.92032e+07
1.92183e+07
1.92334e+07
1.92486e+07
1.92637e+07
1.92789e+07
1.92941e+07
1.93092e+07
1.93244e+07
1.93396e+07
1.93548e+07
1.93699e+07
1.93851e+07
1.94002e+07
1.94153e+07
1.94304e+07
1.94454e+07
1.94605e+07
1.94755e+07
1.94904e+07
1.95053e+07
1.95202e+07
1.9535e+07
1.95498e+07
1.95645e+07
1.95791e+07
1.95937e+07
1.96083e+07
1.96227e+07
1.96371e+07
1.96515e+07
1.96657e+07
1.96799e+07
1.9694e+07
1.9708e+07
1.9722e+07
1.97358e+07
1.97496e+07
1.97633e+07
1.97769e+07
1.97905e+07
1.98039e+07
1.8085e+07
1.80851e+07
1.80854e+07
1.80857e+07
1.8086e+07
1.80864e+07
1.80868e+07
1.80874e+07
1.80879e+07
1.80885e+07
1.80892e+07
1.809e+07
1.80908e+07
1.80916e+07
1.80925e+07
1.80935e+07
1.80945e+07
1.80956e+07
1.80968e+07
1.8098e+07
1.80993e+07
1.81007e+07
1.81021e+07
1.81036e+07
1.81051e+07
1.81067e+07
1.81084e+07
1.81102e+07
1.8112e+07
1.81139e+07
1.81158e+07
1.81179e+07
1.81199e+07
1.81221e+07
1.81244e+07
1.81267e+07
1.81291e+07
1.81315e+07
1.8134e+07
1.81367e+07
1.81393e+07
1.81421e+07
1.8145e+07
1.81479e+07
1.81509e+07
1.8154e+07
1.81571e+07
1.81604e+07
1.81637e+07
1.81671e+07
1.81706e+07
1.81742e+07
1.81778e+07
1.81816e+07
1.81854e+07
1.81893e+07
1.81934e+07
1.81975e+07
1.82017e+07
1.8206e+07
1.82104e+07
1.82148e+07
1.82194e+07
1.82241e+07
1.82289e+07
1.82337e+07
1.82387e+07
1.82438e+07
1.82489e+07
1.82542e+07
1.82596e+07
1.82651e+07
1.82706e+07
1.82763e+07
1.82821e+07
1.82881e+07
1.82941e+07
1.83002e+07
1.83065e+07
1.83128e+07
1.83193e+07
1.83259e+07
1.83326e+07
1.83394e+07
1.83464e+07
1.83534e+07
1.83606e+07
1.83679e+07
1.83754e+07
1.83829e+07
1.83906e+07
1.83984e+07
1.84063e+07
1.84144e+07
1.84226e+07
1.84309e+07
1.84393e+07
1.84479e+07
1.84566e+07
1.84654e+07
1.84744e+07
1.84835e+07
1.84927e+07
1.85021e+07
1.85116e+07
1.85212e+07
1.8531e+07
1.85409e+07
1.85509e+07
1.85611e+07
1.85714e+07
1.85819e+07
1.85924e+07
1.86032e+07
1.8614e+07
1.8625e+07
1.86361e+07
1.86473e+07
1.86587e+07
1.86702e+07
1.86819e+07
1.86936e+07
1.87055e+07
1.87176e+07
1.87297e+07
1.8742e+07
1.87544e+07
1.87669e+07
1.87795e+07
1.87923e+07
1.88052e+07
1.88182e+07
1.88313e+07
1.88445e+07
1.88578e+07
1.88713e+07
1.88848e+07
1.88985e+07
1.89122e+07
1.8926e+07
1.894e+07
1.8954e+07
1.89681e+07
1.89823e+07
1.89966e+07
1.90109e+07
1.90254e+07
1.90399e+07
1.90545e+07
1.90691e+07
1.90838e+07
1.90986e+07
1.91134e+07
1.91283e+07
1.91432e+07
1.91581e+07
1.91731e+07
1.91882e+07
1.92032e+07
1.92183e+07
1.92334e+07
1.92486e+07
1.92637e+07
1.92789e+07
1.92941e+07
1.93092e+07
1.93244e+07
1.93396e+07
1.93548e+07
1.93699e+07
1.93851e+07
1.94002e+07
1.94153e+07
1.94304e+07
1.94454e+07
1.94605e+07
1.94755e+07
1.94904e+07
1.95053e+07
1.95202e+07
1.9535e+07
1.95498e+07
1.95645e+07
1.95791e+07
1.95937e+07
1.96083e+07
1.96227e+07
1.96371e+07
1.96515e+07
1.96657e+07
1.96799e+07
1.9694e+07
1.9708e+07
1.9722e+07
1.97358e+07
1.97496e+07
1.97633e+07
1.97769e+07
1.97903e+07
1.98036e+07
1.8085e+07
1.80851e+07
1.80854e+07
1.80857e+07
1.8086e+07
1.80864e+07
1.80868e+07
1.80874e+07
1.80879e+07
1.80885e+07
1.80892e+07
1.809e+07
1.80908e+07
1.80916e+07
1.80925e+07
1.80935e+07
1.80945e+07
1.80956e+07
1.80968e+07
1.8098e+07
1.80993e+07
1.81007e+07
1.81021e+07
1.81036e+07
1.81051e+07
1.81067e+07
1.81084e+07
1.81102e+07
1.8112e+07
1.81139e+07
1.81158e+07
1.81179e+07
1.81199e+07
1.81221e+07
1.81244e+07
1.81267e+07
1.81291e+07
1.81315e+07
1.8134e+07
1.81367e+07
1.81393e+07
1.81421e+07
1.8145e+07
1.81479e+07
1.81509e+07
1.8154e+07
1.81571e+07
1.81604e+07
1.81637e+07
1.81671e+07
1.81706e+07
1.81742e+07
1.81778e+07
1.81816e+07
1.81854e+07
1.81893e+07
1.81934e+07
1.81975e+07
1.82017e+07
1.8206e+07
1.82104e+07
1.82148e+07
1.82194e+07
1.82241e+07
1.82289e+07
1.82337e+07
1.82387e+07
1.82438e+07
1.82489e+07
1.82542e+07
1.82596e+07
1.82651e+07
1.82706e+07
1.82763e+07
1.82821e+07
1.82881e+07
1.82941e+07
1.83002e+07
1.83065e+07
1.83128e+07
1.83193e+07
1.83259e+07
1.83326e+07
1.83394e+07
1.83464e+07
1.83534e+07
1.83606e+07
1.83679e+07
1.83754e+07
1.83829e+07
1.83906e+07
1.83984e+07
1.84063e+07
1.84144e+07
1.84226e+07
1.84309e+07
1.84393e+07
1.84479e+07
1.84566e+07
1.84654e+07
1.84744e+07
1.84835e+07
1.84927e+07
1.85021e+07
1.85116e+07
1.85212e+07
1.8531e+07
1.85409e+07
1.85509e+07
1.85611e+07
1.85714e+07
1.85819e+07
1.85924e+07
1.86032e+07
1.8614e+07
1.8625e+07
1.86361e+07
1.86473e+07
1.86587e+07
1.86702e+07
1.86819e+07
1.86936e+07
1.87055e+07
1.87176e+07
1.87297e+07
1.8742e+07
1.87544e+07
1.87669e+07
1.87795e+07
1.87923e+07
1.88052e+07
1.88182e+07
1.88313e+07
1.88445e+07
1.88578e+07
1.88713e+07
1.88848e+07
1.88985e+07
1.89122e+07
1.8926e+07
1.894e+07
1.8954e+07
1.89681e+07
1.89823e+07
1.89966e+07
1.90109e+07
1.90254e+07
1.90399e+07
1.90545e+07
1.90691e+07
1.90838e+07
1.90986e+07
1.91134e+07
1.91283e+07
1.91432e+07
1.91581e+07
1.91731e+07
1.91882e+07
1.92032e+07
1.92183e+07
1.92334e+07
1.92486e+07
1.92637e+07
1.92789e+07
1.92941e+07
1.93092e+07
1.93244e+07
1.93396e+07
1.93548e+07
1.93699e+07
1.93851e+07
1.94002e+07
1.94153e+07
1.94304e+07
1.94454e+07
1.94605e+07
1.94755e+07
1.94904e+07
1.95053e+07
1.95202e+07
1.9535e+07
1.95498e+07
1.95645e+07
1.95791e+07
1.95937e+07
1.96083e+07
1.96227e+07
1.96371e+07
1.96515e+07
1.96657e+07
1.96799e+07
1.9694e+07
1.9708e+07
1.9722e+07
1.97358e+07
1.97496e+07
1.97633e+07
1.97768e+07
1.97902e+07
1.98034e+07
1.8085e+07
1.80851e+07
1.80854e+07
1.80857e+07
1.8086e+07
1.80864e+07
1.80868e+07
1.80874e+07
1.80879e+07
1.80885e+07
1.80892e+07
1.809e+07
1.80908e+07
1.80916e+07
1.80925e+07
1.80935e+07
1.80945e+07
1.80956e+07
1.80968e+07
1.8098e+07
1.80993e+07
1.81007e+07
1.81021e+07
1.81036e+07
1.81051e+07
1.81067e+07
1.81084e+07
1.81102e+07
1.8112e+07
1.81139e+07
1.81158e+07
1.81179e+07
1.81199e+07
1.81221e+07
1.81244e+07
1.81267e+07
1.81291e+07
1.81315e+07
1.8134e+07
1.81367e+07
1.81393e+07
1.81421e+07
1.8145e+07
1.81479e+07
1.81509e+07
1.8154e+07
1.81571e+07
1.81604e+07
1.81637e+07
1.81671e+07
1.81706e+07
1.81742e+07
1.81778e+07
1.81816e+07
1.81854e+07
1.81893e+07
1.81934e+07
1.81975e+07
1.82017e+07
1.8206e+07
1.82104e+07
1.82148e+07
1.82194e+07
1.82241e+07
1.82289e+07
1.82337e+07
1.82387e+07
1.82438e+07
1.82489e+07
1.82542e+07
1.82596e+07
1.82651e+07
1.82706e+07
1.82763e+07
1.82821e+07
1.82881e+07
1.82941e+07
1.83002e+07
1.83065e+07
1.83128e+07
1.83193e+07
1.83259e+07
1.83326e+07
1.83394e+07
1.83464e+07
1.83534e+07
1.83606e+07
1.83679e+07
1.83754e+07
1.83829e+07
1.83906e+07
1.83984e+07
1.84063e+07
1.84144e+07
1.84226e+07
1.84309e+07
1.84393e+07
1.84479e+07
1.84566e+07
1.84654e+07
1.84744e+07
1.84835e+07
1.84927e+07
1.85021e+07
1.85116e+07
1.85212e+07
1.8531e+07
1.85409e+07
1.85509e+07
1.85611e+07
1.85714e+07
1.85819e+07
1.85924e+07
1.86032e+07
1.8614e+07
1.8625e+07
1.86361e+07
1.86473e+07
1.86587e+07
1.86702e+07
1.86819e+07
1.86936e+07
1.87055e+07
1.87176e+07
1.87297e+07
1.8742e+07
1.87544e+07
1.87669e+07
1.87795e+07
1.87923e+07
1.88052e+07
1.88182e+07
1.88313e+07
1.88445e+07
1.88578e+07
1.88713e+07
1.88848e+07
1.88985e+07
1.89122e+07
1.8926e+07
1.894e+07
1.8954e+07
1.89681e+07
1.89823e+07
1.89966e+07
1.90109e+07
1.90254e+07
1.90399e+07
1.90545e+07
1.90691e+07
1.90838e+07
1.90986e+07
1.91134e+07
1.91283e+07
1.91432e+07
1.91581e+07
1.91731e+07
1.91882e+07
1.92032e+07
1.92183e+07
1.92334e+07
1.92486e+07
1.92637e+07
1.92789e+07
1.92941e+07
1.93092e+07
1.93244e+07
1.93396e+07
1.93548e+07
1.93699e+07
1.93851e+07
1.94002e+07
1.94153e+07
1.94304e+07
1.94454e+07
1.94605e+07
1.94755e+07
1.94904e+07
1.95053e+07
1.95202e+07
1.9535e+07
1.95498e+07
1.95645e+07
1.95791e+07
1.95937e+07
1.96083e+07
1.96227e+07
1.96371e+07
1.96515e+07
1.96657e+07
1.96799e+07
1.9694e+07
1.9708e+07
1.9722e+07
1.97358e+07
1.97496e+07
1.97633e+07
1.97768e+07
1.97901e+07
1.98034e+07
1.8085e+07
1.80851e+07
1.80854e+07
1.80857e+07
1.8086e+07
1.80864e+07
1.80868e+07
1.80874e+07
1.80879e+07
1.80885e+07
1.80892e+07
1.809e+07
1.80908e+07
1.80916e+07
1.80925e+07
1.80935e+07
1.80945e+07
1.80956e+07
1.80968e+07
1.8098e+07
1.80993e+07
1.81007e+07
1.81021e+07
1.81036e+07
1.81051e+07
1.81067e+07
1.81084e+07
1.81102e+07
1.8112e+07
1.81139e+07
1.81158e+07
1.81179e+07
1.81199e+07
1.81221e+07
1.81244e+07
1.81267e+07
1.81291e+07
1.81315e+07
1.8134e+07
1.81367e+07
1.81393e+07
1.81421e+07
1.8145e+07
1.81479e+07
1.81509e+07
1.8154e+07
1.81571e+07
1.81604e+07
1.81637e+07
1.81671e+07
1.81706e+07
1.81742e+07
1.81778e+07
1.81816e+07
1.81854e+07
1.81893e+07
1.81934e+07
1.81975e+07
1.82017e+07
1.8206e+07
1.82104e+07
1.82148e+07
1.82194e+07
1.82241e+07
1.82289e+07
1.82337e+07
1.82387e+07
1.82438e+07
1.82489e+07
1.82542e+07
1.82596e+07
1.82651e+07
1.82706e+07
1.82763e+07
1.82821e+07
1.82881e+07
1.82941e+07
1.83002e+07
1.83065e+07
1.83128e+07
1.83193e+07
1.83259e+07
1.83326e+07
1.83394e+07
1.83464e+07
1.83534e+07
1.83606e+07
1.83679e+07
1.83754e+07
1.83829e+07
1.83906e+07
1.83984e+07
1.84063e+07
1.84144e+07
1.84226e+07
1.84309e+07
1.84393e+07
1.84479e+07
1.84566e+07
1.84654e+07
1.84744e+07
1.84835e+07
1.84927e+07
1.85021e+07
1.85116e+07
1.85212e+07
1.8531e+07
1.85409e+07
1.85509e+07
1.85611e+07
1.85714e+07
1.85819e+07
1.85924e+07
1.86032e+07
1.8614e+07
1.8625e+07
1.86361e+07
1.86473e+07
1.86587e+07
1.86702e+07
1.86819e+07
1.86936e+07
1.87055e+07
1.87176e+07
1.87297e+07
1.8742e+07
1.87544e+07
1.87669e+07
1.87795e+07
1.87923e+07
1.88052e+07
1.88182e+07
1.88313e+07
1.88445e+07
1.88578e+07
1.88713e+07
1.88848e+07
1.88985e+07
1.89122e+07
1.8926e+07
1.894e+07
1.8954e+07
1.89681e+07
1.89823e+07
1.89966e+07
1.90109e+07
1.90254e+07
1.90399e+07
1.90545e+07
1.90691e+07
1.90838e+07
1.90986e+07
1.91134e+07
1.91283e+07
1.91432e+07
1.91581e+07
1.91731e+07
1.91882e+07
1.92032e+07
1.92183e+07
1.92334e+07
1.92486e+07
1.92637e+07
1.92789e+07
1.92941e+07
1.93092e+07
1.93244e+07
1.93396e+07
1.93548e+07
1.93699e+07
1.93851e+07
1.94002e+07
1.94153e+07
1.94304e+07
1.94454e+07
1.94605e+07
1.94755e+07
1.94904e+07
1.95053e+07
1.95202e+07
1.9535e+07
1.95498e+07
1.95645e+07
1.95791e+07
1.95937e+07
1.96083e+07
1.96227e+07
1.96371e+07
1.96515e+07
1.96657e+07
1.96799e+07
1.9694e+07
1.9708e+07
1.9722e+07
1.97358e+07
1.97496e+07
1.97633e+07
1.97768e+07
1.97901e+07
1.98034e+07
1.8085e+07
1.80851e+07
1.80854e+07
1.80857e+07
1.8086e+07
1.80864e+07
1.80868e+07
1.80874e+07
1.80879e+07
1.80885e+07
1.80892e+07
1.809e+07
1.80908e+07
1.80916e+07
1.80925e+07
1.80935e+07
1.80945e+07
1.80956e+07
1.80968e+07
1.8098e+07
1.80993e+07
1.81007e+07
1.81021e+07
1.81036e+07
1.81051e+07
1.81067e+07
1.81084e+07
1.81102e+07
1.8112e+07
1.81139e+07
1.81158e+07
1.81179e+07
1.81199e+07
1.81221e+07
1.81244e+07
1.81267e+07
1.81291e+07
1.81315e+07
1.8134e+07
1.81367e+07
1.81393e+07
1.81421e+07
1.8145e+07
1.81479e+07
1.81509e+07
1.8154e+07
1.81571e+07
1.81604e+07
1.81637e+07
1.81671e+07
1.81706e+07
1.81742e+07
1.81778e+07
1.81816e+07
1.81854e+07
1.81893e+07
1.81934e+07
1.81975e+07
1.82017e+07
1.8206e+07
1.82104e+07
1.82148e+07
1.82194e+07
1.82241e+07
1.82289e+07
1.82337e+07
1.82387e+07
1.82438e+07
1.82489e+07
1.82542e+07
1.82596e+07
1.82651e+07
1.82706e+07
1.82763e+07
1.82821e+07
1.82881e+07
1.82941e+07
1.83002e+07
1.83065e+07
1.83128e+07
1.83193e+07
1.83259e+07
1.83326e+07
1.83394e+07
1.83464e+07
1.83534e+07
1.83606e+07
1.83679e+07
1.83754e+07
1.83829e+07
1.83906e+07
1.83984e+07
1.84063e+07
1.84144e+07
1.84226e+07
1.84309e+07
1.84393e+07
1.84479e+07
1.84566e+07
1.84654e+07
1.84744e+07
1.84835e+07
1.84927e+07
1.85021e+07
1.85116e+07
1.85212e+07
1.8531e+07
1.85409e+07
1.85509e+07
1.85611e+07
1.85714e+07
1.85819e+07
1.85924e+07
1.86032e+07
1.8614e+07
1.8625e+07
1.86361e+07
1.86473e+07
1.86587e+07
1.86702e+07
1.86819e+07
1.86936e+07
1.87055e+07
1.87176e+07
1.87297e+07
1.8742e+07
1.87544e+07
1.87669e+07
1.87795e+07
1.87923e+07
1.88052e+07
1.88182e+07
1.88313e+07
1.88445e+07
1.88578e+07
1.88713e+07
1.88848e+07
1.88985e+07
1.89122e+07
1.8926e+07
1.894e+07
1.8954e+07
1.89681e+07
1.89823e+07
1.89966e+07
1.90109e+07
1.90254e+07
1.90399e+07
1.90545e+07
1.90691e+07
1.90838e+07
1.90986e+07
1.91134e+07
1.91283e+07
1.91432e+07
1.91581e+07
1.91731e+07
1.91882e+07
1.92032e+07
1.92183e+07
1.92334e+07
1.92486e+07
1.92637e+07
1.92789e+07
1.92941e+07
1.93092e+07
1.93244e+07
1.93396e+07
1.93548e+07
1.93699e+07
1.93851e+07
1.94002e+07
1.94153e+07
1.94304e+07
1.94454e+07
1.94605e+07
1.94755e+07
1.94904e+07
1.95053e+07
1.95202e+07
1.9535e+07
1.95498e+07
1.95645e+07
1.95791e+07
1.95937e+07
1.96083e+07
1.96227e+07
1.96371e+07
1.96515e+07
1.96657e+07
1.96799e+07
1.9694e+07
1.9708e+07
1.9722e+07
1.97358e+07
1.97496e+07
1.97633e+07
1.97768e+07
1.97901e+07
1.98034e+07
1.98157e+07
1.98203e+07
1.98235e+07
1.98261e+07
1.98286e+07
1.98311e+07
1.98335e+07
1.9836e+07
1.98384e+07
1.98408e+07
1.98432e+07
1.98455e+07
1.98479e+07
1.98502e+07
1.98525e+07
1.98547e+07
1.98568e+07
1.98589e+07
1.9861e+07
1.98628e+07
1.98154e+07
1.98197e+07
1.98229e+07
1.98256e+07
1.9828e+07
1.98305e+07
1.9833e+07
1.98355e+07
1.98379e+07
1.98403e+07
1.98427e+07
1.9845e+07
1.98474e+07
1.98497e+07
1.9852e+07
1.98542e+07
1.98564e+07
1.98585e+07
1.98605e+07
1.98623e+07
1.98153e+07
1.98197e+07
1.98229e+07
1.98256e+07
1.9828e+07
1.98305e+07
1.9833e+07
1.98355e+07
1.98379e+07
1.98403e+07
1.98427e+07
1.9845e+07
1.98474e+07
1.98496e+07
1.98519e+07
1.98541e+07
1.98562e+07
1.98583e+07
1.98603e+07
1.98621e+07
1.98141e+07
1.98175e+07
1.98203e+07
1.98228e+07
1.98253e+07
1.98278e+07
1.98303e+07
1.98328e+07
1.98353e+07
1.98377e+07
1.98401e+07
1.98425e+07
1.98449e+07
1.98471e+07
1.98494e+07
1.98516e+07
1.98537e+07
1.98557e+07
1.98577e+07
1.98596e+07
1.98137e+07
1.98171e+07
1.98203e+07
1.98231e+07
1.98257e+07
1.98282e+07
1.98307e+07
1.98329e+07
1.98353e+07
1.98376e+07
1.98399e+07
1.98422e+07
1.98444e+07
1.98467e+07
1.98489e+07
1.9851e+07
1.98532e+07
1.98552e+07
1.98573e+07
1.98593e+07
1.98101e+07
1.98117e+07
1.98134e+07
1.98151e+07
1.98172e+07
1.98194e+07
1.98219e+07
1.98241e+07
1.98266e+07
1.98291e+07
1.98316e+07
1.98341e+07
1.98365e+07
1.9839e+07
1.98415e+07
1.98438e+07
1.98462e+07
1.98487e+07
1.98512e+07
1.98538e+07
1.9809e+07
1.98108e+07
1.98132e+07
1.98158e+07
1.98182e+07
1.98204e+07
1.98226e+07
1.9825e+07
1.98271e+07
1.98294e+07
1.98316e+07
1.98338e+07
1.9836e+07
1.98383e+07
1.98405e+07
1.98429e+07
1.98453e+07
1.98478e+07
1.98505e+07
1.98532e+07
1.98041e+07
1.98035e+07
1.98033e+07
1.98039e+07
1.98054e+07
1.98072e+07
1.98093e+07
1.98116e+07
1.9814e+07
1.98165e+07
1.98192e+07
1.98219e+07
1.98247e+07
1.98276e+07
1.98306e+07
1.98338e+07
1.9837e+07
1.98404e+07
1.9844e+07
1.98478e+07
1.9803e+07
1.98026e+07
1.98029e+07
1.98039e+07
1.98055e+07
1.98073e+07
1.98094e+07
1.98117e+07
1.9814e+07
1.98165e+07
1.98191e+07
1.98218e+07
1.98245e+07
1.98273e+07
1.98302e+07
1.98333e+07
1.98365e+07
1.98399e+07
1.98435e+07
1.98472e+07
1.98017e+07
1.97998e+07
1.97995e+07
1.98003e+07
1.98016e+07
1.98034e+07
1.98055e+07
1.98077e+07
1.98101e+07
1.98127e+07
1.98154e+07
1.98181e+07
1.9821e+07
1.98239e+07
1.9827e+07
1.98302e+07
1.98336e+07
1.98372e+07
1.9841e+07
1.98451e+07
1.98651e+07
1.98732e+07
1.98825e+07
1.98922e+07
1.99018e+07
1.99115e+07
1.99211e+07
1.99307e+07
1.99402e+07
1.99497e+07
1.99591e+07
1.99685e+07
1.99778e+07
1.9987e+07
1.99962e+07
2.00053e+07
2.00144e+07
2.00234e+07
2.00324e+07
2.00412e+07
2.00501e+07
2.00588e+07
2.00675e+07
2.00761e+07
2.00847e+07
2.00932e+07
2.01016e+07
2.01099e+07
2.01182e+07
2.01264e+07
2.01346e+07
2.01426e+07
2.01507e+07
2.01586e+07
2.01665e+07
2.01743e+07
2.0182e+07
2.01897e+07
2.01973e+07
2.02048e+07
2.02123e+07
2.02197e+07
2.0227e+07
2.02342e+07
2.02414e+07
2.02486e+07
2.02556e+07
2.02626e+07
2.02695e+07
2.02764e+07
2.02832e+07
2.02899e+07
2.02965e+07
2.03031e+07
2.03097e+07
2.03161e+07
2.03225e+07
2.03288e+07
2.03351e+07
2.03413e+07
2.03474e+07
2.03535e+07
2.03595e+07
2.03654e+07
2.03713e+07
2.03771e+07
2.03829e+07
2.03886e+07
2.03942e+07
2.03998e+07
2.04053e+07
2.04107e+07
2.04161e+07
2.04215e+07
2.04267e+07
2.0432e+07
2.04371e+07
2.04422e+07
2.04472e+07
2.04522e+07
2.04571e+07
2.0462e+07
2.04668e+07
2.04715e+07
2.04762e+07
2.04808e+07
2.04854e+07
2.04899e+07
2.04943e+07
2.04987e+07
2.05031e+07
2.05073e+07
2.05116e+07
2.05157e+07
2.05199e+07
2.05239e+07
2.05279e+07
2.05319e+07
2.05358e+07
2.05396e+07
2.05434e+07
2.05472e+07
2.05509e+07
2.05545e+07
2.05581e+07
2.05616e+07
2.05651e+07
2.05685e+07
2.05719e+07
2.05752e+07
2.05785e+07
2.05817e+07
2.05849e+07
2.0588e+07
2.05911e+07
2.05941e+07
2.05971e+07
2.06e+07
2.06029e+07
2.06058e+07
2.06086e+07
2.06113e+07
2.06141e+07
2.06167e+07
2.06194e+07
2.06219e+07
2.06245e+07
2.0627e+07
2.06294e+07
2.06318e+07
2.06342e+07
2.06366e+07
2.06388e+07
2.06411e+07
2.06433e+07
2.06455e+07
2.06476e+07
2.06497e+07
2.06517e+07
2.06537e+07
2.06557e+07
2.06576e+07
2.06595e+07
2.06614e+07
2.06632e+07
2.0665e+07
2.06667e+07
2.06684e+07
2.06701e+07
2.06717e+07
2.06733e+07
2.06748e+07
2.06764e+07
2.06779e+07
2.06793e+07
2.06808e+07
2.06822e+07
2.06835e+07
2.06849e+07
2.06862e+07
2.06875e+07
2.06887e+07
2.06899e+07
2.06911e+07
2.06923e+07
2.06934e+07
2.06946e+07
2.06956e+07
2.06967e+07
2.06977e+07
2.06987e+07
2.06997e+07
2.07006e+07
2.07015e+07
2.07024e+07
2.07033e+07
2.07041e+07
2.07049e+07
2.07057e+07
2.07064e+07
2.07071e+07
2.07078e+07
2.07085e+07
2.07092e+07
2.07098e+07
2.07104e+07
2.0711e+07
2.07116e+07
2.07121e+07
2.07127e+07
2.07132e+07
2.07137e+07
2.07142e+07
2.07147e+07
2.07151e+07
2.07156e+07
2.0716e+07
2.07164e+07
2.07168e+07
2.07172e+07
1.9865e+07
1.98731e+07
1.98825e+07
1.98922e+07
1.99018e+07
1.99115e+07
1.99211e+07
1.99307e+07
1.99402e+07
1.99497e+07
1.99591e+07
1.99685e+07
1.99778e+07
1.9987e+07
1.99962e+07
2.00053e+07
2.00144e+07
2.00234e+07
2.00324e+07
2.00412e+07
2.00501e+07
2.00588e+07
2.00675e+07
2.00761e+07
2.00847e+07
2.00932e+07
2.01016e+07
2.01099e+07
2.01182e+07
2.01264e+07
2.01346e+07
2.01426e+07
2.01507e+07
2.01586e+07
2.01665e+07
2.01743e+07
2.0182e+07
2.01897e+07
2.01973e+07
2.02048e+07
2.02123e+07
2.02197e+07
2.0227e+07
2.02342e+07
2.02414e+07
2.02486e+07
2.02556e+07
2.02626e+07
2.02695e+07