/*--------------------------------*- C++ -*----------------------------------*\
| =========                 |                                                 |
| \\      /  F ield         | OpenFOAM: The Open Source CFD Toolbox           |
|  \\    /   O peration     | Version:  3.0.x                                 |
|   \\  /    A nd           | Web:      www.OpenFOAM.org                      |
|    \\/     M anipulation  |                                                 |
\*---------------------------------------------------------------------------*/
FoamFile
{
    version     2.0;
    format      ascii;
    class       surfaceScalarField;
    location    "0.52005";
    object      phi;
}
// * * * * * * * * * * * * * * * * * * * * * * * * * * * * * * * * * * * * * //

dimensions      [1 0 -1 0 0 0 0];

internalField   nonuniform List<scalar> 
26210
(
6.99278
0.00050445
6.98934
0.000347989
6.98587
0.000340854
6.98236
0.000342743
6.97881
0.000342805
6.97522
0.000342713
6.97158
0.000342806
6.9679
0.000342856
6.96417
0.000342902
6.96038
0.00034295
6.95654
0.000343002
6.95263
0.000343059
6.94865
0.000343122
6.9446
0.00034319
6.94048
0.000343263
6.93628
0.000343343
6.93199
0.000343429
6.92762
0.00034352
6.92316
0.000343618
6.9186
0.000343722
6.91394
0.000343832
6.90918
0.000343949
6.90432
0.000344072
6.89934
0.000344201
6.89425
0.000344337
6.88904
0.000344479
6.88371
0.000344628
6.87826
0.000344784
6.87268
0.000344946
6.86697
0.000345115
6.86113
0.000345291
6.85514
0.000345473
6.84902
0.000345663
6.84275
0.00034586
6.83633
0.000346064
6.82976
0.000346276
6.82303
0.000346494
6.81615
0.00034672
6.8091
0.000346954
6.8019
0.000347195
6.79452
0.000347444
6.78697
0.000347701
6.77925
0.000347966
6.77135
0.000348239
6.76328
0.00034852
6.75501
0.00034881
6.74657
0.000349109
6.73793
0.000349417
6.7291
0.000349734
6.72008
0.000350059
6.71085
0.000350393
6.70143
0.000350737
6.6918
0.000351091
6.68196
0.000351453
6.67191
0.000351826
6.66165
0.000352208
6.65117
0.000352599
6.64047
0.000353001
6.62955
0.000353414
6.61841
0.000353836
6.60703
0.000354266
6.59542
0.000354708
6.58358
0.000355159
6.5715
0.000355622
6.55918
0.000356095
6.54662
0.000356584
6.53381
0.000357088
6.52075
0.000357609
6.50743
0.000358137
6.49386
0.000358675
6.48003
0.000359214
6.46594
0.000359758
6.45158
0.000360315
6.43695
0.000360892
6.42205
0.000361499
6.40688
0.000362122
6.39142
0.000362755
6.37569
0.00036339
6.35968
0.000364037
6.34338
0.000364704
6.32679
0.000365386
6.30992
0.000366102
6.29275
0.000366839
6.27529
0.000367595
6.25752
0.000368365
6.23945
0.000369143
6.22107
0.000369933
6.20237
0.000370748
6.18337
0.000371587
6.16404
0.00037243
6.1444
0.000373278
6.12444
0.000374109
6.10415
0.000374962
6.08354
0.000375825
6.06259
0.000376719
6.04132
0.000377628
6.01972
0.000378535
5.99778
0.000379452
5.97551
0.000380374
5.95291
0.000381325
5.92996
0.000382333
5.90668
0.000383396
5.88306
0.000384468
5.85909
0.000385551
5.83477
0.0003866
5.8101
0.000387635
5.78509
0.000388653
5.75973
0.000389702
5.73402
0.000390795
5.70796
0.000391917
5.68156
0.000393062
5.6548
0.000394239
5.62769
0.000395441
5.60024
0.000396661
5.57243
0.000397885
5.54427
0.000399094
5.51576
0.000400295
5.4869
0.000401519
5.45769
0.000402767
5.42814
0.000404002
5.39824
0.000405174
5.36799
0.000406269
5.33741
0.000407306
5.30648
0.000408314
5.27523
0.000409283
5.24363
0.000410172
5.21171
0.000410932
5.17947
0.000411544
5.14691
0.000412017
5.11403
0.000412361
5.08084
0.000412576
5.04734
0.000412627
5.01354
0.000412467
4.97945
0.000412033
4.94505
0.000411262
4.91037
0.000410096
4.87541
0.00040848
4.84017
0.000406376
4.80466
0.000403745
4.76888
0.000400559
4.73286
0.000396783
4.69658
0.000392378
4.66007
0.000387322
4.62332
0.000381586
4.58636
0.000375167
4.54918
0.000368061
4.5118
0.000360275
4.47422
0.000351827
4.43645
0.000342731
4.39851
0.000333031
4.3604
0.000322759
4.32213
0.000311976
4.28372
0.000300734
4.24517
0.000289103
4.20648
0.000277148
4.16768
0.000264957
4.12877
0.000252594
4.08976
0.000240166
4.05066
0.000227735
4.01148
0.000215403
3.97223
0.000203235
3.93293
0.000191321
3.89356
0.000179719
3.85416
0.000168513
3.81473
0.00015774
3.77527
0.000147472
3.7358
0.000137715
3.69633
0.000128531
3.65687
0.0001199
3.61741
0.000111887
3.57799
0.000104418
3.53859
9.75976e-05
3.49924
9.12567e-05
3.45994
8.55632e-05
3.42069
8.03192e-05
3.38152
7.5553e-05
3.34241
7.14924e-05
3.3034
6.72553e-05
3.26447
6.45275e-05
3.22565
6.04548e-05
3.18694
5.90556e-05
3.14834
5.4967e-05
3.10986
5.48246e-05
3.07152
5.02051e-05
3.03331
5.19992e-05
2.99526
4.57131e-05
2.95735
5.0259e-05
2.91962
4.17933e-05
2.88203
4.87224e-05
2.84464
3.87524e-05
2.8074
4.77333e-05
2.77037
3.79886e-05
2.73351
5.52157e-05
2.69682
7.96575e-05
2.66016
0.000256357
2.62293
0.00103296
2.58227
0.00469023
2.52509
0.0213784
2.37421
0.115412
0.34012
1.9988
9.89038
0.000460258
9.88602
0.000331063
9.88162
0.00031615
9.87716
0.000319781
9.87265
0.000320029
9.86807
0.000319875
9.86344
0.000319972
9.85874
0.00032005
9.85397
0.000320118
9.84911
0.000320187
9.84418
0.00032026
9.83916
0.000320337
9.83404
0.000320419
9.82882
0.000320506
9.8235
0.000320598
9.81806
0.000320696
9.81251
0.000320799
9.80683
0.000320909
9.80102
0.000321024
9.79508
0.000321144
9.789
0.000321271
9.78278
0.000321404
9.7764
0.000321542
9.76987
0.000321686
9.76318
0.000321837
9.75633
0.000321993
9.7493
0.000322156
9.7421
0.000322326
9.73471
0.000322501
9.72714
0.000322682
9.71939
0.00032287
9.71143
0.000323065
9.70328
0.000323266
9.69492
0.000323474
9.68635
0.000323688
9.67757
0.00032391
9.66857
0.000324138
9.65935
0.000324373
9.64989
0.000324615
9.64021
0.000324864
9.63029
0.00032512
9.62013
0.000325385
9.60972
0.000325656
9.59906
0.000325935
9.58815
0.000326222
9.57698
0.000326518
9.56555
0.000326821
9.55385
0.000327133
9.54188
0.000327453
9.52963
0.000327782
9.5171
0.000328119
9.50429
0.000328465
9.49119
0.00032882
9.47779
0.000329183
9.4641
0.000329556
9.4501
0.000329938
9.4358
0.000330329
9.42119
0.000330729
9.40627
0.000331139
9.39103
0.000331559
9.37546
0.000331986
9.35957
0.000332424
9.34334
0.000332871
9.32678
0.00033333
9.30988
0.000333798
9.29264
0.00033428
9.27504
0.000334776
9.2571
0.000335288
9.2388
0.000335807
9.22014
0.000336337
9.20111
0.000336867
9.1817
0.000337403
9.16192
0.000337951
9.14176
0.000338517
9.12122
0.00033911
9.10029
0.000339719
9.07897
0.000340338
9.05726
0.000340957
9.03514
0.00034159
9.01263
0.000342241
8.98971
0.000342907
8.96639
0.000343604
8.94265
0.000344321
8.91849
0.000345056
8.8939
0.000345805
8.86889
0.00034656
8.84343
0.000347327
8.81754
0.000348117
8.79121
0.000348929
8.76443
0.000349745
8.7372
0.000350567
8.70952
0.000351374
8.68138
0.000352202
8.65278
0.000353039
8.62371
0.000353904
8.59418
0.000354783
8.56419
0.00035566
8.53372
0.000356548
8.50278
0.000357442
8.47137
0.000358363
8.43949
0.000359337
8.40713
0.000360362
8.37428
0.000361395
8.34095
0.000362438
8.30712
0.00036345
8.27281
0.00036445
8.23801
0.000365436
8.20271
0.000366451
8.16693
0.000367506
8.13065
0.000368588
8.09388
0.000369692
8.05662
0.000370825
8.01887
0.00037198
7.98062
0.000373154
7.94188
0.00037433
7.90264
0.000375493
7.86291
0.000376645
7.82268
0.000377817
7.78197
0.00037901
7.74077
0.000380188
7.69908
0.000381305
7.6569
0.000382347
7.61425
0.000383333
7.57111
0.000384282
7.52751
0.000385189
7.48343
0.00038601
7.43889
0.000386703
7.3939
0.000387244
7.34845
0.000387646
7.30255
0.00038791
7.25622
0.00038804
7.20945
0.000387995
7.16226
0.000387733
7.11464
0.000387188
7.06661
0.000386305
7.01817
0.000385026
6.96932
0.000383298
6.92008
0.000381087
6.87046
0.000378353
6.82046
0.000375072
6.77009
0.000371213
6.71937
0.000366738
6.6683
0.000361636
6.6169
0.000355873
6.56518
0.000349461
6.51314
0.000342394
6.46081
0.00033468
6.40818
0.000326356
6.35528
0.000317419
6.30212
0.000307941
6.2487
0.000297937
6.19505
0.000287483
6.14117
0.000276628
6.08708
0.000265448
6.03279
0.000253996
5.97831
0.000242381
5.92366
0.000230635
5.86885
0.000218896
5.8139
0.000207188
5.75881
0.000195635
5.70361
0.000184276
5.6483
0.00017321
5.59291
0.000162468
5.53744
0.000152153
5.48191
0.000142263
5.42633
0.00013289
5.37072
0.000124011
5.31509
0.000115695
5.25946
0.00010791
5.20383
0.000100706
5.14823
9.40379e-05
5.09267
8.79258e-05
5.03715
8.23651e-05
4.98169
7.71889e-05
4.92631
7.28359e-05
4.87103
6.81589e-05
4.81583
6.54303e-05
4.76076
6.04611e-05
4.7058
5.9831e-05
4.65099
5.40407e-05
4.59632
5.55365e-05
4.54182
4.88296e-05
4.48748
5.24597e-05
4.43334
4.37075e-05
4.37938
5.14396e-05
4.32564
3.79676e-05
4.27209
5.19057e-05
4.21879
3.27313e-05
4.1657
5.20406e-05
4.11288
2.89541e-05
4.06029
5.2964e-05
4.00798
3.02537e-05
3.9559
7.42397e-05
3.90408
0.000134288
3.85228
0.000572625
3.79966
0.00245438
3.74208
0.0113908
3.66071
0.0521583
3.45564
0.270247
0.780443
2.96536
13.9871
0.000401684
13.9809
0.000304158
13.9747
0.000281965
13.9684
0.000287028
13.962
0.000287555
13.9556
0.000287313
13.949
0.000287386
13.9424
0.00028747
13.9356
0.000287535
13.9288
0.000287599
13.9218
0.000287666
13.9147
0.000287736
13.9074
0.000287811
13.9001
0.000287889
13.8925
0.000287973
13.8848
0.000288061
13.877
0.000288154
13.869
0.000288252
13.8607
0.000288356
13.8523
0.000288464
13.8437
0.000288578
13.8349
0.000288698
13.8259
0.000288822
13.8167
0.000288952
13.8072
0.000289087
13.7975
0.000289228
13.7876
0.000289375
13.7774
0.000289527
13.767
0.000289684
13.7563
0.000289848
13.7453
0.000290016
13.7341
0.000290191
13.7225
0.000290372
13.7107
0.000290558
13.6986
0.000290751
13.6862
0.00029095
13.6734
0.000291155
13.6604
0.000291366
13.647
0.000291583
13.6333
0.000291807
13.6193
0.000292037
13.6049
0.000292274
13.5902
0.000292518
13.5752
0.000292769
13.5597
0.000293027
13.5439
0.000293292
13.5278
0.000293564
13.5112
0.000293844
13.4943
0.000294132
13.477
0.000294427
13.4593
0.00029473
13.4411
0.00029504
13.4226
0.000295359
13.4037
0.000295686
13.3843
0.000296021
13.3645
0.000296364
13.3443
0.000296715
13.3236
0.000297074
13.3025
0.000297442
13.281
0.000297819
13.259
0.000298203
13.2365
0.000298597
13.2136
0.000298999
13.1901
0.00029941
13.1662
0.000299831
13.1419
0.000300264
13.117
0.000300709
13.0916
0.000301168
13.0657
0.000301635
13.0393
0.00030211
13.0124
0.000302587
12.985
0.000303069
12.957
0.000303562
12.9285
0.000304071
12.8995
0.000304603
12.8699
0.00030515
12.8397
0.000305705
12.809
0.000306261
12.7777
0.000306829
12.7459
0.000307414
12.7135
0.000308013
12.6805
0.000308639
12.6469
0.000309283
12.6128
0.000309944
12.578
0.000310617
12.5426
0.000311296
12.5066
0.000311985
12.47
0.000312694
12.4328
0.000313423
12.3949
0.000314155
12.3564
0.000314893
12.3173
0.000315619
12.2775
0.000316364
12.237
0.000317117
12.1959
0.000317893
12.1542
0.000318682
12.1118
0.00031947
12.0687
0.000320267
12.0249
0.000321071
11.9805
0.0003219
11.9354
0.000322775
11.8897
0.000323695
11.8432
0.000324622
11.7961
0.000325557
11.7483
0.000326467
11.6997
0.000327366
11.6505
0.000328253
11.6006
0.000329166
11.55
0.000330114
11.4987
0.000331087
11.4467
0.000332078
11.394
0.000333096
11.3406
0.000334133
11.2865
0.000335189
11.2318
0.000336245
11.1763
0.00033729
11.1201
0.000338326
11.0632
0.000339378
11.0056
0.000340448
10.9474
0.000341506
10.8884
0.000342511
10.8288
0.000343448
10.7685
0.000344338
10.7075
0.000345191
10.6458
0.000346009
10.5835
0.000346744
10.5205
0.000347369
10.4569
0.000347856
10.3926
0.000348222
10.3277
0.000348462
10.2622
0.000348584
10.196
0.000348547
10.1293
0.000348317
10.062
0.000347831
9.99405
0.000347043
9.92554
0.0003459
9.85647
0.000344355
9.78684
0.000342379
9.71666
0.000339931
9.64595
0.000336993
9.57472
0.000333537
9.50299
0.000329525
9.43077
0.000324957
9.35808
0.000319788
9.28493
0.000314044
9.21134
0.00030771
9.13733
0.00030079
9.0629
0.000293334
8.98808
0.000285309
8.91289
0.000276814
8.83735
0.000267833
8.76146
0.000258454
8.68526
0.000248709
8.60876
0.000238677
8.53197
0.000228387
8.45492
0.000217971
8.37762
0.000207407
8.3001
0.000196878
8.22238
0.000186349
8.14447
0.000175978
8.0664
0.000165763
7.98817
0.000155828
7.90983
0.000146161
7.83137
0.000136901
7.75283
0.000127997
7.67423
0.000119577
7.59557
0.000111585
7.5169
0.000104106
7.43821
9.71067e-05
7.35954
9.06075e-05
7.2809
8.46413e-05
7.20232
7.90687e-05
7.1238
7.41979e-05
7.04537
6.92795e-05
6.96705
6.58314e-05
6.88885
6.07992e-05
6.8108
5.96819e-05
6.73291
5.32077e-05
6.65519
5.53412e-05
6.57767
4.67052e-05
6.50035
5.21364e-05
6.42328
4.13624e-05
6.34643
5.02655e-05
6.26986
3.52468e-05
6.19354
5.1541e-05
6.11754
2.73019e-05
6.04181
5.49758e-05
5.96644
1.98524e-05
5.89136
5.73674e-05
5.81666
1.47753e-05
5.74228
6.08541e-05
5.6683
1.86091e-05
5.59466
0.000100447
5.52138
0.000205488
5.44815
0.000994323
5.37385
0.00434113
5.29299
0.0202967
5.1809
0.0927071
4.9074
0.472692
1.35862
4.25857
61.742
0.000184821
61.7149
0.00015957
61.6874
0.000139823
61.6595
0.000142964
61.6313
0.000144101
61.6028
0.000143822
61.5739
0.00014376
61.5445
0.000143795
61.5147
0.000143817
61.4844
0.000143838
61.4536
0.000143863
61.4223
0.000143892
61.3903
0.000143925
61.3578
0.00014396
61.3245
0.000143998
61.2906
0.000144039
61.2559
0.000144083
61.2205
0.000144131
61.1842
0.000144181
61.1472
0.000144234
61.1092
0.00014429
61.0704
0.000144349
61.0306
0.000144411
60.9898
0.000144475
60.948
0.000144543
60.9052
0.000144613
60.8614
0.000144686
60.8164
0.000144762
60.7703
0.00014484
60.7231
0.000144922
60.6747
0.000145006
60.625
0.000145093
60.5741
0.000145183
60.5219
0.000145277
60.4685
0.000145373
60.4136
0.000145472
60.3575
0.000145574
60.2999
0.00014568
60.2409
0.000145788
60.1805
0.000145899
60.1185
0.000146014
60.0551
0.000146132
59.9901
0.000146254
59.9236
0.000146378
59.8555
0.000146507
59.7858
0.000146639
59.7144
0.000146775
59.6414
0.000146915
59.5667
0.000147059
59.4902
0.000147206
59.412
0.000147358
59.332
0.000147512
59.2503
0.000147672
59.1666
0.000147835
59.0812
0.000148002
58.9938
0.000148174
58.9046
0.000148349
58.8134
0.000148528
58.7202
0.000148712
58.6251
0.000148901
58.5279
0.000149093
58.4287
0.00014929
58.3274
0.000149491
58.224
0.000149697
58.1186
0.000149907
58.0109
0.000150122
57.9011
0.000150344
57.7891
0.000150573
57.6748
0.000150806
57.5584
0.000151044
57.4396
0.000151283
57.3185
0.000151525
57.195
0.000151772
57.0692
0.000152027
56.9409
0.000152292
56.8103
0.000152564
56.6772
0.000152841
56.5417
0.000153118
56.4036
0.000153402
56.2631
0.000153695
56.1201
0.000153995
55.9745
0.000154308
55.8263
0.000154631
55.6755
0.000154961
55.522
0.000155298
55.3658
0.000155638
55.207
0.000155982
55.0454
0.000156336
54.881
0.000156699
54.7138
0.000157065
54.5439
0.000157434
54.3711
0.000157798
54.1954
0.000158171
54.0169
0.000158549
53.8355
0.000158936
53.6511
0.00015933
53.4639
0.000159723
53.2737
0.000160121
53.0806
0.000160524
52.8845
0.00016094
52.6855
0.000161378
52.4835
0.000161837
52.2785
0.0001623
52.0704
0.000162765
51.8593
0.000163219
51.6451
0.00016367
51.4278
0.000164115
51.2075
0.000164575
50.9842
0.000165047
50.7577
0.000165538
50.5282
0.000166029
50.2956
0.000166542
50.0599
0.000167055
49.8212
0.000167588
49.5794
0.000168112
49.3344
0.000168641
49.0864
0.000169153
48.8354
0.000169686
48.5812
0.000170211
48.324
0.000170746
48.0638
0.000171244
47.8005
0.000171721
47.5343
0.000172167
47.265
0.000172599
46.9928
0.000173007
46.7177
0.000173377
46.4397
0.000173689
46.1588
0.000173937
45.8751
0.000174123
45.5886
0.000174253
45.2994
0.000174312
45.0075
0.000174315
44.7129
0.000174184
44.4157
0.000173977
44.1158
0.000173556
43.8134
0.000173033
43.5085
0.000172236
43.2012
0.000171293
42.8914
0.00017006
42.5793
0.00016862
42.2648
0.000166896
41.9482
0.000164916
41.6294
0.000162634
41.3086
0.000160086
40.9857
0.000157212
40.6608
0.000154088
40.3341
0.000150622
40.0056
0.000146935
39.6753
0.00014292
39.3434
0.000138706
39.0099
0.000134208
38.675
0.000129558
38.3386
0.000124659
38.0009
0.000119695
37.6619
0.000114502
37.3218
0.00010936
36.9806
0.000104009
36.6384
9.8815e-05
36.2953
9.34799e-05
35.9514
8.83506e-05
35.6068
8.3178e-05
35.2615
7.82625e-05
34.9157
7.3348e-05
34.5693
6.87858e-05
34.2226
6.42376e-05
33.8757
6.00885e-05
33.5285
5.60156e-05
33.1812
5.23067e-05
32.8339
4.87571e-05
32.4866
4.55074e-05
32.1395
4.253e-05
31.7926
3.96012e-05
31.446
3.7526e-05
31.0998
3.41259e-05
30.754
3.43695e-05
30.4089
2.80991e-05
30.0643
3.3948e-05
29.7205
2.0892e-05
29.3774
3.5413e-05
29.0352
1.38885e-05
28.6939
3.7362e-05
28.3537
7.47335e-06
28.0145
4.18796e-05
27.6765
-4.66865e-06
27.3396
5.56992e-05
27.0041
-2.52571e-05
26.6699
7.54162e-05
26.3371
-4.54021e-05
26.0057
9.02277e-05
25.676
-5.8028e-05
25.3476
0.000105829
25.0211
-4.50878e-05
24.696
0.000216179
24.3726
0.00046881
24.0495
0.00262799
23.7226
0.0117387
23.3703
0.0548736
22.9013
0.245981
21.98
1.08028
3.07313
19.9538
61.742
1.13687e-12
61.7148
0
61.6873
0
61.6595
1.81899e-12
61.6313
2.04636e-12
61.6028
1.13687e-12
61.5738
-1.36424e-12
61.5445
-2.27374e-13
61.5147
-4.54747e-13
61.4844
3.41061e-12
61.4536
1.36424e-12
61.4223
0
61.3903
2.27374e-13
61.3577
-1.13687e-12
61.3245
-1.36424e-12
61.2906
-6.82121e-13
61.2559
-4.54747e-13
61.2205
-1.81899e-12
61.1842
-2.27374e-13
61.1471
-6.82121e-13
61.1092
-4.54747e-13
61.0703
-2.27374e-13
61.0305
-1.59162e-12
60.9898
-2.27374e-12
60.948
-1.59162e-12
60.9052
-1.36424e-12
60.8614
-2.27374e-13
60.8164
-4.54747e-13
60.7703
-1.36424e-12
60.7231
2.27374e-13
60.6746
-1.13687e-12
60.625
4.54747e-13
60.5741
1.13687e-12
60.5219
-9.09495e-13
60.4684
2.27374e-13
60.4136
2.27374e-13
60.3574
2.50111e-12
60.2999
-2.27374e-13
60.2409
-9.09495e-13
60.1804
-4.54747e-13
60.1185
-1.81899e-12
60.0551
-2.95586e-12
59.9901
-1.81899e-12
59.9236
2.27374e-13
59.8555
2.27374e-13
59.7858
-9.09495e-13
59.7144
-2.27374e-13
59.6414
0
59.5666
0
59.4902
4.54747e-13
59.412
-6.82121e-13
59.332
-2.27374e-13
59.2502
-1.81899e-12
59.1666
-1.59162e-12
59.0811
-1.81899e-12
58.9938
2.27374e-13
58.9045
-2.27374e-13
58.8133
0
58.7202
-6.82121e-13
58.625
-4.54747e-13
58.5279
-9.09495e-13
58.4287
6.82121e-13
58.3274
0
58.224
-6.82121e-13
58.1185
-1.36424e-12
58.0109
-9.09495e-13
57.9011
-1.36424e-12
57.789
-1.36424e-12
57.6748
0
57.5583
-1.36424e-12
57.4395
-1.81899e-12
57.3184
-2.04636e-12
57.195
-9.09495e-13
57.0691
-4.54747e-13
56.9409
9.09495e-13
56.8103
-6.82121e-13
56.6772
-2.27374e-13
56.5416
2.27374e-13
56.4036
0
56.2631
-9.09495e-13
56.12
-1.81899e-12
55.9744
-1.81899e-12
55.8262
-1.59162e-12
55.6754
2.27374e-13
55.522
4.54747e-13
55.3658
-2.27374e-12
55.2069
-3.63798e-12
55.0453
-2.72848e-12
54.881
-1.81899e-12
54.7138
-2.04636e-12
54.5438
1.13687e-12
54.371
-1.36424e-12
54.1954
6.82121e-13
54.0168
-3.18323e-12
53.8354
2.27374e-13
53.6511
-9.09495e-13
53.4639
6.82121e-13
53.2737
-2.27374e-12
53.0806
-4.54747e-13
52.8845
-2.27374e-12
52.6855
-4.54747e-13
52.4835
0
52.2784
-6.36646e-12
52.0704
1.5234e-11
51.8593
-3.54703e-11
51.6451
6.2073e-11
51.4278
-9.91349e-11
51.2075
1.37788e-10
50.9841
-1.80535e-10
50.7577
2.05091e-10
50.5282
-2.14413e-10
50.2956
1.92131e-10
50.0599
-1.42791e-10
49.8212
8.39009e-11
49.5793
-4.45652e-11
49.3344
4.18368e-11
49.0864
-8.34461e-11
48.8353
9.84528e-11
48.5812
-5.00222e-12
48.324
-3.38787e-10
48.0638
9.59517e-10
47.8005
-1.75464e-09
47.5342
2.39629e-09
47.265
-2.59456e-09
46.9928
2.47564e-09
46.7177
-2.73576e-09
46.4397
3.92106e-09
46.1588
-5.69094e-09
45.8751
6.96991e-09
45.5886
-7.00084e-09
45.2994
5.92058e-09
45.0075
-4.35807e-09
44.7129
2.9072e-09
44.4156
-1.78989e-09
44.1158
5.53428e-10
43.8134
8.81528e-10
43.5085
-1.62231e-09
43.2011
9.33596e-10
42.8914
9.49512e-10
42.5792
-3.23621e-09
42.2648
4.77985e-09
41.9482
-5.33009e-09
41.6294
5.49448e-09
41.3085
-4.70345e-09
40.9856
2.39129e-09
40.6608
1.20212e-09
40.3341
-4.91468e-09
40.0055
6.47469e-09
39.6753
-5.89284e-09
39.3434
4.80213e-09
39.0099
-4.94924e-09
38.6749
6.82758e-09
38.3386
-9.8596e-09
38.0009
1.40672e-08
37.6619
-1.84953e-08
37.3218
2.11826e-08
36.9806
-1.99409e-08
36.6384
1.59846e-08
36.2953
-1.41722e-08
35.9514
1.70617e-08
35.6068
-2.22433e-08
35.2615
2.69492e-08
34.9156
-2.81552e-08
34.5693
2.26253e-08
34.2226
-8.08564e-09
33.8757
-1.84923e-08
33.5285
6.12854e-08
33.1812
-1.32291e-07
32.8338
2.52451e-07
32.4866
-4.4683e-07
32.1394
7.5838e-07
31.7926
-1.2718e-06
31.446
2.11504e-06
31.0998
-3.4717e-06
30.754
5.54153e-06
30.4089
-8.43795e-06
30.0643
1.23192e-05
29.7205
-1.65558e-05
29.3774
2.09228e-05
29.0352
-2.56393e-05
28.6939
3.05703e-05
28.3537
-3.69436e-05
28.0145
4.68466e-05
27.6765
-6.14739e-05
27.3396
8.02249e-05
27.0041
-0.000101347
26.6698
0.00012212
26.3371
-0.00013981
26.0057
0.000154896
25.676
-0.000166489
25.3476
0.000185886
25.0211
-0.000157349
24.6961
0.000328144
24.3729
0.000484028
24.0508
0.00331277
23.7283
0.0145993
23.3958
0.0696808
23.0049
0.321098
22.283
1.48852
4.38702
20.6572
61.742
-0.000184821
61.7148
-0.00015957
61.6873
-0.000139823
61.6595
-0.000142964
61.6313
-0.000144101
61.6028
-0.000143822
61.5738
-0.00014376
61.5445
-0.000143795
61.5147
-0.000143817
61.4844
-0.000143838
61.4536
-0.000143863
61.4223
-0.000143892
61.3903
-0.000143925
61.3577
-0.00014396
61.3245
-0.000143998
61.2906
-0.000144039
61.2559
-0.000144083
61.2205
-0.000144131
61.1842
-0.000144181
61.1471
-0.000144234
61.1092
-0.00014429
61.0703
-0.000144349
61.0305
-0.000144411
60.9898
-0.000144475
60.948
-0.000144543
60.9052
-0.000144613
60.8614
-0.000144686
60.8164
-0.000144762
60.7703
-0.00014484
60.7231
-0.000144922
60.6746
-0.000145006
60.625
-0.000145093
60.5741
-0.000145183
60.5219
-0.000145277
60.4684
-0.000145373
60.4136
-0.000145472
60.3574
-0.000145574
60.2999
-0.00014568
60.2409
-0.000145788
60.1804
-0.000145899
60.1185
-0.000146014
60.0551
-0.000146132
59.9901
-0.000146254
59.9236
-0.000146378
59.8555
-0.000146507
59.7858
-0.000146639
59.7144
-0.000146775
59.6414
-0.000146915
59.5666
-0.000147059
59.4902
-0.000147206
59.412
-0.000147358
59.332
-0.000147512
59.2502
-0.000147672
59.1666
-0.000147835
59.0811
-0.000148002
58.9938
-0.000148174
58.9045
-0.000148349
58.8133
-0.000148528
58.7202
-0.000148712
58.625
-0.000148901
58.5279
-0.000149093
58.4287
-0.00014929
58.3274
-0.000149491
58.224
-0.000149697
58.1185
-0.000149907
58.0109
-0.000150122
57.9011
-0.000150344
57.789
-0.000150573
57.6748
-0.000150806
57.5583
-0.000151044
57.4395
-0.000151283
57.3184
-0.000151525
57.195
-0.000151772
57.0691
-0.000152027
56.9409
-0.000152292
56.8103
-0.000152564
56.6772
-0.000152841
56.5416
-0.000153118
56.4036
-0.000153402
56.2631
-0.000153695
56.12
-0.000153995
55.9744
-0.000154308
55.8262
-0.000154631
55.6754
-0.000154961
55.522
-0.000155298
55.3658
-0.000155638
55.2069
-0.000155982
55.0453
-0.000156336
54.881
-0.000156699
54.7138
-0.000157065
54.5438
-0.000157434
54.371
-0.000157798
54.1954
-0.000158171
54.0168
-0.000158549
53.8354
-0.000158936
53.6511
-0.00015933
53.4639
-0.000159723
53.2737
-0.000160121
53.0806
-0.000160524
52.8845
-0.00016094
52.6855
-0.000161379
52.4835
-0.000161837
52.2784
-0.0001623
52.0704
-0.000162764
51.8593
-0.00016322
51.6451
-0.000163669
51.4278
-0.000164117
51.2075
-0.000164573
50.9841
-0.00016505
50.7577
-0.000165534
50.5282
-0.000166032
50.2956
-0.000166538
50.0599
-0.000167059
49.8212
-0.000167585
49.5793
-0.000168116
49.3344
-0.000168637
49.0864
-0.000169159
48.8353
-0.00016968
48.5812
-0.000170217
48.324
-0.000170741
48.0638
-0.000171247
47.8005
-0.000171719
47.5342
-0.000172166
47.265
-0.000172601
46.9928
-0.000173004
46.7177
-0.000173382
46.4397
-0.000173682
46.1588
-0.000173947
45.8751
-0.000174111
45.5886
-0.000174266
45.2994
-0.0001743
45.0075
-0.000174325
44.7129
-0.000174176
44.4156
-0.000173981
44.1158
-0.000173558
43.8134
-0.000173025
43.5085
-0.000172249
43.2011
-0.000171279
42.8914
-0.000170073
42.5792
-0.000168611
42.2648
-0.000166903
41.9482
-0.000164911
41.6294
-0.000162636
41.3085
-0.000160085
40.9856
-0.000157214
40.6608
-0.00015408
40.3341
-0.000150638
40.0055
-0.000146914
39.6753
-0.000142942
39.3434
-0.000138686
39.0099
-0.000134226
38.6749
-0.000129539
38.3386
-0.00012468
38.0009
-0.000119666
37.6619
-0.000114544
37.3218
-0.000109304
36.9806
-0.000104072
36.6384
-9.87544e-05
36.2953
-9.35326e-05
35.9514
-8.83045e-05
35.6068
-8.32235e-05
35.2615
-7.82092e-05
34.9156
-7.34126e-05
34.5693
-6.8715e-05
34.2226
-6.43041e-05
33.8757
-6.00385e-05
33.5285
-5.6037e-05
33.1812
-5.23356e-05
32.8339
-4.86348e-05
32.4866
-4.5789e-05
32.1395
-4.1992e-05
31.7925
-4.05758e-05
31.446
-3.57821e-05
31.0998
-3.73038e-05
30.754
-2.86335e-05
30.4089
-3.8037e-05
30.0643
-1.72585e-05
29.7205
-4.59941e-05
29.3774
-5.89853e-08
29.0352
-6.10089e-05
28.694
2.08338e-05
28.3537
-7.52606e-05
28.0145
3.45191e-05
27.6764
-8.04124e-05
27.3397
3.81646e-05
27.004
-7.91759e-05
26.6699
4.18759e-05
26.337
-8.56348e-05
26.0058
5.72485e-05
25.6759
-0.000106378
25.3477
9.75675e-05
25.0211
-0.000132677
24.6961
0.000274597
24.3732
0.000300753
24.0523
0.00279088
23.7354
0.0118646
23.4289
0.0586164
23.1557
0.278435
22.9199
1.4104
3.71032
23.2846
61.742
-0.000401684
61.7149
-0.000304158
61.6874
-0.000281965
61.6595
-0.000287028
61.6313
-0.000287555
61.6028
-0.000287313
61.5739
-0.000287386
61.5445
-0.00028747
61.5147
-0.000287535
61.4844
-0.000287599
61.4536
-0.000287666
61.4223
-0.000287736
61.3903
-0.000287811
61.3578
-0.000287889
61.3245
-0.000287973
61.2906
-0.000288061
61.2559
-0.000288154
61.2205
-0.000288252
61.1842
-0.000288356
61.1472
-0.000288464
61.1092
-0.000288578
61.0704
-0.000288698
61.0306
-0.000288822
60.9898
-0.000288952
60.948
-0.000289087
60.9052
-0.000289228
60.8614
-0.000289375
60.8164
-0.000289527
60.7703
-0.000289684
60.7231
-0.000289848
60.6747
-0.000290016
60.625
-0.000290191
60.5741
-0.000290372
60.5219
-0.000290558
60.4685
-0.000290751
60.4136
-0.00029095
60.3575
-0.000291155
60.2999
-0.000291366
60.2409
-0.000291583
60.1805
-0.000291807
60.1185
-0.000292037
60.0551
-0.000292274
59.9901
-0.000292518
59.9236
-0.000292769
59.8555
-0.000293027
59.7858
-0.000293292
59.7144
-0.000293564
59.6414
-0.000293844
59.5667
-0.000294132
59.4902
-0.000294427
59.412
-0.00029473
59.332
-0.00029504
59.2503
-0.000295359
59.1666
-0.000295686
59.0812
-0.000296021
58.9938
-0.000296364
58.9046
-0.000296715
58.8134
-0.000297074
58.7202
-0.000297442
58.6251
-0.000297819
58.5279
-0.000298203
58.4287
-0.000298597
58.3274
-0.000298999
58.224
-0.00029941
58.1186
-0.000299831
58.0109
-0.000300264
57.9011
-0.000300709
57.7891
-0.000301168
57.6748
-0.000301635
57.5584
-0.00030211
57.4396
-0.000302587
57.3185
-0.000303069
57.195
-0.000303562
57.0692
-0.000304071
56.9409
-0.000304603
56.8103
-0.00030515
56.6772
-0.000305705
56.5417
-0.000306261
56.4036
-0.000306829
56.2631
-0.000307414
56.1201
-0.000308013
55.9745
-0.000308639
55.8263
-0.000309283
55.6755
-0.000309944
55.522
-0.000310617
55.3658
-0.000311296
55.207
-0.000311985
55.0454
-0.000312694
54.881
-0.000313423
54.7138
-0.000314155
54.5439
-0.000314893
54.3711
-0.000315619
54.1954
-0.000316364
54.0169
-0.000317117
53.8355
-0.000317893
53.6511
-0.000318682
53.4639
-0.00031947
53.2737
-0.000320267
53.0806
-0.000321071
52.8845
-0.0003219
52.6855
-0.000322775
52.4835
-0.000323695
52.2785
-0.000324622
52.0704
-0.000325557
51.8593
-0.000326467
51.6451
-0.000327366
51.4278
-0.000328253
51.2075
-0.000329166
50.9842
-0.000330114
50.7577
-0.000331088
50.5282
-0.000332077
50.2956
-0.000333097
50.0599
-0.000334132
49.8212
-0.00033519
49.5794
-0.000336244
49.3344
-0.000337292
49.0864
-0.000338325
48.8354
-0.000339379
48.5812
-0.000340448
48.324
-0.000341506
48.0638
-0.00034251
47.8005
-0.000343449
47.5343
-0.000344337
47.265
-0.000345192
46.9928
-0.000346008
46.7177
-0.000346747
46.4397
-0.000347366
46.1588
-0.000347861
45.8751
-0.000348215
45.5886
-0.00034847
45.2994
-0.000348576
45.0075
-0.000348555
44.7129
-0.000348307
44.4157
-0.00034784
44.1158
-0.000347035
43.8134
-0.000345906
43.5085
-0.000344351
43.2012
-0.000342382
42.8914
-0.000339927
42.5793
-0.000336998
42.2648
-0.00033353
41.9482
-0.000329533
41.6294
-0.000324948
41.3086
-0.000319796
40.9857
-0.000314039
40.6608
-0.000307711
40.3341
-0.000300794
40.0056
-0.000293326
39.6753
-0.00028532
39.3434
-0.000276804
39.0099
-0.000267841
38.675
-0.000258448
38.3386
-0.000248715
38.0009
-0.00023867
37.6619
-0.000228398
37.3218
-0.000217957
36.9806
-0.000207422
36.6384
-0.000196864
36.2953
-0.000186359
35.9514
-0.000175972
35.6068
-0.000165764
35.2615
-0.000155828
34.9157
-0.000146162
34.5693
-0.000136898
34.2226
-0.000128
33.8757
-0.000119581
33.5285
-0.000111563
33.1812
-0.000104167
32.8339
-9.69759e-05
32.4866
-9.08549e-05
32.1395
-8.42121e-05
31.7926
-7.97739e-05
31.446
-7.3089e-05
31.0998
-7.09942e-05
30.754
-6.32037e-05
30.4088
-6.476e-05
30.0643
-5.37196e-05
29.7205
-6.1562e-05
29.3774
-4.4137e-05
29.0352
-6.12433e-05
28.694
-3.43883e-05
28.3537
-6.20593e-05
28.0145
-2.66608e-05
27.6764
-6.19726e-05
27.3397
-2.14459e-05
27.0041
-6.15741e-05
26.6699
-1.55452e-05
26.3371
-6.48225e-05
26.0058
-6.34076e-06
25.6759
-7.07542e-05
25.3478
6.17495e-06
25.021
-7.18944e-05
24.6963
6.38735e-05
24.3733
9.40733e-05
24.0537
0.000988781
23.7417
0.00440146
23.4602
0.022277
23.3093
0.113607
23.5599
0.845657
2.05146
24.9067
13.9871
-0.000460258
13.9809
-0.000331063
13.9747
-0.00031615
13.9684
-0.000319781
13.962
-0.000320029
13.9556
-0.000319875
13.949
-0.000319972
13.9424
-0.00032005
13.9356
-0.000320118
13.9288
-0.000320187
13.9218
-0.00032026
13.9147
-0.000320337
13.9074
-0.000320419
13.9001
-0.000320506
13.8925
-0.000320598
13.8848
-0.000320696
13.877
-0.000320799
13.869
-0.000320909
13.8607
-0.000321024
13.8523
-0.000321144
13.8437
-0.000321271
13.8349
-0.000321404
13.8259
-0.000321542
13.8167
-0.000321686
13.8072
-0.000321837
13.7975
-0.000321993
13.7876
-0.000322156
13.7774
-0.000322326
13.767
-0.000322501
13.7563
-0.000322682
13.7453
-0.00032287
13.7341
-0.000323065
13.7225
-0.000323266
13.7107
-0.000323474
13.6986
-0.000323688
13.6862
-0.00032391
13.6734
-0.000324138
13.6604
-0.000324373
13.647
-0.000324615
13.6333
-0.000324864
13.6193
-0.00032512
13.6049
-0.000325385
13.5902
-0.000325656
13.5752
-0.000325935
13.5597
-0.000326222
13.5439
-0.000326518
13.5278
-0.000326821
13.5112
-0.000327133
13.4943
-0.000327453
13.477
-0.000327782
13.4593
-0.000328119
13.4411
-0.000328465
13.4226
-0.00032882
13.4037
-0.000329183
13.3843