/*--------------------------------*- C++ -*----------------------------------*\
| =========                 |                                                 |
| \\      /  F ield         | OpenFOAM: The Open Source CFD Toolbox           |
|  \\    /   O peration     | Version:  3.0.x                                 |
|   \\  /    A nd           | Web:      www.OpenFOAM.org                      |
|    \\/     M anipulation  |                                                 |
\*---------------------------------------------------------------------------*/
FoamFile
{
    version     2.0;
    format      ascii;
    class       volScalarField;
    location    "0.52005";
    object      T;
}
// * * * * * * * * * * * * * * * * * * * * * * * * * * * * * * * * * * * * * //

dimensions      [0 0 0 1 0 0 0];

internalField   nonuniform List<scalar> 
13800
(
773.674
773.672
773.671
773.671
773.673
773.675
773.678
773.681
773.685
773.689
773.694
773.699
773.705
773.711
773.717
773.724
773.732
773.739
773.748
773.756
773.765
773.775
773.785
773.795
773.806
773.818
773.83
773.842
773.855
773.868
773.882
773.897
773.911
773.927
773.943
773.959
773.976
773.994
774.012
774.03
774.049
774.069
774.089
774.11
774.131
774.153
774.176
774.199
774.222
774.246
774.271
774.297
774.323
774.349
774.377
774.404
774.433
774.462
774.492
774.522
774.554
774.585
774.618
774.651
774.685
774.719
774.755
774.79
774.827
774.864
774.902
774.941
774.981
775.022
775.063
775.106
775.149
775.193
775.237
775.282
775.327
775.373
775.419
775.466
775.513
775.562
775.612
775.662
775.714
775.767
775.821
775.875
775.931
775.988
776.046
776.105
776.165
776.226
776.287
776.349
776.411
776.474
776.538
776.603
776.669
776.737
776.805
776.874
776.943
777.014
777.085
777.157
777.229
777.302
777.376
777.452
777.528
777.605
777.684
777.763
777.844
777.925
778.008
778.092
778.177
778.262
778.349
778.436
778.524
778.613
778.701
778.79
778.88
778.97
779.06
779.152
779.244
779.337
779.431
779.525
779.621
779.717
779.814
779.911
780.009
780.107
780.206
780.305
780.405
780.505
780.605
780.706
780.807
780.908
781.01
781.112
781.214
781.316
781.419
781.521
781.624
781.727
781.829
781.932
782.035
782.138
782.241
782.343
782.446
782.548
782.65
782.752
782.854
782.956
783.057
783.159
783.258
783.361
783.458
783.561
783.656
783.761
783.852
783.958
784.046
784.154
784.238
784.349
784.428
784.542
784.615
784.733
784.8
784.922
784.983
785.106
785.167
785.281
785.369
785.439
773.647
773.645
773.644
773.645
773.646
773.648
773.651
773.655
773.659
773.663
773.668
773.673
773.679
773.685
773.691
773.698
773.706
773.714
773.722
773.73
773.74
773.749
773.759
773.77
773.781
773.792
773.804
773.817
773.83
773.843
773.857
773.872
773.886
773.902
773.918
773.934
773.951
773.969
773.987
774.006
774.025
774.044
774.065
774.086
774.107
774.129
774.151
774.175
774.198
774.223
774.247
774.273
774.299
774.326
774.353
774.381
774.409
774.439
774.469
774.499
774.53
774.562
774.595
774.628
774.662
774.696
774.732
774.768
774.804
774.841
774.879
774.918
774.958
774.999
775.041
775.083
775.126
775.17
775.215
775.26
775.305
775.351
775.397
775.444
775.492
775.541
775.59
775.641
775.693
775.746
775.799
775.854
775.91
775.967
776.025
776.084
776.144
776.205
776.266
776.328
776.391
776.454
776.518
776.583
776.649
776.716
776.785
776.854
776.924
776.994
777.065
777.137
777.21
777.283
777.357
777.433
777.509
777.587
777.665
777.744
777.825
777.906
777.989
778.073
778.158
778.243
778.33
778.417
778.506
778.594
778.683
778.772
778.862
778.952
779.043
779.134
779.226
779.319
779.413
779.508
779.603
779.699
779.796
779.893
779.991
780.09
780.189
780.288
780.388
780.488
780.588
780.689
780.79
780.892
780.994
781.095
781.198
781.3
781.402
781.505
781.608
781.71
781.813
781.916
782.019
782.121
782.224
782.327
782.429
782.532
782.634
782.736
782.837
782.94
783.04
783.142
783.241
783.344
783.441
783.545
783.639
783.744
783.835
783.942
784.03
784.138
784.222
784.333
784.411
784.526
784.598
784.717
784.783
784.905
784.966
785.09
785.149
785.271
785.334
785.476
773.647
773.645
773.644
773.645
773.646
773.648
773.651
773.655
773.659
773.663
773.668
773.673
773.679
773.685
773.691
773.698
773.706
773.714
773.722
773.73
773.74
773.749
773.759
773.77
773.781
773.792
773.804
773.817
773.83
773.843
773.857
773.871
773.886
773.902
773.918
773.934
773.951
773.969
773.987
774.006
774.025
774.044
774.065
774.086
774.107
774.129
774.151
774.175
774.198
774.222
774.247
774.273
774.299
774.326
774.353
774.381
774.409
774.439
774.469
774.499
774.53
774.562
774.595
774.628
774.662
774.696
774.732
774.768
774.804
774.841
774.879
774.918
774.958
774.999
775.041
775.083
775.126
775.17
775.215
775.26
775.305
775.351
775.397
775.444
775.492
775.54
775.59
775.641
775.693
775.745
775.799
775.854
775.91
775.967
776.025
776.084
776.144
776.205
776.266
776.328
776.391
776.454
776.518
776.583
776.649
776.716
776.785
776.854
776.924
776.994
777.065
777.137
777.21
777.283
777.357
777.433
777.509
777.587
777.665
777.744
777.824
777.906
777.989
778.073
778.158
778.243
778.33
778.417
778.506
778.594
778.683
778.772
778.862
778.952
779.043
779.134
779.226
779.319
779.413
779.508
779.603
779.699
779.796
779.893
779.991
780.09
780.189
780.288
780.388
780.488
780.588
780.689
780.79
780.892
780.993
781.095
781.198
781.3
781.402
781.505
781.607
781.71
781.813
781.916
782.019
782.121
782.224
782.327
782.429
782.532
782.634
782.736
782.837
782.939
783.04
783.142
783.241
783.344
783.441
783.545
783.639
783.744
783.835
783.942
784.03
784.138
784.222
784.333
784.411
784.526
784.598
784.717
784.783
784.905
784.966
785.09
785.149
785.271
785.333
785.477
773.648
773.645
773.645
773.645
773.646
773.648
773.651
773.655
773.659
773.663
773.668
773.673
773.679
773.685
773.692
773.699
773.706
773.714
773.722
773.731
773.74
773.749
773.76
773.77
773.781
773.793
773.805
773.817
773.83
773.843
773.857
773.872
773.887
773.902
773.918
773.934
773.951
773.969
773.987
774.006
774.025
774.045
774.065
774.086
774.107
774.129
774.152
774.175
774.198
774.223
774.247
774.273
774.299
774.326
774.353
774.381
774.41
774.439
774.469
774.499
774.53
774.562
774.595
774.628
774.662
774.696
774.732
774.768
774.804
774.841
774.879
774.918
774.958
774.999
775.041
775.083
775.126
775.17
775.215
775.26
775.305
775.351
775.397
775.444
775.492
775.541
775.59
775.641
775.693
775.746
775.799
775.854
775.91
775.967
776.025
776.084
776.144
776.205
776.266
776.328
776.391
776.454
776.518
776.583
776.649
776.716
776.785
776.854
776.924
776.994
777.065
777.137
777.21
777.283
777.357
777.433
777.509
777.587
777.665
777.744
777.825
777.906
777.989
778.073
778.158
778.243
778.33
778.417
778.506
778.594
778.683
778.772
778.862
778.952
779.043
779.134
779.226
779.319
779.413
779.508
779.603
779.699
779.796
779.893
779.991
780.09
780.189
780.288
780.388
780.488
780.588
780.689
780.79
780.892
780.993
781.095
781.198
781.3
781.402
781.505
781.607
781.71
781.813
781.916
782.019
782.121
782.224
782.327
782.429
782.532
782.634
782.736
782.837
782.939
783.04
783.142
783.241
783.344
783.441
783.545
783.639
783.744
783.835
783.942
784.03
784.138
784.222
784.333
784.411
784.526
784.598
784.717
784.783
784.905
784.966
785.089
785.149
785.271
785.333
785.457
773.648
773.645
773.645
773.645
773.646
773.649
773.652
773.655
773.659
773.663
773.668
773.673
773.679
773.685
773.692
773.699
773.706
773.714
773.722
773.731
773.74
773.75
773.76
773.77
773.781
773.793
773.805
773.817
773.83
773.843
773.857
773.872
773.887
773.902
773.918
773.935
773.952
773.969
773.987
774.006
774.025
774.045
774.065
774.086
774.107
774.129
774.152
774.175
774.198
774.223
774.248
774.273
774.299
774.326
774.353
774.381
774.41
774.439
774.469
774.499
774.53
774.562
774.595
774.628
774.662
774.696
774.732
774.768
774.804
774.842
774.88
774.919
774.959
774.999
775.041
775.083
775.126
775.17
775.215
775.26
775.305
775.351
775.397
775.444
775.492
775.541
775.59
775.641
775.693
775.746
775.799
775.854
775.91
775.967
776.025
776.084
776.144
776.205
776.267
776.329
776.391
776.454
776.518
776.583
776.649
776.716
776.785
776.854
776.924
776.994
777.065
777.137
777.21
777.283
777.357
777.433
777.509
777.587
777.665
777.744
777.825
777.906
777.989
778.073
778.158
778.243
778.33
778.417
778.506
778.594
778.683
778.772
778.862
778.952
779.043
779.134
779.226
779.319
779.413
779.508
779.603
779.699
779.796
779.893
779.991
780.09
780.189
780.288
780.388
780.488
780.588
780.689
780.79
780.892
780.993
781.095
781.198
781.3
781.402
781.505
781.607
781.71
781.813
781.916
782.019
782.121
782.224
782.327
782.429
782.532
782.634
782.736
782.837
782.94
783.04
783.142
783.241
783.344
783.441
783.545
783.639
783.744
783.835
783.942
784.029
784.138
784.221
784.333
784.411
784.526
784.598
784.716
784.784
784.904
784.968
785.089
785.149
785.271
785.331
785.463
773.648
773.645
773.645
773.645
773.646
773.649
773.652
773.655
773.659
773.663
773.668
773.673
773.679
773.685
773.692
773.699
773.706
773.714
773.722
773.731
773.74
773.75
773.76
773.77
773.781
773.793
773.805
773.817
773.83
773.843
773.857
773.872
773.887
773.902
773.918
773.935
773.952
773.969
773.987
774.006
774.025
774.045
774.065
774.086
774.107
774.129
774.152
774.175
774.198
774.223
774.248
774.273
774.299
774.326
774.353
774.381
774.41
774.439
774.469
774.499
774.53
774.562
774.595
774.628
774.662
774.696
774.732
774.768
774.804
774.842
774.88
774.919
774.959
774.999
775.041
775.083
775.126
775.17
775.215
775.26
775.305
775.351
775.397
775.444
775.492
775.541
775.59
775.641
775.693
775.746
775.799
775.854
775.91
775.967
776.025
776.084
776.144
776.205
776.267
776.329
776.391
776.454
776.518
776.583
776.649
776.716
776.785
776.854
776.924
776.994
777.065
777.137
777.21
777.283
777.357
777.433
777.509
777.587
777.665
777.744
777.825
777.906
777.989
778.073
778.158
778.243
778.33
778.417
778.506
778.594
778.683
778.772
778.862
778.952
779.043
779.134
779.226
779.319
779.413
779.508
779.603
779.699
779.796
779.893
779.991
780.09
780.189
780.288
780.388
780.488
780.588
780.689
780.79
780.892
780.993
781.095
781.198
781.3
781.402
781.505
781.607
781.71
781.813
781.916
782.019
782.121
782.224
782.327
782.429
782.532
782.634
782.736
782.838
782.939
783.041
783.142
783.242
783.343
783.442
783.544
783.64
783.742
783.838
783.937
784.038
784.127
784.236
784.317
784.429
784.508
784.616
784.7
784.797
784.896
784.972
785.083
785.159
785.256
785.339
785.434
773.648
773.645
773.645
773.645
773.646
773.648
773.651
773.655
773.659
773.663
773.668
773.673
773.679
773.685
773.692
773.699
773.706
773.714
773.722
773.731
773.74
773.749
773.76
773.77
773.781
773.793
773.805
773.817
773.83
773.843
773.857
773.872
773.887
773.902
773.918
773.934
773.951
773.969
773.987
774.006
774.025
774.045
774.065
774.086
774.107
774.129
774.152
774.175
774.198
774.223
774.247
774.273
774.299
774.326
774.353
774.381
774.41
774.439
774.469
774.499
774.53
774.562
774.595
774.628
774.662
774.696
774.732
774.768
774.804
774.841
774.879
774.918
774.958
774.999
775.041
775.083
775.126
775.17
775.215
775.26
775.305
775.351
775.397
775.444
775.492
775.541
775.59
775.641
775.693
775.746
775.799
775.854
775.91
775.967
776.025
776.084
776.144
776.205
776.266
776.328
776.391
776.454
776.518
776.583
776.649
776.716
776.785
776.854
776.924
776.994
777.065
777.137
777.21
777.283
777.357
777.433
777.509
777.587
777.665
777.744
777.825
777.906
777.989
778.073
778.158
778.243
778.33
778.417
778.506
778.594
778.683
778.772
778.862
778.952
779.043
779.134
779.226
779.319
779.413
779.508
779.603
779.699
779.796
779.893
779.991
780.09
780.189
780.288
780.388
780.488
780.588
780.689
780.79
780.892
780.993
781.095
781.198
781.3
781.402
781.505
781.607
781.71
781.813
781.916
782.019
782.121
782.224
782.327
782.429
782.532
782.634
782.736
782.838
782.939
783.041
783.141
783.243
783.341
783.445
783.539
783.646
783.736
783.844
783.932
784.041
784.126
784.236
784.317
784.429
784.506
784.62
784.692
784.811
784.874
784.999
785.058
785.181
785.238
785.362
785.415
773.647
773.645
773.644
773.645
773.646
773.648
773.651
773.655
773.659
773.663
773.668
773.673
773.679
773.685
773.691
773.698
773.706
773.714
773.722
773.73
773.74
773.749
773.759
773.77
773.781
773.792
773.804
773.817
773.83
773.843
773.857
773.871
773.886
773.902
773.918
773.934
773.951
773.969
773.987
774.006
774.025
774.044
774.065
774.086
774.107
774.129
774.151
774.175
774.198
774.222
774.247
774.273
774.299
774.326
774.353
774.381
774.409
774.439
774.469
774.499
774.53
774.562
774.595
774.628
774.662
774.696
774.732
774.768
774.804
774.841
774.879
774.918
774.958
774.999
775.041
775.083
775.126
775.17
775.215
775.26
775.305
775.351
775.397
775.444
775.492
775.54
775.59
775.641
775.693
775.745
775.799
775.854
775.91
775.967
776.025
776.084
776.144
776.205
776.266
776.328
776.391
776.454
776.518
776.583
776.649
776.716
776.785
776.854
776.924
776.994
777.065
777.137
777.21
777.283
777.357
777.433
777.509
777.587
777.665
777.744
777.824
777.906
777.989
778.073
778.158
778.243
778.33
778.417
778.506
778.594
778.683
778.772
778.862
778.952
779.043
779.134
779.226
779.319
779.413
779.508
779.603
779.699
779.796
779.893
779.991
780.09
780.189
780.288
780.388
780.488
780.588
780.689
780.79
780.892
780.993
781.095
781.198
781.3
781.402
781.505
781.607
781.71
781.813
781.916
782.019
782.121
782.224
782.327
782.429
782.532
782.634
782.736
782.838
782.939
783.041
783.141
783.244
783.341
783.445
783.539
783.646
783.736
783.844
783.932
784.041
784.125
784.237
784.316
784.43
784.505
784.621
784.691
784.812
784.874
784.999
785.058
785.181
785.236
785.388
785.392
773.647
773.645
773.644
773.645
773.646
773.648
773.651
773.655
773.659
773.663
773.668
773.673
773.679
773.685
773.691
773.698
773.706
773.714
773.722
773.73
773.74
773.749
773.759
773.77
773.781
773.792
773.804
773.817
773.83
773.843
773.857
773.872
773.886
773.902
773.918
773.934
773.951
773.969
773.987
774.006
774.025
774.044
774.065
774.086
774.107
774.129
774.151
774.175
774.198
774.223
774.247
774.273
774.299
774.326
774.353
774.381
774.409
774.439
774.469
774.499
774.53
774.562
774.595
774.628
774.662
774.696
774.732
774.768
774.804
774.841
774.879
774.918
774.958
774.999
775.041
775.083
775.126
775.17
775.215
775.26
775.305
775.351
775.397
775.444
775.492
775.541
775.59
775.641
775.693
775.746
775.799
775.854
775.91
775.967
776.025
776.084
776.144
776.205
776.266
776.328
776.391
776.454
776.518
776.583
776.649
776.716
776.785
776.854
776.924
776.994
777.065
777.137
777.21
777.283
777.357
777.433
777.509
777.587
777.665
777.744
777.825
777.906
777.989
778.073
778.158
778.243
778.33
778.417
778.506
778.594
778.683
778.772
778.862
778.952
779.043
779.134
779.226
779.319
779.413
779.508
779.603
779.699
779.796
779.893
779.991
780.09
780.189
780.288
780.388
780.488
780.588
780.689
780.79
780.892
780.994
781.095
781.198
781.3
781.402
781.505
781.608
781.71
781.813
781.916
782.019
782.121
782.224
782.327
782.429
782.532
782.634
782.736
782.838
782.939
783.041
783.141
783.244
783.341
783.445
783.539
783.646
783.736
783.844
783.932
784.041
784.125
784.237
784.316
784.431
784.504
784.622
784.691
784.812
784.874
784.999
785.058
785.181
785.236
785.394
785.359
773.674
773.672
773.671
773.671
773.673
773.675
773.678
773.681
773.685
773.689
773.694
773.699
773.705
773.711
773.717
773.724
773.732
773.739
773.748
773.756
773.765
773.775
773.785
773.795
773.806
773.818
773.83
773.842
773.855
773.868
773.882
773.897
773.911
773.927
773.943
773.959
773.976
773.994
774.012
774.03
774.049
774.069
774.089
774.11
774.131
774.153
774.176
774.199
774.222
774.246
774.271
774.297
774.323
774.349
774.377
774.404
774.433
774.462
774.492
774.522
774.554
774.585
774.618
774.651
774.685
774.719
774.755
774.79
774.827
774.864
774.902
774.941
774.981
775.022
775.063
775.106
775.149
775.193
775.237
775.282
775.327
775.373
775.419
775.466
775.513
775.562
775.612
775.662
775.714
775.767
775.821
775.875
775.931
775.988
776.046
776.105
776.165
776.226
776.287
776.349
776.411
776.474
776.538
776.603
776.669
776.737
776.805
776.874
776.943
777.014
777.085
777.157
777.229
777.302
777.376
777.452
777.528
777.605
777.684
777.763
777.844
777.925
778.008
778.092
778.177
778.262
778.349
778.436
778.524
778.613
778.701
778.79
778.88
778.97
779.06
779.152
779.244
779.337
779.431
779.525
779.621
779.717
779.814
779.911
780.009
780.107
780.206
780.305
780.405
780.505
780.605
780.706
780.807
780.908
781.01
781.112
781.214
781.316
781.419
781.521
781.624
781.727
781.829
781.932
782.035
782.138
782.241
782.343
782.446
782.548
782.65
782.752
782.854
782.955
783.058
783.157
783.26
783.357
783.462
783.556
783.662
783.753
783.861
783.948
784.058
784.141
784.254
784.332
784.447
784.52
784.639
784.707
784.829
784.89
785.015
785.074
785.198
785.251
785.417
785.324
785.536
785.582
785.621
785.655
785.682
785.703
785.72
785.736
785.753
785.77
785.786
785.803
785.821
785.838
785.856
785.874
785.891
785.908
785.925
785.926
785.533
785.567
785.594
785.619
785.644
785.668
785.69
785.711
785.73
785.746
785.761
785.775
785.791
785.806
785.821
785.837
785.852
785.866
785.876
785.88
785.534
785.566
785.592
785.612
785.639
785.662
785.686
785.709
785.728
785.746
785.763
785.776
785.791
785.8
785.814
785.823
785.839
785.848
785.864
785.871
785.517
785.541
785.56
785.579
785.598
785.618
785.64
785.663
785.689
785.711
785.738
785.758
785.784
785.803
785.827
785.844
785.865
785.877
785.892
785.898
785.503
785.528
785.549
785.567
785.585
785.602
785.618
785.632
785.648
785.662
785.676
785.688
785.702
785.715
785.726
785.739
785.752
785.767
785.783
785.8
785.481
785.491
785.503
785.516
785.53
785.546
785.565
785.583
785.605
785.626
785.649
785.672
785.698
785.722
785.751
785.776
785.805
785.83
785.857
785.877
785.466
785.479
785.492
785.509
785.521
785.535
785.546
785.56
785.569
785.578
785.586
785.594
785.601
785.607
785.614
785.621
785.63
785.638
785.651
785.664
785.399
785.403
785.411
785.422
785.434
785.448
785.463
785.481
785.499
785.52
785.542
785.564
785.588
785.611
785.637
785.66
785.685
785.707
785.732
785.751
785.367
785.364
785.369
785.374
785.382
785.391
785.402
785.413
785.425
785.437
785.45
785.463
785.478
785.493
785.509
785.527
785.545
785.568
785.59
785.617
785.342
785.334
785.336
785.341
785.348
785.357
785.37
785.387
785.403
785.422
785.44
785.462
785.483
785.507
785.529
785.556
785.581
785.611
785.64
785.674
785.957
785.994
786.036
786.102
786.173
786.239
786.297
786.353
786.41
786.47
786.533
786.598
786.663
786.725
786.785
786.842
786.9
786.958
787.016
787.074
787.132
787.19
787.246
787.303
787.358
787.414
787.469
787.524
787.578
787.632
787.685
787.738
787.79
787.842
787.894
787.945
787.995
788.045
788.095
788.144
788.193
788.241
788.289
788.336
788.382
788.429
788.475
788.521
788.566
788.611
788.655
788.699
788.742
788.785
788.827
788.869
788.91
788.951
788.991
789.031
789.071
789.11
789.149
789.188
789.226
789.263
789.3
789.337
789.374
789.41
789.446
789.481
789.517
789.551
789.586
789.62
789.653
789.685
789.717
789.749
789.78
789.811
789.842
789.873
789.903
789.934
789.963
789.992
790.021
790.049
790.077
790.104
790.131
790.158
790.184
790.211
790.237
790.262
790.287
790.312
790.336
790.359
790.383
790.406
790.429
790.452
790.475
790.498
790.52
790.542
790.563
790.584
790.604
790.624
790.644
790.663
790.682
790.701
790.72
790.738
790.756
790.773
790.79
790.807
790.824
790.84
790.857
790.873
790.889
790.905
790.921
790.936
790.951
790.965
790.979
790.993
791.007
791.021
791.034
791.047
791.06
791.073
791.085
791.097
791.108
791.118
791.128
791.137
791.147
791.157
791.168
791.178
791.186
791.192
791.195
791.197
791.197
791.196
791.196
791.202
791.217
791.232
791.223
791.2
791.168
791.15
791.168
791.319
791.719
792.193
792.681
793.153
793.583
793.953
794.252
794.461
794.559
794.565
794.547
794.476
794.231
793.677
793.119
792.626
792.229
791.934
791.731
791.586
791.484
791.405
791.357
791.327
791.328
791.328
791.347
791.346
791.361
791.358
791.376
791.374
785.912
785.964
786.011
786.069
786.136
786.201
786.261
786.316
786.371
786.428
786.488
786.551
786.615
786.677
786.738
786.795
786.852
786.908
786.966
787.023
787.081
787.138
787.195
787.251
787.306
787.362
787.417
787.471
787.525
787.579
787.632
787.685
787.737
787.789
787.841
787.892
787.942
787.992
788.042
788.091
788.139
788.188
788.235
788.282
788.329
788.375
788.421
788.466
788.512
788.557
788.601
788.645
788.688
788.731
788.773
788.815
788.856
788.897
788.937
788.977
789.016
789.055
789.094
789.133
789.171
789.209
789.246
789.283
789.319
789.355
789.391
789.426
789.461
789.496
789.53
789.564
789.598
789.631
789.663
789.695
789.726
789.757
789.787
789.818
789.848
789.878
789.907
789.937
789.966
789.994
790.022
790.049
790.076
790.103
790.129
790.155
790.181
790.206
790.232
790.256
790.281
790.305
790.328
790.351
790.374
790.396
790.419
790.441
790.463
790.485
790.506
790.527
790.548
790.568
790.588
790.608
790.627
790.645
790.664
790.682
790.7
790.718
790.735
790.752
790.769
790.785
790.801
790.817
790.832
790.848
790.864
790.879
790.894
790.909
790.924
790.938
790.952
790.965
790.978
790.992
791.004
791.017
791.03
791.042
791.054
791.066
791.076
791.087
791.098
791.107
791.117
791.128
791.136
791.143
791.151
791.157
791.16
791.164
791.172
791.181
791.192
791.201
791.209
791.206
791.188
791.155
791.124
791.104
791.082
791.05
791.008
790.969
790.947
790.952
791.006
791.111
791.234
791.36
791.483
791.596
791.685
791.755
791.77
791.759
791.728
791.667
791.598
791.524
791.46
791.404
791.37
791.345
791.34
791.333
791.34
791.337
791.348
791.345
791.358
791.362
785.905
785.965
786.014
786.073
786.14
786.207
786.268
786.325
786.38
786.438
786.498
786.562
786.626
786.688
786.746
786.804
786.86
786.918
786.976
787.034
787.092
787.149
787.205
787.261
787.317
787.372
787.427
787.482
787.536
787.59
787.643
787.696
787.748
787.8
787.851
787.902
787.953
788.003
788.052
788.101
788.15
788.198
788.246
788.293
788.34
788.386
788.432
788.477
788.522
788.567
788.612
788.656
788.699
788.742
788.784
788.825
788.867
788.907
788.948
788.988
789.027
789.066
789.105
789.144
789.182
789.22
789.257
789.293
789.33
789.366
789.401
789.437
789.472
789.506
789.541
789.575
789.608
789.641
789.674
789.705
789.736
789.767
789.798
789.828
789.858
789.888
789.918
789.947
789.976
790.005
790.032
790.06
790.087
790.113
790.14
790.166
790.191
790.217
790.242
790.267
790.291
790.315
790.339
790.362
790.384
790.407
790.429
790.451
790.473
790.495
790.517
790.538
790.558
790.579
790.599
790.618
790.637
790.656
790.674
790.692
790.71
790.728
790.745
790.762
790.778
790.795
790.811
790.826
790.842
790.858
790.873
790.888
790.903
790.918
790.933
790.947
790.96
790.974
790.987
791
791.013
791.026
791.038
791.051
791.063
791.074
791.085
791.096
791.106
791.117
791.127
791.136
791.146
791.155
791.161
791.165
791.172
791.176
791.18
791.192
791.208
791.218
791.224
791.216
791.194
791.154
791.107
791.063
791.028
790.993
790.958
790.925
790.904
790.896
790.917
790.96
791.035
791.099
791.189
791.252
791.335
791.379
791.435
791.452
791.468
791.459
791.445
791.423
791.402
791.377
791.364
791.348
791.346
791.339
791.345
791.341
791.351
791.348
791.36
791.36
785.924
785.997
786.066
786.131
786.195
786.263
786.333
786.401
786.466
786.528
786.589
786.652
786.715
786.78
786.844
786.907
786.967
787.027
787.085
787.142
787.2
787.257
787.314
787.371
787.427
787.483
787.538
787.593
787.647
787.701
787.755
787.807
787.86
787.912
787.963
788.014
788.065
788.115
788.164
788.213
788.262
788.31
788.358
788.405
788.452
788.498
788.544
788.59
788.635
788.68
788.724
788.768
788.811
788.854
788.896
788.938
788.979
789.02
789.06
789.1
789.139
789.179
789.218
789.256
789.294
789.332
789.369
789.406
789.442
789.478
789.514
789.55
789.585
789.619
789.654
789.687
789.721
789.753
789.786
789.817
789.849
789.88
789.91
789.941
789.971
790.001
790.031
790.06
790.089
790.117
790.145
790.172
790.199
790.226
790.252
790.278
790.304
790.329
790.354
790.379
790.403
790.427
790.45
790.473
790.497
790.52
790.542
790.565
790.587
790.608
790.63
790.65
790.671
790.691
790.711
790.73
790.749
790.768
790.786
790.804
790.822
790.839
790.856
790.873
790.89
790.907
790.924
790.94
790.956
790.971
790.987
791.002
791.016
791.031
791.045
791.059
791.073
791.086
791.1
791.113
791.125
791.138
791.149
791.158
791.17
791.181
791.191
791.202
791.212
791.22
791.226
791.232
791.236
791.239
791.243
791.25
791.258
791.267
791.276
791.282
791.28
791.27
791.252
791.232
791.213
791.198
791.184
791.17
791.158
791.148
791.146
791.148
791.166
791.18
791.21
791.23
791.26
791.283
791.306
791.325
791.341
791.348
791.36
791.354
791.361
791.352
791.353
791.344
791.347
791.34
791.345
791.34
791.348
791.344
791.355
791.35
791.361
791.357
791.364
791.366
785.842
785.907
785.974
786.043
786.106
786.166
786.224
786.283
786.343
786.404
786.466
786.529
786.592
786.653
786.713
786.772
786.832
786.891
786.95
787.009
787.067
787.124
787.181
787.237
787.292
787.347
787.402
787.457
787.511
787.564
787.617
787.67
787.722
787.774
787.826
787.877
787.927
787.977
788.027
788.076
788.124
788.173
788.22
788.268
788.314
788.361
788.407
788.452
788.497
788.541
788.585
788.629
788.672
788.715
788.758
788.8
788.841
788.882
788.923
788.963
789.003
789.042
789.081
789.119
789.157
789.194
789.231
789.268
789.305
789.341
789.376
789.412
789.446
789.481
789.515
789.548
789.582
789.615
789.647
789.679
789.711
789.743
789.774
789.804
789.834
789.864
789.893
789.922
789.95
789.979
790.007
790.035
790.062
790.089
790.115
790.141
790.167
790.193
790.218
790.242
790.266
790.29
790.314
790.337
790.361
790.383
790.405
790.427
790.449
790.47
790.491
790.512
790.532
790.552
790.572
790.592
790.611
790.631
790.649
790.668
790.686
790.704
790.721
790.738
790.755
790.772
790.788
790.804
790.82
790.836
790.851
790.866
790.881
790.896
790.911
790.925
790.939
790.953
790.967
790.98
790.993
791.006
791.019
791.031
791.044
791.056
791.068
791.079
791.09
791.101
791.112
791.123
791.133
791.143
791.153
791.163
791.172
791.18
791.186
791.193
791.202
791.211
791.22
791.227
791.231
791.232
791.231
791.227
791.224
791.222
791.22
791.223
791.224
791.236
791.239
791.254
791.261
791.273
791.283
791.289
791.301
791.303
791.314
791.314
791.322
791.324
791.326
791.335
791.331
791.342
791.339
791.346
791.349
791.35
791.357
791.359
791.362
791.364
791.37
791.37
785.933
786.026
786.119
786.212
786.303
786.39
786.473
786.553
786.631
786.706
786.78
786.852
786.922
786.991
787.058
787.124
787.188
787.25
787.311
787.372
787.431
787.489
787.546
787.603
787.659
787.715
787.77
787.825
787.88
787.933
787.987
788.04
788.092
788.144
788.195
788.246
788.297
788.347
788.397
788.446
788.495
788.543
788.59
788.637
788.684
788.731
788.777
788.823
788.868
788.913
788.958
789.001
789.044
789.087
789.129
789.17
789.211
789.252
789.292
789.332
789.372
789.411
789.45
789.488
789.526
789.564
789.601
789.638
789.675
789.712
789.748
789.783
789.818
789.852
789.886
789.919
789.951
789.984
790.016
790.048
790.08
790.111
790.142
790.173
790.202
790.232
790.261
790.289
790.317
790.345
790.373
790.4
790.428
790.454
790.48
790.506
790.531
790.556
790.581
790.606
790.631
790.655
790.679
790.703
790.726
790.749
790.771
790.793
790.815
790.836
790.856
790.877
790.897
790.917
790.936
790.955
790.973
790.99
791.008
791.025
791.042
791.058
791.075
791.09
791.105
791.12
791.134
791.148
791.161
791.174
791.186
791.198
791.209
791.219
791.228
791.238
791.247
791.257
791.266
791.275
791.283
791.291
791.296
791.301
791.304
791.306
791.308
791.31
791.312
791.315
791.32
791.327
791.335
791.342
791.349
791.351
791.349
791.341
791.33
791.315
791.299
791.28
791.261
791.243
791.227
791.215
791.204
791.198
791.19
791.188
791.182
791.186
791.183
791.192
791.194
791.212
791.218
791.242
791.25
791.277
791.282
791.307
791.307
791.328
791.325
791.342
791.337
791.351
791.346
791.358
791.352
791.363
791.357
791.368
791.362
791.372
791.366
791.376
791.371
791.379
785.712
785.774
785.836
785.898
785.959
786.02
786.08
786.14
786.2
786.26
786.32
786.38
786.44
786.499
786.558
786.616
786.674
786.732
786.79
786.847
786.904
786.961
787.017
787.073
787.128
787.183
787.238
787.292
787.345
787.398
787.451
787.503
787.555
787.606
787.657
787.708
787.758
787.808
787.858
787.907
787.955
788.003
788.051
788.098
788.145
788.191
788.237
788.282
788.327
788.372
788.416
788.46
788.503
788.546
788.588
788.63
788.671
788.712
788.752
788.792
788.832
788.872
788.911
788.95
788.988
789.026
789.063
789.099
789.136
789.172
789.207
789.242
789.277
789.312
789.346
789.379
789.413
789.446
789.478
789.511
789.542
789.574
789.604
789.635
789.665
789.695
789.725
789.754
789.783
789.812
789.84
789.868
789.896
789.922
789.949
789.975
790.001
790.026
790.051
790.076
790.101
790.125
790.149
790.173
790.196
790.219
790.241
790.263
790.285
790.306
790.327
790.348
790.368
790.388
790.408
790.428
790.447
790.466
790.485
790.503
790.521
790.539
790.556
790.572
790.589
790.605
790.622
790.638
790.654
790.67
790.685
790.7
790.715
790.73
790.744
790.758
790.771
790.785
790.798
790.811
790.824
790.836
790.849
790.861
790.873
790.884
790.895
790.905
790.916
790.926
790.935
790.943
790.953
790.963
790.974
790.985
790.994
791.001
791.01
791.021
791.031
791.04
791.05
791.06
791.066
791.074
791.081
791.098
791.112
791.133
791.145
791.163
791.167
791.165
791.152
791.132
791.114
791.11
791.113
791.141
791.161
791.203
791.221
791.26
791.269
791.301
791.304
791.327
791.327
791.344
791.341
791.356
791.352
791.364
791.359
791.37
791.365
791.371
791.374
791.378
785.822
785.911
786.006
786.103
786.199
786.292
786.383
786.472
786.558
786.641
786.723
786.802
786.879
786.954
787.027
787.097
787.166
787.232
787.296
787.358
787.418
787.478
787.536
787.593
787.65
787.706
787.761
787.816
787.87
787.923
787.977
788.03
788.082
788.134
788.185
788.236
788.287
788.337
788.387
788.436
788.484
788.532
788.58
788.627
788.673
788.72
788.766
788.812
788.857
788.902
788.947
788.991
789.034
789.076
789.118
789.16
789.2
789.241
789.281
789.321
789.361
789.4
789.439
789.477
789.514
789.552
789.589
789.626
789.663
789.699
789.735
789.77
789.805
789.839
789.871
789.904
789.936
789.967
789.999
790.03
790.06
790.091
790.121
790.15
790.178
790.206
790.234
790.261
790.288