/*--------------------------------*- C++ -*----------------------------------*\
| =========                 |                                                 |
| \\      /  F ield         | OpenFOAM: The Open Source CFD Toolbox           |
|  \\    /   O peration     | Version:  3.0.x                                 |
|   \\  /    A nd           | Web:      www.OpenFOAM.org                      |
|    \\/     M anipulation  |                                                 |
\*---------------------------------------------------------------------------*/
FoamFile
{
    version     2.0;
    format      ascii;
    class       volScalarField;
    location    "0.46";
    object      p;
}
// * * * * * * * * * * * * * * * * * * * * * * * * * * * * * * * * * * * * * //

dimensions      [1 -1 -2 0 0 0 0];

internalField   nonuniform List<scalar> 
13800
(
1.80184e+07
1.80184e+07
1.80184e+07
1.80184e+07
1.80184e+07
1.80184e+07
1.80184e+07
1.80184e+07
1.80184e+07
1.80184e+07
1.80184e+07
1.80184e+07
1.80184e+07
1.80184e+07
1.80184e+07
1.80184e+07
1.80184e+07
1.80184e+07
1.80185e+07
1.80185e+07
1.80185e+07
1.80185e+07
1.80185e+07
1.80185e+07
1.80185e+07
1.80185e+07
1.80185e+07
1.80185e+07
1.80185e+07
1.80186e+07
1.80186e+07
1.80186e+07
1.80186e+07
1.80186e+07
1.80187e+07
1.80187e+07
1.80187e+07
1.80187e+07
1.80188e+07
1.80188e+07
1.80189e+07
1.80189e+07
1.80189e+07
1.8019e+07
1.8019e+07
1.80191e+07
1.80191e+07
1.80192e+07
1.80193e+07
1.80193e+07
1.80194e+07
1.80195e+07
1.80196e+07
1.80197e+07
1.80198e+07
1.80199e+07
1.802e+07
1.80201e+07
1.80202e+07
1.80203e+07
1.80205e+07
1.80206e+07
1.80208e+07
1.80209e+07
1.80211e+07
1.80213e+07
1.80214e+07
1.80216e+07
1.80218e+07
1.80221e+07
1.80223e+07
1.80225e+07
1.80228e+07
1.8023e+07
1.80233e+07
1.80236e+07
1.80239e+07
1.80242e+07
1.80245e+07
1.80248e+07
1.80252e+07
1.80256e+07
1.80259e+07
1.80263e+07
1.80267e+07
1.80272e+07
1.80276e+07
1.80281e+07
1.80285e+07
1.8029e+07
1.80296e+07
1.80301e+07
1.80306e+07
1.80312e+07
1.80318e+07
1.80324e+07
1.8033e+07
1.80337e+07
1.80343e+07
1.8035e+07
1.80357e+07
1.80365e+07
1.80372e+07
1.8038e+07
1.80388e+07
1.80396e+07
1.80404e+07
1.80413e+07
1.80422e+07
1.80431e+07
1.8044e+07
1.8045e+07
1.8046e+07
1.8047e+07
1.8048e+07
1.80491e+07
1.80502e+07
1.80513e+07
1.80524e+07
1.80536e+07
1.80547e+07
1.80559e+07
1.80572e+07
1.80584e+07
1.80597e+07
1.80611e+07
1.80624e+07
1.80638e+07
1.80652e+07
1.80666e+07
1.8068e+07
1.80695e+07
1.8071e+07
1.80726e+07
1.80741e+07
1.80757e+07
1.80774e+07
1.8079e+07
1.80807e+07
1.80824e+07
1.80841e+07
1.80859e+07
1.80877e+07
1.80895e+07
1.80914e+07
1.80933e+07
1.80952e+07
1.80971e+07
1.80991e+07
1.81011e+07
1.81032e+07
1.81052e+07
1.81073e+07
1.81094e+07
1.81116e+07
1.81138e+07
1.8116e+07
1.81183e+07
1.81205e+07
1.81229e+07
1.81252e+07
1.81276e+07
1.813e+07
1.81324e+07
1.81349e+07
1.81374e+07
1.81399e+07
1.81425e+07
1.81451e+07
1.81477e+07
1.81504e+07
1.81531e+07
1.81558e+07
1.81586e+07
1.81613e+07
1.81642e+07
1.8167e+07
1.81699e+07
1.81728e+07
1.81758e+07
1.81788e+07
1.81818e+07
1.81848e+07
1.81879e+07
1.8191e+07
1.81942e+07
1.81973e+07
1.82005e+07
1.82038e+07
1.82071e+07
1.82104e+07
1.82137e+07
1.82171e+07
1.82205e+07
1.82239e+07
1.82274e+07
1.82309e+07
1.82345e+07
1.82385e+07
1.8243e+07
1.80184e+07
1.80184e+07
1.80184e+07
1.80184e+07
1.80184e+07
1.80184e+07
1.80184e+07
1.80184e+07
1.80184e+07
1.80184e+07
1.80184e+07
1.80184e+07
1.80184e+07
1.80184e+07
1.80184e+07
1.80184e+07
1.80184e+07
1.80184e+07
1.80185e+07
1.80185e+07
1.80185e+07
1.80185e+07
1.80185e+07
1.80185e+07
1.80185e+07
1.80185e+07
1.80185e+07
1.80185e+07
1.80185e+07
1.80186e+07
1.80186e+07
1.80186e+07
1.80186e+07
1.80186e+07
1.80187e+07
1.80187e+07
1.80187e+07
1.80187e+07
1.80188e+07
1.80188e+07
1.80189e+07
1.80189e+07
1.80189e+07
1.8019e+07
1.8019e+07
1.80191e+07
1.80191e+07
1.80192e+07
1.80193e+07
1.80193e+07
1.80194e+07
1.80195e+07
1.80196e+07
1.80197e+07
1.80198e+07
1.80199e+07
1.802e+07
1.80201e+07
1.80202e+07
1.80203e+07
1.80205e+07
1.80206e+07
1.80208e+07
1.80209e+07
1.80211e+07
1.80213e+07
1.80214e+07
1.80216e+07
1.80218e+07
1.80221e+07
1.80223e+07
1.80225e+07
1.80228e+07
1.8023e+07
1.80233e+07
1.80236e+07
1.80239e+07
1.80242e+07
1.80245e+07
1.80248e+07
1.80252e+07
1.80256e+07
1.80259e+07
1.80263e+07
1.80267e+07
1.80272e+07
1.80276e+07
1.80281e+07
1.80285e+07
1.8029e+07
1.80296e+07
1.80301e+07
1.80306e+07
1.80312e+07
1.80318e+07
1.80324e+07
1.8033e+07
1.80337e+07
1.80343e+07
1.8035e+07
1.80357e+07
1.80365e+07
1.80372e+07
1.8038e+07
1.80388e+07
1.80396e+07
1.80404e+07
1.80413e+07
1.80422e+07
1.80431e+07
1.8044e+07
1.8045e+07
1.8046e+07
1.8047e+07
1.8048e+07
1.80491e+07
1.80502e+07
1.80513e+07
1.80524e+07
1.80536e+07
1.80547e+07
1.80559e+07
1.80572e+07
1.80584e+07
1.80597e+07
1.80611e+07
1.80624e+07
1.80638e+07
1.80652e+07
1.80666e+07
1.8068e+07
1.80695e+07
1.8071e+07
1.80726e+07
1.80741e+07
1.80757e+07
1.80774e+07
1.8079e+07
1.80807e+07
1.80824e+07
1.80841e+07
1.80859e+07
1.80877e+07
1.80895e+07
1.80914e+07
1.80933e+07
1.80952e+07
1.80971e+07
1.80991e+07
1.81011e+07
1.81032e+07
1.81052e+07
1.81073e+07
1.81094e+07
1.81116e+07
1.81138e+07
1.8116e+07
1.81183e+07
1.81205e+07
1.81229e+07
1.81252e+07
1.81276e+07
1.813e+07
1.81324e+07
1.81349e+07
1.81374e+07
1.81399e+07
1.81425e+07
1.81451e+07
1.81477e+07
1.81504e+07
1.81531e+07
1.81558e+07
1.81586e+07
1.81613e+07
1.81642e+07
1.8167e+07
1.81699e+07
1.81728e+07
1.81758e+07
1.81788e+07
1.81818e+07
1.81848e+07
1.81879e+07
1.8191e+07
1.81942e+07
1.81973e+07
1.82005e+07
1.82038e+07
1.82071e+07
1.82104e+07
1.82137e+07
1.82171e+07
1.82205e+07
1.82239e+07
1.82274e+07
1.82309e+07
1.82345e+07
1.82385e+07
1.8243e+07
1.80184e+07
1.80184e+07
1.80184e+07
1.80184e+07
1.80184e+07
1.80184e+07
1.80184e+07
1.80184e+07
1.80184e+07
1.80184e+07
1.80184e+07
1.80184e+07
1.80184e+07
1.80184e+07
1.80184e+07
1.80184e+07
1.80184e+07
1.80184e+07
1.80185e+07
1.80185e+07
1.80185e+07
1.80185e+07
1.80185e+07
1.80185e+07
1.80185e+07
1.80185e+07
1.80185e+07
1.80185e+07
1.80185e+07
1.80186e+07
1.80186e+07
1.80186e+07
1.80186e+07
1.80186e+07
1.80187e+07
1.80187e+07
1.80187e+07
1.80187e+07
1.80188e+07
1.80188e+07
1.80189e+07
1.80189e+07
1.80189e+07
1.8019e+07
1.8019e+07
1.80191e+07
1.80191e+07
1.80192e+07
1.80193e+07
1.80193e+07
1.80194e+07
1.80195e+07
1.80196e+07
1.80197e+07
1.80198e+07
1.80199e+07
1.802e+07
1.80201e+07
1.80202e+07
1.80203e+07
1.80205e+07
1.80206e+07
1.80208e+07
1.80209e+07
1.80211e+07
1.80213e+07
1.80214e+07
1.80216e+07
1.80218e+07
1.80221e+07
1.80223e+07
1.80225e+07
1.80228e+07
1.8023e+07
1.80233e+07
1.80236e+07
1.80239e+07
1.80242e+07
1.80245e+07
1.80248e+07
1.80252e+07
1.80256e+07
1.80259e+07
1.80263e+07
1.80267e+07
1.80272e+07
1.80276e+07
1.80281e+07
1.80285e+07
1.8029e+07
1.80296e+07
1.80301e+07
1.80306e+07
1.80312e+07
1.80318e+07
1.80324e+07
1.8033e+07
1.80337e+07
1.80343e+07
1.8035e+07
1.80357e+07
1.80365e+07
1.80372e+07
1.8038e+07
1.80388e+07
1.80396e+07
1.80404e+07
1.80413e+07
1.80422e+07
1.80431e+07
1.8044e+07
1.8045e+07
1.8046e+07
1.8047e+07
1.8048e+07
1.80491e+07
1.80502e+07
1.80513e+07
1.80524e+07
1.80536e+07
1.80547e+07
1.80559e+07
1.80572e+07
1.80584e+07
1.80597e+07
1.80611e+07
1.80624e+07
1.80638e+07
1.80652e+07
1.80666e+07
1.8068e+07
1.80695e+07
1.8071e+07
1.80726e+07
1.80741e+07
1.80757e+07
1.80774e+07
1.8079e+07
1.80807e+07
1.80824e+07
1.80841e+07
1.80859e+07
1.80877e+07
1.80895e+07
1.80914e+07
1.80933e+07
1.80952e+07
1.80971e+07
1.80991e+07
1.81011e+07
1.81032e+07
1.81052e+07
1.81073e+07
1.81094e+07
1.81116e+07
1.81138e+07
1.8116e+07
1.81183e+07
1.81205e+07
1.81229e+07
1.81252e+07
1.81276e+07
1.813e+07
1.81324e+07
1.81349e+07
1.81374e+07
1.81399e+07
1.81425e+07
1.81451e+07
1.81477e+07
1.81504e+07
1.81531e+07
1.81558e+07
1.81586e+07
1.81613e+07
1.81642e+07
1.8167e+07
1.81699e+07
1.81728e+07
1.81758e+07
1.81788e+07
1.81818e+07
1.81848e+07
1.81879e+07
1.8191e+07
1.81942e+07
1.81973e+07
1.82005e+07
1.82038e+07
1.82071e+07
1.82104e+07
1.82137e+07
1.82171e+07
1.82205e+07
1.82239e+07
1.82274e+07
1.82309e+07
1.82345e+07
1.82384e+07
1.82429e+07
1.80184e+07
1.80184e+07
1.80184e+07
1.80184e+07
1.80184e+07
1.80184e+07
1.80184e+07
1.80184e+07
1.80184e+07
1.80184e+07
1.80184e+07
1.80184e+07
1.80184e+07
1.80184e+07
1.80184e+07
1.80184e+07
1.80184e+07
1.80184e+07
1.80185e+07
1.80185e+07
1.80185e+07
1.80185e+07
1.80185e+07
1.80185e+07
1.80185e+07
1.80185e+07
1.80185e+07
1.80185e+07
1.80185e+07
1.80186e+07
1.80186e+07
1.80186e+07
1.80186e+07
1.80186e+07
1.80187e+07
1.80187e+07
1.80187e+07
1.80187e+07
1.80188e+07
1.80188e+07
1.80189e+07
1.80189e+07
1.80189e+07
1.8019e+07
1.8019e+07
1.80191e+07
1.80191e+07
1.80192e+07
1.80193e+07
1.80193e+07
1.80194e+07
1.80195e+07
1.80196e+07
1.80197e+07
1.80198e+07
1.80199e+07
1.802e+07
1.80201e+07
1.80202e+07
1.80203e+07
1.80205e+07
1.80206e+07
1.80208e+07
1.80209e+07
1.80211e+07
1.80213e+07
1.80214e+07
1.80216e+07
1.80218e+07
1.80221e+07
1.80223e+07
1.80225e+07
1.80228e+07
1.8023e+07
1.80233e+07
1.80236e+07
1.80239e+07
1.80242e+07
1.80245e+07
1.80248e+07
1.80252e+07
1.80256e+07
1.80259e+07
1.80263e+07
1.80267e+07
1.80272e+07
1.80276e+07
1.80281e+07
1.80285e+07
1.8029e+07
1.80296e+07
1.80301e+07
1.80306e+07
1.80312e+07
1.80318e+07
1.80324e+07
1.8033e+07
1.80337e+07
1.80343e+07
1.8035e+07
1.80357e+07
1.80365e+07
1.80372e+07
1.8038e+07
1.80388e+07
1.80396e+07
1.80404e+07
1.80413e+07
1.80422e+07
1.80431e+07
1.8044e+07
1.8045e+07
1.8046e+07
1.8047e+07
1.8048e+07
1.80491e+07
1.80502e+07
1.80513e+07
1.80524e+07
1.80536e+07
1.80547e+07
1.80559e+07
1.80572e+07
1.80584e+07
1.80597e+07
1.80611e+07
1.80624e+07
1.80638e+07
1.80652e+07
1.80666e+07
1.8068e+07
1.80695e+07
1.8071e+07
1.80726e+07
1.80741e+07
1.80757e+07
1.80774e+07
1.8079e+07
1.80807e+07
1.80824e+07
1.80841e+07
1.80859e+07
1.80877e+07
1.80895e+07
1.80914e+07
1.80933e+07
1.80952e+07
1.80971e+07
1.80991e+07
1.81011e+07
1.81032e+07
1.81052e+07
1.81073e+07
1.81094e+07
1.81116e+07
1.81138e+07
1.8116e+07
1.81183e+07
1.81205e+07
1.81229e+07
1.81252e+07
1.81276e+07
1.813e+07
1.81324e+07
1.81349e+07
1.81374e+07
1.81399e+07
1.81425e+07
1.81451e+07
1.81477e+07
1.81504e+07
1.81531e+07
1.81558e+07
1.81586e+07
1.81613e+07
1.81642e+07
1.8167e+07
1.81699e+07
1.81728e+07
1.81758e+07
1.81788e+07
1.81818e+07
1.81848e+07
1.81879e+07
1.8191e+07
1.81942e+07
1.81973e+07
1.82005e+07
1.82038e+07
1.82071e+07
1.82104e+07
1.82137e+07
1.82171e+07
1.82205e+07
1.82239e+07
1.82274e+07
1.82309e+07
1.82345e+07
1.82384e+07
1.82428e+07
1.80184e+07
1.80184e+07
1.80184e+07
1.80184e+07
1.80184e+07
1.80184e+07
1.80184e+07
1.80184e+07
1.80184e+07
1.80184e+07
1.80184e+07
1.80184e+07
1.80184e+07
1.80184e+07
1.80184e+07
1.80184e+07
1.80184e+07
1.80184e+07
1.80185e+07
1.80185e+07
1.80185e+07
1.80185e+07
1.80185e+07
1.80185e+07
1.80185e+07
1.80185e+07
1.80185e+07
1.80185e+07
1.80185e+07
1.80186e+07
1.80186e+07
1.80186e+07
1.80186e+07
1.80186e+07
1.80187e+07
1.80187e+07
1.80187e+07
1.80187e+07
1.80188e+07
1.80188e+07
1.80189e+07
1.80189e+07
1.80189e+07
1.8019e+07
1.8019e+07
1.80191e+07
1.80191e+07
1.80192e+07
1.80193e+07
1.80193e+07
1.80194e+07
1.80195e+07
1.80196e+07
1.80197e+07
1.80198e+07
1.80199e+07
1.802e+07
1.80201e+07
1.80202e+07
1.80203e+07
1.80205e+07
1.80206e+07
1.80208e+07
1.80209e+07
1.80211e+07
1.80213e+07
1.80214e+07
1.80216e+07
1.80218e+07
1.80221e+07
1.80223e+07
1.80225e+07
1.80228e+07
1.8023e+07
1.80233e+07
1.80236e+07
1.80239e+07
1.80242e+07
1.80245e+07
1.80248e+07
1.80252e+07
1.80256e+07
1.80259e+07
1.80263e+07
1.80267e+07
1.80272e+07
1.80276e+07
1.80281e+07
1.80285e+07
1.8029e+07
1.80296e+07
1.80301e+07
1.80306e+07
1.80312e+07
1.80318e+07
1.80324e+07
1.8033e+07
1.80337e+07
1.80343e+07
1.8035e+07
1.80357e+07
1.80365e+07
1.80372e+07
1.8038e+07
1.80388e+07
1.80396e+07
1.80404e+07
1.80413e+07
1.80422e+07
1.80431e+07
1.8044e+07
1.8045e+07
1.8046e+07
1.8047e+07
1.8048e+07
1.80491e+07
1.80502e+07
1.80513e+07
1.80524e+07
1.80536e+07
1.80547e+07
1.80559e+07
1.80572e+07
1.80584e+07
1.80597e+07
1.80611e+07
1.80624e+07
1.80638e+07
1.80652e+07
1.80666e+07
1.8068e+07
1.80695e+07
1.8071e+07
1.80726e+07
1.80741e+07
1.80757e+07
1.80774e+07
1.8079e+07
1.80807e+07
1.80824e+07
1.80841e+07
1.80859e+07
1.80877e+07
1.80895e+07
1.80914e+07
1.80933e+07
1.80952e+07
1.80971e+07
1.80991e+07
1.81011e+07
1.81032e+07
1.81052e+07
1.81073e+07
1.81094e+07
1.81116e+07
1.81138e+07
1.8116e+07
1.81183e+07
1.81205e+07
1.81229e+07
1.81252e+07
1.81276e+07
1.813e+07
1.81324e+07
1.81349e+07
1.81374e+07
1.81399e+07
1.81425e+07
1.81451e+07
1.81477e+07
1.81504e+07
1.81531e+07
1.81558e+07
1.81586e+07
1.81613e+07
1.81642e+07
1.8167e+07
1.81699e+07
1.81728e+07
1.81758e+07
1.81788e+07
1.81818e+07
1.81848e+07
1.81879e+07
1.8191e+07
1.81942e+07
1.81973e+07
1.82005e+07
1.82038e+07
1.82071e+07
1.82104e+07
1.82137e+07
1.82171e+07
1.82205e+07
1.82239e+07
1.82274e+07
1.82309e+07
1.82345e+07
1.82382e+07
1.82421e+07
1.80184e+07
1.80184e+07
1.80184e+07
1.80184e+07
1.80184e+07
1.80184e+07
1.80184e+07
1.80184e+07
1.80184e+07
1.80184e+07
1.80184e+07
1.80184e+07
1.80184e+07
1.80184e+07
1.80184e+07
1.80184e+07
1.80184e+07
1.80184e+07
1.80185e+07
1.80185e+07
1.80185e+07
1.80185e+07
1.80185e+07
1.80185e+07
1.80185e+07
1.80185e+07
1.80185e+07
1.80185e+07
1.80185e+07
1.80186e+07
1.80186e+07
1.80186e+07
1.80186e+07
1.80186e+07
1.80187e+07
1.80187e+07
1.80187e+07
1.80187e+07
1.80188e+07
1.80188e+07
1.80189e+07
1.80189e+07
1.80189e+07
1.8019e+07
1.8019e+07
1.80191e+07
1.80191e+07
1.80192e+07
1.80193e+07
1.80193e+07
1.80194e+07
1.80195e+07
1.80196e+07
1.80197e+07
1.80198e+07
1.80199e+07
1.802e+07
1.80201e+07
1.80202e+07
1.80203e+07
1.80205e+07
1.80206e+07
1.80208e+07
1.80209e+07
1.80211e+07
1.80213e+07
1.80214e+07
1.80216e+07
1.80218e+07
1.80221e+07
1.80223e+07
1.80225e+07
1.80228e+07
1.8023e+07
1.80233e+07
1.80236e+07
1.80239e+07
1.80242e+07
1.80245e+07
1.80248e+07
1.80252e+07
1.80256e+07
1.80259e+07
1.80263e+07
1.80267e+07
1.80272e+07
1.80276e+07
1.80281e+07
1.80285e+07
1.8029e+07
1.80296e+07
1.80301e+07
1.80306e+07
1.80312e+07
1.80318e+07
1.80324e+07
1.8033e+07
1.80337e+07
1.80343e+07
1.8035e+07
1.80357e+07
1.80365e+07
1.80372e+07
1.8038e+07
1.80388e+07
1.80396e+07
1.80404e+07
1.80413e+07
1.80422e+07
1.80431e+07
1.8044e+07
1.8045e+07
1.8046e+07
1.8047e+07
1.8048e+07
1.80491e+07
1.80502e+07
1.80513e+07
1.80524e+07
1.80536e+07
1.80547e+07
1.80559e+07
1.80572e+07
1.80584e+07
1.80597e+07
1.80611e+07
1.80624e+07
1.80638e+07
1.80652e+07
1.80666e+07
1.8068e+07
1.80695e+07
1.8071e+07
1.80726e+07
1.80741e+07
1.80757e+07
1.80774e+07
1.8079e+07
1.80807e+07
1.80824e+07
1.80841e+07
1.80859e+07
1.80877e+07
1.80895e+07
1.80914e+07
1.80933e+07
1.80952e+07
1.80971e+07
1.80991e+07
1.81011e+07
1.81032e+07
1.81052e+07
1.81073e+07
1.81094e+07
1.81116e+07
1.81138e+07
1.8116e+07
1.81183e+07
1.81205e+07
1.81229e+07
1.81252e+07
1.81276e+07
1.813e+07
1.81324e+07
1.81349e+07
1.81374e+07
1.81399e+07
1.81425e+07
1.81451e+07
1.81477e+07
1.81504e+07
1.81531e+07
1.81558e+07
1.81586e+07
1.81613e+07
1.81642e+07
1.8167e+07
1.81699e+07
1.81728e+07
1.81758e+07
1.81788e+07
1.81818e+07
1.81848e+07
1.81879e+07
1.8191e+07
1.81942e+07
1.81973e+07
1.82005e+07
1.82038e+07
1.82071e+07
1.82104e+07
1.82137e+07
1.82171e+07
1.82205e+07
1.82239e+07
1.82274e+07
1.82309e+07
1.82344e+07
1.82379e+07
1.82411e+07
1.80184e+07
1.80184e+07
1.80184e+07
1.80184e+07
1.80184e+07
1.80184e+07
1.80184e+07
1.80184e+07
1.80184e+07
1.80184e+07
1.80184e+07
1.80184e+07
1.80184e+07
1.80184e+07
1.80184e+07
1.80184e+07
1.80184e+07
1.80184e+07
1.80185e+07
1.80185e+07
1.80185e+07
1.80185e+07
1.80185e+07
1.80185e+07
1.80185e+07
1.80185e+07
1.80185e+07
1.80185e+07
1.80185e+07
1.80186e+07
1.80186e+07
1.80186e+07
1.80186e+07
1.80186e+07
1.80187e+07
1.80187e+07
1.80187e+07
1.80187e+07
1.80188e+07
1.80188e+07
1.80189e+07
1.80189e+07
1.80189e+07
1.8019e+07
1.8019e+07
1.80191e+07
1.80191e+07
1.80192e+07
1.80193e+07
1.80193e+07
1.80194e+07
1.80195e+07
1.80196e+07
1.80197e+07
1.80198e+07
1.80199e+07
1.802e+07
1.80201e+07
1.80202e+07
1.80203e+07
1.80205e+07
1.80206e+07
1.80208e+07
1.80209e+07
1.80211e+07
1.80213e+07
1.80214e+07
1.80216e+07
1.80218e+07
1.80221e+07
1.80223e+07
1.80225e+07
1.80228e+07
1.8023e+07
1.80233e+07
1.80236e+07
1.80239e+07
1.80242e+07
1.80245e+07
1.80248e+07
1.80252e+07
1.80256e+07
1.80259e+07
1.80263e+07
1.80267e+07
1.80272e+07
1.80276e+07
1.80281e+07
1.80285e+07
1.8029e+07
1.80296e+07
1.80301e+07
1.80306e+07
1.80312e+07
1.80318e+07
1.80324e+07
1.8033e+07
1.80337e+07
1.80343e+07
1.8035e+07
1.80357e+07
1.80365e+07
1.80372e+07
1.8038e+07
1.80388e+07
1.80396e+07
1.80404e+07
1.80413e+07
1.80422e+07
1.80431e+07
1.8044e+07
1.8045e+07
1.8046e+07
1.8047e+07
1.8048e+07
1.80491e+07
1.80502e+07
1.80513e+07
1.80524e+07
1.80536e+07
1.80547e+07
1.80559e+07
1.80572e+07
1.80584e+07
1.80597e+07
1.80611e+07
1.80624e+07
1.80638e+07
1.80652e+07
1.80666e+07
1.8068e+07
1.80695e+07
1.8071e+07
1.80726e+07
1.80741e+07
1.80757e+07
1.80774e+07
1.8079e+07
1.80807e+07
1.80824e+07
1.80841e+07
1.80859e+07
1.80877e+07
1.80895e+07
1.80914e+07
1.80933e+07
1.80952e+07
1.80971e+07
1.80991e+07
1.81011e+07
1.81032e+07
1.81052e+07
1.81073e+07
1.81094e+07
1.81116e+07
1.81138e+07
1.8116e+07
1.81183e+07
1.81205e+07
1.81229e+07
1.81252e+07
1.81276e+07
1.813e+07
1.81324e+07
1.81349e+07
1.81374e+07
1.81399e+07
1.81425e+07
1.81451e+07
1.81477e+07
1.81504e+07
1.81531e+07
1.81558e+07
1.81586e+07
1.81613e+07
1.81642e+07
1.8167e+07
1.81699e+07
1.81728e+07
1.81758e+07
1.81788e+07
1.81818e+07
1.81848e+07
1.81879e+07
1.8191e+07
1.81942e+07
1.81973e+07
1.82005e+07
1.82038e+07
1.82071e+07
1.82104e+07
1.82137e+07
1.82171e+07
1.82205e+07
1.82239e+07
1.82274e+07
1.82309e+07
1.82343e+07
1.82376e+07
1.82403e+07
1.80184e+07
1.80184e+07
1.80184e+07
1.80184e+07
1.80184e+07
1.80184e+07
1.80184e+07
1.80184e+07
1.80184e+07
1.80184e+07
1.80184e+07
1.80184e+07
1.80184e+07
1.80184e+07
1.80184e+07
1.80184e+07
1.80184e+07
1.80184e+07
1.80185e+07
1.80185e+07
1.80185e+07
1.80185e+07
1.80185e+07
1.80185e+07
1.80185e+07
1.80185e+07
1.80185e+07
1.80185e+07
1.80185e+07
1.80186e+07
1.80186e+07
1.80186e+07
1.80186e+07
1.80186e+07
1.80187e+07
1.80187e+07
1.80187e+07
1.80187e+07
1.80188e+07
1.80188e+07
1.80189e+07
1.80189e+07
1.80189e+07
1.8019e+07
1.8019e+07
1.80191e+07
1.80191e+07
1.80192e+07
1.80193e+07
1.80193e+07
1.80194e+07
1.80195e+07
1.80196e+07
1.80197e+07
1.80198e+07
1.80199e+07
1.802e+07
1.80201e+07
1.80202e+07
1.80203e+07
1.80205e+07
1.80206e+07
1.80208e+07
1.80209e+07
1.80211e+07
1.80213e+07
1.80214e+07
1.80216e+07
1.80218e+07
1.80221e+07
1.80223e+07
1.80225e+07
1.80228e+07
1.8023e+07
1.80233e+07
1.80236e+07
1.80239e+07
1.80242e+07
1.80245e+07
1.80248e+07
1.80252e+07
1.80256e+07
1.80259e+07
1.80263e+07
1.80267e+07
1.80272e+07
1.80276e+07
1.80281e+07
1.80285e+07
1.8029e+07
1.80296e+07
1.80301e+07
1.80306e+07
1.80312e+07
1.80318e+07
1.80324e+07
1.8033e+07
1.80337e+07
1.80343e+07
1.8035e+07
1.80357e+07
1.80365e+07
1.80372e+07
1.8038e+07
1.80388e+07
1.80396e+07
1.80404e+07
1.80413e+07
1.80422e+07
1.80431e+07
1.8044e+07
1.8045e+07
1.8046e+07
1.8047e+07
1.8048e+07
1.80491e+07
1.80502e+07
1.80513e+07
1.80524e+07
1.80536e+07
1.80547e+07
1.80559e+07
1.80572e+07
1.80584e+07
1.80597e+07
1.80611e+07
1.80624e+07
1.80638e+07
1.80652e+07
1.80666e+07
1.8068e+07
1.80695e+07
1.8071e+07
1.80726e+07
1.80741e+07
1.80757e+07
1.80774e+07
1.8079e+07
1.80807e+07
1.80824e+07
1.80841e+07
1.80859e+07
1.80877e+07
1.80895e+07
1.80914e+07
1.80933e+07
1.80952e+07
1.80971e+07
1.80991e+07
1.81011e+07
1.81032e+07
1.81052e+07
1.81073e+07
1.81094e+07
1.81116e+07
1.81138e+07
1.8116e+07
1.81183e+07
1.81205e+07
1.81229e+07
1.81252e+07
1.81276e+07
1.813e+07
1.81324e+07
1.81349e+07
1.81374e+07
1.81399e+07
1.81425e+07
1.81451e+07
1.81477e+07
1.81504e+07
1.81531e+07
1.81558e+07
1.81586e+07
1.81613e+07
1.81642e+07
1.8167e+07
1.81699e+07
1.81728e+07
1.81758e+07
1.81788e+07
1.81818e+07
1.81848e+07
1.81879e+07
1.8191e+07
1.81942e+07
1.81973e+07
1.82005e+07
1.82038e+07
1.82071e+07
1.82104e+07
1.82137e+07
1.82171e+07
1.82205e+07
1.82239e+07
1.82274e+07
1.82309e+07
1.82343e+07
1.82375e+07
1.82401e+07
1.80184e+07
1.80184e+07
1.80184e+07
1.80184e+07
1.80184e+07
1.80184e+07
1.80184e+07
1.80184e+07
1.80184e+07
1.80184e+07
1.80184e+07
1.80184e+07
1.80184e+07
1.80184e+07
1.80184e+07
1.80184e+07
1.80184e+07
1.80184e+07
1.80185e+07
1.80185e+07
1.80185e+07
1.80185e+07
1.80185e+07
1.80185e+07
1.80185e+07
1.80185e+07
1.80185e+07
1.80185e+07
1.80185e+07
1.80186e+07
1.80186e+07
1.80186e+07
1.80186e+07
1.80186e+07
1.80187e+07
1.80187e+07
1.80187e+07
1.80187e+07
1.80188e+07
1.80188e+07
1.80189e+07
1.80189e+07
1.80189e+07
1.8019e+07
1.8019e+07
1.80191e+07
1.80191e+07
1.80192e+07
1.80193e+07
1.80193e+07
1.80194e+07
1.80195e+07
1.80196e+07
1.80197e+07
1.80198e+07
1.80199e+07
1.802e+07
1.80201e+07
1.80202e+07
1.80203e+07
1.80205e+07
1.80206e+07
1.80208e+07
1.80209e+07
1.80211e+07
1.80213e+07
1.80214e+07
1.80216e+07
1.80218e+07
1.80221e+07
1.80223e+07
1.80225e+07
1.80228e+07
1.8023e+07
1.80233e+07
1.80236e+07
1.80239e+07
1.80242e+07
1.80245e+07
1.80248e+07
1.80252e+07
1.80256e+07
1.80259e+07
1.80263e+07
1.80267e+07
1.80272e+07
1.80276e+07
1.80281e+07
1.80285e+07
1.8029e+07
1.80296e+07
1.80301e+07
1.80306e+07
1.80312e+07
1.80318e+07
1.80324e+07
1.8033e+07
1.80337e+07
1.80343e+07
1.8035e+07
1.80357e+07
1.80365e+07
1.80372e+07
1.8038e+07
1.80388e+07
1.80396e+07
1.80404e+07
1.80413e+07
1.80422e+07
1.80431e+07
1.8044e+07
1.8045e+07
1.8046e+07
1.8047e+07
1.8048e+07
1.80491e+07
1.80502e+07
1.80513e+07
1.80524e+07
1.80536e+07
1.80547e+07
1.80559e+07
1.80572e+07
1.80584e+07
1.80597e+07
1.80611e+07
1.80624e+07
1.80638e+07
1.80652e+07
1.80666e+07
1.8068e+07
1.80695e+07
1.8071e+07
1.80726e+07
1.80741e+07
1.80757e+07
1.80774e+07
1.8079e+07
1.80807e+07
1.80824e+07
1.80841e+07
1.80859e+07
1.80877e+07
1.80895e+07
1.80914e+07
1.80933e+07
1.80952e+07
1.80971e+07
1.80991e+07
1.81011e+07
1.81032e+07
1.81052e+07
1.81073e+07
1.81094e+07
1.81116e+07
1.81138e+07
1.8116e+07
1.81183e+07
1.81205e+07
1.81229e+07
1.81252e+07
1.81276e+07
1.813e+07
1.81324e+07
1.81349e+07
1.81374e+07
1.81399e+07
1.81425e+07
1.81451e+07
1.81477e+07
1.81504e+07
1.81531e+07
1.81558e+07
1.81586e+07
1.81613e+07
1.81642e+07
1.8167e+07
1.81699e+07
1.81728e+07
1.81758e+07
1.81788e+07
1.81818e+07
1.81848e+07
1.81879e+07
1.8191e+07
1.81942e+07
1.81973e+07
1.82005e+07
1.82038e+07
1.82071e+07
1.82104e+07
1.82137e+07
1.82171e+07
1.82205e+07
1.82239e+07
1.82274e+07
1.82309e+07
1.82343e+07
1.82374e+07
1.82401e+07
1.80184e+07
1.80184e+07
1.80184e+07
1.80184e+07
1.80184e+07
1.80184e+07
1.80184e+07
1.80184e+07
1.80184e+07
1.80184e+07
1.80184e+07
1.80184e+07
1.80184e+07
1.80184e+07
1.80184e+07
1.80184e+07
1.80184e+07
1.80184e+07
1.80185e+07
1.80185e+07
1.80185e+07
1.80185e+07
1.80185e+07
1.80185e+07
1.80185e+07
1.80185e+07
1.80185e+07
1.80185e+07
1.80185e+07
1.80186e+07
1.80186e+07
1.80186e+07
1.80186e+07
1.80186e+07
1.80187e+07
1.80187e+07
1.80187e+07
1.80187e+07
1.80188e+07
1.80188e+07
1.80189e+07
1.80189e+07
1.80189e+07
1.8019e+07
1.8019e+07
1.80191e+07
1.80191e+07
1.80192e+07
1.80193e+07
1.80193e+07
1.80194e+07
1.80195e+07
1.80196e+07
1.80197e+07
1.80198e+07
1.80199e+07
1.802e+07
1.80201e+07
1.80202e+07
1.80203e+07
1.80205e+07
1.80206e+07
1.80208e+07
1.80209e+07
1.80211e+07
1.80213e+07
1.80214e+07
1.80216e+07
1.80218e+07
1.80221e+07
1.80223e+07
1.80225e+07
1.80228e+07
1.8023e+07
1.80233e+07
1.80236e+07
1.80239e+07
1.80242e+07
1.80245e+07
1.80248e+07
1.80252e+07
1.80256e+07
1.80259e+07
1.80263e+07
1.80267e+07
1.80272e+07
1.80276e+07
1.80281e+07
1.80285e+07
1.8029e+07
1.80296e+07
1.80301e+07
1.80306e+07
1.80312e+07
1.80318e+07
1.80324e+07
1.8033e+07
1.80337e+07
1.80343e+07
1.8035e+07
1.80357e+07
1.80365e+07
1.80372e+07
1.8038e+07
1.80388e+07
1.80396e+07
1.80404e+07
1.80413e+07
1.80422e+07
1.80431e+07
1.8044e+07
1.8045e+07
1.8046e+07
1.8047e+07
1.8048e+07
1.80491e+07
1.80502e+07
1.80513e+07
1.80524e+07
1.80536e+07
1.80547e+07
1.80559e+07
1.80572e+07
1.80584e+07
1.80597e+07
1.80611e+07
1.80624e+07
1.80638e+07
1.80652e+07
1.80666e+07
1.8068e+07
1.80695e+07
1.8071e+07
1.80726e+07
1.80741e+07
1.80757e+07
1.80774e+07
1.8079e+07
1.80807e+07
1.80824e+07
1.80841e+07
1.80859e+07
1.80877e+07
1.80895e+07
1.80914e+07
1.80933e+07
1.80952e+07
1.80971e+07
1.80991e+07
1.81011e+07
1.81032e+07
1.81052e+07
1.81073e+07
1.81094e+07
1.81116e+07
1.81138e+07
1.8116e+07
1.81183e+07
1.81205e+07
1.81229e+07
1.81252e+07
1.81276e+07
1.813e+07
1.81324e+07
1.81349e+07
1.81374e+07
1.81399e+07
1.81425e+07
1.81451e+07
1.81477e+07
1.81504e+07
1.81531e+07
1.81558e+07
1.81586e+07
1.81613e+07
1.81642e+07
1.8167e+07
1.81699e+07
1.81728e+07
1.81758e+07
1.81788e+07
1.81818e+07
1.81848e+07
1.81879e+07
1.8191e+07
1.81942e+07
1.81973e+07
1.82005e+07
1.82038e+07
1.82071e+07
1.82104e+07
1.82137e+07
1.82171e+07
1.82205e+07
1.82239e+07
1.82274e+07
1.82309e+07
1.82343e+07
1.82374e+07
1.82401e+07
1.82526e+07
1.82566e+07
1.82585e+07
1.82594e+07
1.82601e+07
1.82608e+07
1.82615e+07
1.82621e+07
1.82627e+07
1.82632e+07
1.82638e+07
1.82643e+07
1.82648e+07
1.82652e+07
1.82656e+07
1.8266e+07
1.82661e+07
1.82661e+07
1.82658e+07
1.82649e+07
1.82521e+07
1.82557e+07
1.82575e+07
1.82584e+07
1.82591e+07
1.82598e+07
1.82605e+07
1.82611e+07
1.82617e+07
1.82622e+07
1.82628e+07
1.82633e+07
1.82638e+07
1.82643e+07
1.82647e+07
1.8265e+07
1.82652e+07
1.82652e+07
1.82649e+07
1.8264e+07
1.82516e+07
1.82553e+07
1.82573e+07
1.82583e+07
1.82591e+07
1.82598e+07
1.82604e+07
1.8261e+07
1.82616e+07
1.82621e+07
1.82627e+07
1.82632e+07
1.82637e+07
1.82641e+07
1.82645e+07
1.82648e+07
1.82649e+07
1.82649e+07
1.82645e+07
1.82635e+07
1.82497e+07
1.82519e+07
1.82531e+07
1.82537e+07
1.82543e+07
1.8255e+07
1.82556e+07
1.82562e+07
1.82568e+07
1.82574e+07
1.82579e+07
1.82585e+07
1.8259e+07
1.82595e+07
1.82599e+07
1.82603e+07
1.82605e+07
1.82605e+07
1.82603e+07
1.82597e+07
1.8247e+07
1.82489e+07
1.82505e+07
1.82519e+07
1.8253e+07
1.8254e+07
1.82548e+07
1.82554e+07
1.82561e+07
1.82566e+07
1.82571e+07
1.82575e+07
1.82579e+07
1.82582e+07
1.82584e+07
1.82586e+07
1.82586e+07
1.82586e+07
1.82585e+07
1.82583e+07
1.82416e+07
1.82413e+07
1.82409e+07
1.82405e+07
1.82403e+07
1.82403e+07
1.82405e+07
1.82408e+07
1.82412e+07
1.82417e+07
1.82423e+07
1.8243e+07
1.82438e+07
1.82445e+07
1.82453e+07
1.82461e+07
1.82469e+07
1.82478e+07
1.82487e+07
1.82498e+07
1.82362e+07
1.82354e+07
1.82357e+07
1.82365e+07
1.82373e+07
1.8238e+07
1.82387e+07
1.82393e+07
1.82399e+07
1.82404e+07
1.82409e+07
1.82414e+07
1.82418e+07
1.82423e+07
1.82428e+07
1.82434e+07
1.82441e+07
1.8245e+07
1.82463e+07
1.8248e+07
1.82287e+07
1.82246e+07
1.82214e+07
1.82193e+07
1.82182e+07
1.82176e+07
1.82173e+07
1.82174e+07
1.82177e+07
1.82183e+07
1.82191e+07
1.822e+07
1.82212e+07
1.82226e+07
1.82242e+07
1.82261e+07
1.82284e+07
1.8231e+07
1.82341e+07
1.82377e+07
1.82265e+07
1.82222e+07
1.82195e+07
1.8218e+07
1.82172e+07
1.82168e+07
1.82167e+07
1.82168e+07
1.82172e+07
1.82177e+07
1.82185e+07
1.82194e+07
1.82205e+07
1.82218e+07
1.82234e+07
1.82252e+07
1.82272e+07
1.82298e+07
1.82328e+07
1.82364e+07
1.82244e+07
1.82179e+07
1.82141e+07
1.82121e+07
1.8211e+07
1.82103e+07
1.82101e+07
1.82101e+07
1.82105e+07
1.82111e+07
1.82119e+07
1.82129e+07
1.82141e+07
1.82156e+07
1.82174e+07
1.82194e+07
1.82218e+07
1.82246e+07
1.82281e+07
1.82323e+07
1.82601e+07
1.82594e+07
1.82614e+07
1.82641e+07
1.82671e+07
1.82701e+07
1.82731e+07
1.82762e+07
1.82793e+07
1.82824e+07
1.82855e+07
1.82887e+07
1.82919e+07
1.82951e+07
1.82983e+07
1.83015e+07
1.83048e+07
1.83081e+07
1.83114e+07
1.83147e+07
1.8318e+07
1.83214e+07
1.83247e+07
1.83281e+07
1.83315e+07
1.8335e+07
1.83384e+07
1.83419e+07
1.83453e+07
1.83488e+07
1.83524e+07
1.83559e+07
1.83594e+07
1.8363e+07
1.83666e+07
1.83702e+07
1.83738e+07
1.83775e+07
1.83811e+07
1.83848e+07
1.83885e+07
1.83922e+07
1.83959e+07
1.83997e+07
1.84034e+07
1.84072e+07
1.8411e+07
1.84148e+07
1.84186e+07
1.84224e+07
1.84263e+07
1.84302e+07
1.8434e+07
1.84379e+07
1.84419e+07
1.84458e+07
1.84497e+07
1.84537e+07
1.84577e+07
1.84616e+07
1.84656e+07
1.84697e+07
1.84737e+07
1.84777e+07
1.84818e+07
1.84859e+07
1.84899e+07
1.8494e+07
1.84981e+07
1.85023e+07
1.85064e+07
1.85106e+07
1.85147e+07
1.85189e+07
1.85231e+07
1.85273e+07
1.85315e+07
1.85357e+07
1.854e+07
1.85442e+07
1.85485e+07
1.85527e+07
1.8557e+07
1.85613e+07
1.85656e+07
1.85699e+07
1.85742e+07
1.85786e+07
1.85829e+07
1.85873e+07
1.85916e+07
1.8596e+07
1.86003e+07
1.86047e+07
1.86091e+07
1.86135e+07
1.86178e+07
1.86222e+07
1.86266e+07
1.8631e+07
1.86354e+07
1.86398e+07
1.86443e+07
1.86487e+07
1.86531e+07
1.86575e+07
1.8662e+07
1.86664e+07
1.86709e+07
1.86753e+07
1.86798e+07
1.86842e+07
1.86887e+07
1.86931e+07
1.86976e+07
1.87021e+07
1.87065e+07
1.8711e+07
1.87155e+07
1.87199e+07
1.87244e+07
1.87289e+07
1.87334e+07
1.87379e+07
1.87423e+07
1.87468e+07
1.87513e+07
1.87558e+07
1.87603e+07
1.87647e+07
1.87692e+07
1.87737e+07
1.87782e+07
1.87826e+07
1.87871e+07
1.87916e+07
1.87961e+07
1.88005e+07
1.8805e+07
1.88095e+07
1.88139e+07
1.88184e+07
1.88228e+07
1.88273e+07
1.88317e+07
1.88361e+07
1.88406e+07
1.8845e+07
1.88494e+07
1.88539e+07
1.88583e+07
1.88627e+07
1.88671e+07
1.88715e+07
1.88759e+07
1.88803e+07
1.88847e+07
1.8889e+07
1.88934e+07
1.88978e+07
1.89021e+07
1.89065e+07
1.89108e+07
1.89151e+07
1.89194e+07
1.89237e+07
1.8928e+07
1.89323e+07
1.89366e+07
1.89409e+07
1.89452e+07
1.89494e+07
1.89537e+07
1.89579e+07
1.89621e+07
1.89664e+07
1.89706e+07
1.89748e+07
1.89789e+07
1.89831e+07
1.89873e+07
1.89914e+07
1.89956e+07
1.89997e+07
1.90038e+07
1.90079e+07
1.9012e+07
1.90161e+07
1.90201e+07
1.90242e+07
1.90282e+07
1.90322e+07
1.90363e+07
1.90403e+07
1.90442e+07
1.90482e+07
1.90522e+07
1.90561e+07
1.906e+07
1.90639e+07
1.82598e+07
1.82593e+07
1.82614e+07
1.82641e+07
1.8267e+07
1.827e+07
1.82731e+07
1.82762e+07
1.82793e+07
1.82824e+07
1.82855e+07
1.82887e+07
1.82919e+07
1.82951e+07
1.82983e+07
1.83015e+07
1.83048e+07
1.83081e+07
1.83114e+07
1.83147e+07
1.8318e+07
1.83214e+07
1.83247e+07
1.83281e+07
1.83315e+07
1.8335e+07
1.83384e+07
1.83419e+07
1.83453e+07
1.83488e+07
1.83524e+07
1.83559e+07
1.83594e+07
1.8363e+07
1.83666e+07
1.83702e+07
1.83738e+07
1.83775e+07
1.83811e+07
1.83848e+07
1.83885e+07
1.83922e+07
1.83959e+07
1.83997e+07
1.84034e+07
1.84072e+07
1.8411e+07
1.84148e+07
1.84186e+07
1.84224e+07