/*--------------------------------*- C++ -*----------------------------------*\
| =========                 |                                                 |
| \\      /  F ield         | OpenFOAM: The Open Source CFD Toolbox           |
|  \\    /   O peration     | Version:  3.0.x                                 |
|   \\  /    A nd           | Web:      www.OpenFOAM.org                      |
|    \\/     M anipulation  |                                                 |
\*---------------------------------------------------------------------------*/
FoamFile
{
    version     2.0;
    format      ascii;
    class       volScalarField;
    location    "0.46";
    object      T;
}
// * * * * * * * * * * * * * * * * * * * * * * * * * * * * * * * * * * * * * //

dimensions      [0 0 0 1 0 0 0];

internalField   nonuniform List<scalar> 
13800
(
773.146
773.146
773.146
773.146
773.146
773.146
773.146
773.146
773.146
773.146
773.146
773.146
773.145
773.145
773.145
773.145
773.146
773.146
773.146
773.146
773.146
773.146
773.146
773.146
773.146
773.146
773.146
773.146
773.146
773.146
773.146
773.146
773.147
773.147
773.147
773.148
773.148
773.148
773.148
773.148
773.147
773.147
773.148
773.148
773.148
773.149
773.149
773.149
773.15
773.15
773.151
773.151
773.152
773.152
773.152
773.152
773.152
773.152
773.153
773.154
773.155
773.156
773.157
773.158
773.159
773.16
773.161
773.162
773.163
773.164
773.165
773.167
773.168
773.17
773.172
773.174
773.176
773.178
773.18
773.183
773.185
773.188
773.191
773.193
773.196
773.199
773.203
773.206
773.209
773.213
773.217
773.22
773.224
773.228
773.233
773.237
773.241
773.246
773.251
773.256
773.261
773.266
773.271
773.277
773.283
773.289
773.295
773.301
773.307
773.314
773.32
773.327
773.334
773.341
773.349
773.356
773.364
773.372
773.38
773.388
773.397
773.406
773.414
773.423
773.433
773.442
773.452
773.462
773.472
773.482
773.492
773.503
773.514
773.525
773.536
773.547
773.559
773.571
773.583
773.595
773.607
773.62
773.633
773.646
773.659
773.672
773.686
773.7
773.714
773.728
773.743
773.758
773.773
773.788
773.803
773.819
773.835
773.851
773.867
773.884
773.9
773.917
773.934
773.952
773.969
773.987
774.005
774.024
774.042
774.061
774.08
774.099
774.118
774.138
774.158
774.178
774.198
774.219
774.24
774.261
774.282
774.303
774.325
774.347
774.369
774.391
774.414
774.437
774.46
774.484
774.506
774.532
774.553
774.581
774.6
774.631
774.649
774.685
774.704
774.812
773.138
773.138
773.138
773.138
773.138
773.138
773.138
773.138
773.138
773.138
773.138
773.138
773.138
773.139
773.139
773.139
773.139
773.139
773.139
773.139
773.139
773.139
773.139
773.139
773.139
773.139
773.139
773.139
773.139
773.14
773.14
773.14
773.14
773.141
773.141
773.141
773.142
773.142
773.142
773.142
773.141
773.141
773.142
773.142
773.142
773.143
773.143
773.144
773.144
773.145
773.145
773.146
773.146
773.146
773.146
773.146
773.146
773.147
773.148
773.148
773.149
773.15
773.151
773.153
773.154
773.155
773.156
773.157
773.158
773.159
773.16
773.162
773.163
773.165
773.167
773.169
773.171
773.173
773.176
773.178
773.181
773.183
773.186
773.189
773.192
773.195
773.198
773.201
773.205
773.208
773.212
773.216
773.22
773.224
773.228
773.232
773.237
773.241
773.246
773.251
773.256
773.261
773.267
773.272
773.278
773.284
773.29
773.296
773.302
773.309
773.316
773.322
773.329
773.337
773.344
773.352
773.359
773.367
773.375
773.384
773.392
773.401
773.41
773.419
773.428
773.437
773.447
773.457
773.467
773.477
773.487
773.498
773.509
773.52
773.531
773.542
773.554
773.566
773.578
773.59
773.602
773.615
773.628
773.641
773.654
773.668
773.681
773.695
773.709
773.724
773.738
773.753
773.768
773.783
773.799
773.814
773.83
773.846
773.862
773.879
773.896
773.913
773.93
773.947
773.965
773.983
774.001
774.019
774.037
774.056
774.075
774.094
774.114
774.133
774.153
774.173
774.194
774.214
774.235
774.256
774.277
774.299
774.32
774.342
774.364
774.387
774.409
774.432
774.455
774.479
774.501
774.527
774.548
774.576
774.595
774.626
774.644
774.681
774.699
774.823
773.138
773.138
773.138
773.138
773.138
773.138
773.138
773.138
773.138
773.138
773.138
773.138
773.138
773.139
773.139
773.139
773.139
773.139
773.139
773.139
773.139
773.139
773.139
773.139
773.139
773.139
773.139
773.139
773.139
773.14
773.14
773.14
773.14
773.141
773.141
773.141
773.142
773.142
773.142
773.142
773.141
773.141
773.142
773.142
773.142
773.143
773.143
773.144
773.144
773.145
773.145
773.146
773.146
773.146
773.146
773.146
773.146
773.147
773.147
773.148
773.149
773.15
773.151
773.153
773.154
773.155
773.156
773.157
773.158
773.159
773.16
773.162
773.163
773.165
773.167
773.169
773.171
773.173
773.176
773.178
773.181
773.183
773.186
773.189
773.192
773.195
773.198
773.201
773.205
773.208
773.212
773.216
773.22
773.224
773.228
773.232
773.237
773.241
773.246
773.251
773.256
773.261
773.267
773.272
773.278
773.284
773.29
773.296
773.302
773.309
773.316
773.322
773.329
773.337
773.344
773.352
773.359
773.367
773.375
773.384
773.392
773.401
773.41
773.419
773.428
773.437
773.447
773.457
773.467
773.477
773.487
773.498
773.509
773.52
773.531
773.542
773.554
773.566
773.578
773.59
773.602
773.615
773.628
773.641
773.654
773.668
773.681
773.695
773.709
773.724
773.738
773.753
773.768
773.783
773.799
773.814
773.83
773.846
773.862
773.879
773.896
773.913
773.93
773.947
773.965
773.983
774.001
774.019
774.037
774.056
774.075
774.094
774.114
774.133
774.153
774.173
774.194
774.214
774.235
774.256
774.277
774.299
774.32
774.342
774.364
774.387
774.409
774.432
774.455
774.479
774.501
774.527
774.548
774.576
774.595
774.626
774.644
774.681
774.699
774.82
773.138
773.138
773.138
773.138
773.138
773.138
773.138
773.138
773.138
773.138
773.139
773.139
773.139
773.139
773.139
773.139
773.139
773.139
773.139
773.139
773.139
773.139
773.139
773.139
773.139
773.139
773.139
773.139
773.139
773.14
773.14
773.14
773.14
773.141
773.141
773.141
773.142
773.142
773.142
773.142
773.141
773.141
773.142
773.142
773.142
773.143
773.143
773.144
773.144
773.145
773.145
773.146
773.146
773.146
773.146
773.146
773.146
773.147
773.148
773.148
773.149
773.15
773.151
773.153
773.154
773.155
773.156
773.157
773.158
773.159
773.16
773.162
773.163
773.165
773.167
773.169
773.171
773.173
773.176
773.178
773.181
773.183
773.186
773.189
773.192
773.195
773.198
773.201
773.205
773.208
773.212
773.216
773.22
773.224
773.228
773.232
773.237
773.241
773.246
773.251
773.256
773.261
773.267
773.272
773.278
773.284
773.29
773.296
773.302
773.309
773.316
773.322
773.329
773.337
773.344
773.352
773.359
773.367
773.375
773.384
773.392
773.401
773.41
773.419
773.428
773.437
773.447
773.457
773.467
773.477
773.487
773.498
773.509
773.52
773.531
773.542
773.554
773.566
773.578
773.59
773.602
773.615
773.628
773.641
773.654
773.668
773.681
773.695
773.709
773.724
773.738
773.753
773.768
773.783
773.799
773.814
773.83
773.846
773.862
773.879
773.896
773.913
773.93
773.947
773.965
773.983
774.001
774.019
774.037
774.056
774.075
774.094
774.114
774.133
774.153
774.173
774.194
774.214
774.235
774.256
774.277
774.299
774.32
774.342
774.364
774.387
774.409
774.432
774.455
774.479
774.501
774.527
774.548
774.576
774.595
774.626
774.644
774.68
774.698
774.796
773.138
773.138
773.138
773.138
773.138
773.139
773.139
773.139
773.139
773.139
773.139
773.139
773.139
773.139
773.139
773.139
773.139
773.139
773.139
773.139
773.139
773.139
773.139
773.139
773.139
773.139
773.139
773.139
773.139
773.14
773.14
773.14
773.14
773.141
773.141
773.141
773.142
773.142
773.142
773.142
773.141
773.141
773.142
773.142
773.142
773.143
773.143
773.144
773.144
773.145
773.145
773.146
773.146
773.146
773.146
773.146
773.146
773.147
773.148
773.148
773.149
773.15
773.151
773.153
773.154
773.155
773.156
773.157
773.158
773.159
773.16
773.162
773.163
773.165
773.167
773.169
773.171
773.173
773.176
773.178
773.181
773.183
773.186
773.189
773.192
773.195
773.198
773.201
773.205
773.208
773.212
773.216
773.22
773.224
773.228
773.232
773.237
773.241
773.246
773.251
773.256
773.261
773.267
773.272
773.278
773.284
773.29
773.296
773.302
773.309
773.316
773.322
773.329
773.337
773.344
773.352
773.359
773.367
773.375
773.384
773.392
773.401
773.41
773.419
773.428
773.437
773.447
773.457
773.467
773.477
773.487
773.498
773.509
773.52
773.531
773.542
773.554
773.566
773.578
773.59
773.602
773.615
773.628
773.641
773.654
773.668
773.681
773.695
773.709
773.724
773.738
773.753
773.768
773.783
773.799
773.814
773.83
773.846
773.862
773.879
773.896
773.913
773.93
773.947
773.965
773.983
774.001
774.019
774.037
774.056
774.075
774.094
774.114
774.133
774.153
774.173
774.194
774.214
774.235
774.256
774.277
774.299
774.32
774.342
774.364
774.387
774.409
774.432
774.455
774.479
774.501
774.527
774.548
774.576
774.595
774.626
774.644
774.678
774.696
774.765
773.138
773.138
773.138
773.138
773.138
773.139
773.139
773.139
773.139
773.139
773.139
773.139
773.139
773.139
773.139
773.139
773.139
773.139
773.139
773.139
773.139
773.139
773.139
773.139
773.139
773.139
773.139
773.139
773.139
773.14
773.14
773.14
773.14
773.141
773.141
773.141
773.142
773.142
773.142
773.142
773.141
773.141
773.142
773.142
773.142
773.143
773.143
773.144
773.144
773.145
773.145
773.146
773.146
773.146
773.146
773.146
773.146
773.147
773.148
773.148
773.149
773.15
773.151
773.153
773.154
773.155
773.156
773.157
773.158
773.159
773.16
773.162
773.163
773.165
773.167
773.169
773.171
773.173
773.176
773.178
773.181
773.183
773.186
773.189
773.192
773.195
773.198
773.201
773.205
773.208
773.212
773.216
773.22
773.224
773.228
773.232
773.237
773.241
773.246
773.251
773.256
773.261
773.267
773.272
773.278
773.284
773.29
773.296
773.302
773.309
773.316
773.322
773.329
773.337
773.344
773.352
773.359
773.367
773.375
773.384
773.392
773.401
773.41
773.419
773.428
773.437
773.447
773.457
773.467
773.477
773.487
773.498
773.509
773.52
773.531
773.542
773.554
773.566
773.578
773.59
773.602
773.615
773.628
773.641
773.654
773.668
773.681
773.695
773.709
773.724
773.738
773.753
773.768
773.783
773.799
773.814
773.83
773.846
773.862
773.879
773.896
773.913
773.93
773.947
773.965
773.983
774.001
774.019
774.037
774.056
774.075
774.094
774.114
774.133
774.153
774.173
774.194
774.214
774.235
774.256
774.277
774.299
774.32
774.342
774.364
774.387
774.409
774.432
774.455
774.478
774.502
774.526
774.549
774.574
774.6
774.62
774.651
774.669
774.698
774.72
773.138
773.138
773.138
773.138
773.138
773.138
773.138
773.138
773.138
773.138
773.139
773.139
773.139
773.139
773.139
773.139
773.139
773.139
773.139
773.139
773.139
773.139
773.139
773.139
773.139
773.139
773.139
773.139
773.139
773.14
773.14
773.14
773.14
773.141
773.141
773.141
773.142
773.142
773.142
773.142
773.141
773.141
773.142
773.142
773.142
773.143
773.143
773.144
773.144
773.145
773.145
773.146
773.146
773.146
773.146
773.146
773.146
773.147
773.148
773.148
773.149
773.15
773.151
773.153
773.154
773.155
773.156
773.157
773.158
773.159
773.16
773.162
773.163
773.165
773.167
773.169
773.171
773.173
773.176
773.178
773.181
773.183
773.186
773.189
773.192
773.195
773.198
773.201
773.205
773.208
773.212
773.216
773.22
773.224
773.228
773.232
773.237
773.241
773.246
773.251
773.256
773.261
773.267
773.272
773.278
773.284
773.29
773.296
773.302
773.309
773.316
773.322
773.329
773.337
773.344
773.352
773.359
773.367
773.375
773.384
773.392
773.401
773.41
773.419
773.428
773.437
773.447
773.457
773.467
773.477
773.487
773.498
773.509
773.52
773.531
773.542
773.554
773.566
773.578
773.59
773.602
773.615
773.628
773.641
773.654
773.668
773.681
773.695
773.709
773.724
773.738
773.753
773.768
773.783
773.799
773.814
773.83
773.846
773.862
773.879
773.896
773.913
773.93
773.947
773.965
773.983
774.001
774.019
774.037
774.056
774.075
774.094
774.114
774.133
774.153
774.173
774.194
774.214
774.235
774.256
774.277
774.299
774.32
774.342
774.364
774.387
774.409
774.432
774.456
774.478
774.503
774.524
774.552
774.571
774.601
774.62
774.651
774.667
774.704
774.646
773.138
773.138
773.138
773.138
773.138
773.138
773.138
773.138
773.138
773.138
773.138
773.138
773.138
773.139
773.139
773.139
773.139
773.139
773.139
773.139
773.139
773.139
773.139
773.139
773.139
773.139
773.139
773.139
773.139
773.14
773.14
773.14
773.14
773.141
773.141
773.141
773.142
773.142
773.142
773.142
773.141
773.141
773.142
773.142
773.142
773.143
773.143
773.144
773.144
773.145
773.145
773.146
773.146
773.146
773.146
773.146
773.146
773.147
773.147
773.148
773.149
773.15
773.151
773.153
773.154
773.155
773.156
773.157
773.158
773.159
773.16
773.162
773.163
773.165
773.167
773.169
773.171
773.173
773.176
773.178
773.181
773.183
773.186
773.189
773.192
773.195
773.198
773.201
773.205
773.208
773.212
773.216
773.22
773.224
773.228
773.232
773.237
773.241
773.246
773.251
773.256
773.261
773.267
773.272
773.278
773.284
773.29
773.296
773.302
773.309
773.316
773.322
773.329
773.337
773.344
773.352
773.359
773.367
773.375
773.384
773.392
773.401
773.41
773.419
773.428
773.437
773.447
773.457
773.467
773.477
773.487
773.498
773.509
773.52
773.531
773.542
773.554
773.566
773.578
773.59
773.602
773.615
773.628
773.641
773.654
773.668
773.681
773.695
773.709
773.724
773.738
773.753
773.768
773.783
773.799
773.814
773.83
773.846
773.862
773.879
773.896
773.913
773.93
773.947
773.965
773.983
774.001
774.019
774.037
774.056
774.075
774.094
774.114
774.133
774.153
774.173
774.194
774.214
774.235
774.256
774.277
774.299
774.32
774.342
774.364
774.387
774.409
774.432
774.456
774.478
774.503
774.524
774.552
774.571
774.602
774.619
774.652
774.666
774.714
774.53
773.138
773.138
773.138
773.138
773.138
773.138
773.138
773.138
773.138
773.138
773.138
773.138
773.138
773.139
773.139
773.139
773.139
773.139
773.139
773.139
773.139
773.139
773.139
773.139
773.139
773.139
773.139
773.139
773.139
773.14
773.14
773.14
773.14
773.141
773.141
773.141
773.142
773.142
773.142
773.142
773.141
773.141
773.142
773.142
773.142
773.143
773.143
773.144
773.144
773.145
773.145
773.146
773.146
773.146
773.146
773.146
773.146
773.147
773.148
773.148
773.149
773.15
773.151
773.153
773.154
773.155
773.156
773.157
773.158
773.159
773.16
773.162
773.163
773.165
773.167
773.169
773.171
773.173
773.176
773.178
773.181
773.183
773.186
773.189
773.192
773.195
773.198
773.201
773.205
773.208
773.212
773.216
773.22
773.224
773.228
773.232
773.237
773.241
773.246
773.251
773.256
773.261
773.267
773.272
773.278
773.284
773.29
773.296
773.302
773.309
773.316
773.322
773.329
773.337
773.344
773.352
773.359
773.367
773.375
773.384
773.392
773.401
773.41
773.419
773.428
773.437
773.447
773.457
773.467
773.477
773.487
773.498
773.509
773.52
773.531
773.542
773.554
773.566
773.578
773.59
773.602
773.615
773.628
773.641
773.654
773.668
773.681
773.695
773.709
773.724
773.738
773.753
773.768
773.783
773.799
773.814
773.83
773.846
773.862
773.879
773.896
773.913
773.93
773.947
773.965
773.983
774.001
774.019
774.037
774.056
774.075
774.094
774.114
774.133
774.153
774.173
774.194
774.214
774.235
774.256
774.277
774.299
774.32
774.342
774.364
774.387
774.409
774.432
774.456
774.478
774.503
774.524
774.552
774.571
774.602
774.619
774.652
774.666
774.72
774.471
773.146
773.146
773.146
773.146
773.146
773.146
773.146
773.146
773.146
773.146
773.146
773.146
773.145
773.145
773.145
773.145
773.146
773.146
773.146
773.146
773.146
773.146
773.146
773.146
773.146
773.146
773.146
773.146
773.146
773.146
773.146
773.146
773.147
773.147
773.147
773.148
773.148
773.148
773.148
773.148
773.147
773.147
773.148
773.148
773.148
773.149
773.149
773.149
773.15
773.15
773.151
773.151
773.152
773.152
773.152
773.152
773.152
773.152
773.153
773.154
773.155
773.156
773.157
773.158
773.159
773.16
773.161
773.162
773.163
773.164
773.165
773.167
773.168
773.17
773.172
773.174
773.176
773.178
773.18
773.183
773.185
773.188
773.191
773.193
773.196
773.199
773.203
773.206
773.209
773.213
773.217
773.22
773.224
773.228
773.233
773.237
773.241
773.246
773.251
773.256
773.261
773.266
773.271
773.277
773.283
773.289
773.295
773.301
773.307
773.314
773.32
773.327
773.334
773.341
773.349
773.356
773.364
773.372
773.38
773.388
773.397
773.406
773.414
773.423
773.433
773.442
773.452
773.462
773.472
773.482
773.492
773.503
773.514
773.525
773.536
773.547
773.559
773.571
773.583
773.595
773.607
773.62
773.633
773.646
773.659
773.672
773.686
773.7
773.714
773.728
773.743
773.758
773.773
773.788
773.803
773.819
773.835
773.851
773.867
773.884
773.9
773.917
773.934
773.952
773.969
773.987
774.005
774.024
774.042
774.061
774.08
774.099
774.118
774.138
774.158
774.178
774.198
774.219
774.24
774.261
774.282
774.303
774.325
774.347
774.369
774.391
774.414
774.437
774.46
774.482
774.508
774.528
774.557
774.576
774.606
774.623
774.657
774.671
774.731
774.415
774.824
774.843
774.856
774.862
774.868
774.875
774.881
774.887
774.893
774.899
774.905
774.911
774.917
774.921
774.924
774.927
774.927
774.926
774.922
774.908
774.817
774.83
774.841
774.847
774.853
774.859
774.865
774.87
774.875
774.88
774.886
774.89
774.895
774.898
774.901
774.904
774.903
774.903
774.899
774.888
774.816
774.83
774.841
774.849
774.854
774.86
774.866
774.871
774.876
774.881
774.885
774.89
774.895
774.898
774.902
774.903
774.903
774.901
774.896
774.886
774.797
774.804
774.812
774.817
774.822
774.828
774.835
774.84
774.846
774.853
774.86
774.867
774.875
774.881
774.888
774.895
774.899
774.899
774.898
774.892
774.779
774.791
774.801
774.809
774.815
774.82
774.825
774.828
774.832
774.834
774.836
774.836
774.837
774.835
774.834
774.831
774.83
774.829
774.83
774.831
774.728
774.728
774.727
774.728
774.731
774.735
774.74
774.746
774.753
774.761
774.773
774.784
774.797
774.809
774.822
774.834
774.849
774.859
774.87
774.877
774.674
774.678
774.683
774.687
774.692
774.696
774.699
774.7
774.699
774.698
774.694
774.692
774.687
774.685
774.682
774.682
774.684
774.687
774.695
774.708
774.605
774.59
774.579
774.574
774.575
774.577
774.581
774.588
774.596
774.606
774.617
774.629
774.643
774.658
774.677
774.692
774.717
774.737
774.763
774.787
774.559
774.545
774.53
774.522
774.517
774.514
774.513
774.514
774.516
774.52
774.524
774.529
774.535
774.543
774.553
774.564
774.581
774.602
774.629
774.661
774.532
774.508
774.486
774.476
774.474
774.478
774.485
774.49
774.504
774.517
774.533
774.55
774.567
774.586
774.607
774.63
774.656
774.686
774.72
774.757
774.871
774.883
774.89
774.907
774.929
774.95
774.971
774.991
775.013
775.035
775.057
775.079
775.102
775.124
775.147
775.17
775.194
775.217
775.24
775.264
775.287
775.311
775.335
775.359
775.383
775.407
775.431
775.456
775.48
775.505
775.53
775.555
775.58
775.605
775.631
775.656
775.682
775.707
775.733
775.759
775.785
775.811
775.837
775.864
775.89
775.917
775.943
775.97
775.997
776.024
776.051
776.078
776.106
776.133
776.161
776.189
776.217
776.244
776.272
776.3
776.328
776.356
776.385
776.413
776.442
776.47
776.499
776.528
776.556
776.585
776.614
776.643
776.672
776.702
776.731
776.759
776.787
776.814
776.841
776.869
776.898
776.928
776.957
776.982
777.003
777.022
777.055
777.125
777.32
777.894
778.744
779.558
780.259
780.796
781.149
781.328
781.377
781.354
781.137
780.366
779.403
778.638
778.085
777.73
777.537
777.455
777.437
777.443
777.493
777.597
777.685
777.757
777.816
777.866
777.909
777.947
777.983
778.017
778.05
778.082
778.114
778.146
778.178
778.209
778.24
778.272
778.303
778.334
778.365
778.396
778.427
778.458
778.49
778.521
778.552
778.583
778.613
778.644
778.675
778.706
778.737
778.768
778.799
778.829
778.86
778.891
778.921
778.952
778.982
779.013
779.043
779.074
779.104
779.135
779.165
779.195
779.225
779.256
779.286
779.316
779.346
779.376
779.405
779.435
779.465
779.495
779.524
779.554
779.583
779.613
779.642
779.671
779.7
779.73
779.759
779.787
779.816
779.845
779.874
779.902
779.932
779.959
779.99
780.014
780.047
780.07
780.104
780.125
780.16
780.18
780.216
780.235
780.272
780.289
780.326
780.344
780.381
780.397
780.444
780.438
774.856
774.869
774.875
774.892
774.915
774.936
774.956
774.977
774.998
775.02
775.042
775.064
775.087
775.109
775.132
775.155
775.178
775.202
775.225
775.249
775.272
775.296
775.319
775.343
775.367
775.391
775.415
775.44
775.465
775.489
775.514
775.539
775.564
775.59
775.615
775.64
775.666
775.691
775.717
775.743
775.769
775.795
775.821
775.848
775.874
775.901
775.927
775.954
775.981
776.008
776.035
776.062
776.09
776.117
776.145
776.173
776.2
776.228
776.256
776.284
776.312
776.34
776.369
776.397
776.425
776.454
776.483
776.511
776.54
776.569
776.598
776.628
776.657
776.686
776.715
776.744
776.772
776.801
776.83
776.86
776.89
776.921
776.95
776.976
776.997
777.014
777.03
777.046
777.06
777.072
777.083
777.1
777.135
777.228
777.383
777.545
777.694
777.814
777.896
777.937
777.947
777.936
777.871
777.77
777.708
777.681
777.675
777.676
777.687
777.721
777.763
777.804
777.843
777.879
777.914
777.948
777.981
778.014
778.046
778.078
778.11
778.142
778.173
778.204
778.236
778.267
778.298
778.33
778.361
778.392
778.423
778.454
778.485
778.516
778.547
778.578
778.609
778.64
778.671
778.702
778.733
778.763
778.794
778.825
778.856
778.886
778.917
778.947
778.978
779.009
779.039
779.07
779.1
779.13
779.161
779.191
779.221
779.251
779.281
779.311
779.341
779.371
779.401
779.431
779.461
779.49
779.52
779.549
779.579
779.608
779.638
779.667
779.696
779.725
779.754
779.783
779.812
779.841
779.87
779.898
779.927
779.954
779.985
780.01
780.043
780.065
780.099
780.121
780.156
780.176
780.212
780.23
780.267
780.285
780.322
780.34
780.376
780.393
780.438
780.444
774.858
774.872
774.878
774.895
774.918
774.939
774.959
774.979
775.001
775.023
775.045
775.067
775.09
775.112
775.135
775.158
775.181
775.204
775.228
775.251
775.275
775.299
775.322
775.346
775.37
775.394
775.418
775.443
775.467
775.492
775.517
775.542
775.567
775.593
775.618
775.643
775.669
775.694
775.72
775.746
775.772
775.798
775.824
775.851
775.877
775.904
775.93
775.957
775.984
776.01
776.038
776.065
776.092
776.12
776.148
776.175
776.203
776.231
776.259
776.287
776.315
776.343
776.371
776.4
776.428
776.457
776.486
776.514
776.543
776.572
776.601
776.63
776.66
776.689
776.718
776.748
776.777
776.806
776.834
776.863
776.891
776.922
776.954
776.987
777.015
777.036
777.045
777.044
777.028
776.984
776.957
776.949
776.949
776.953
776.963
776.989
777.062
777.185
777.309
777.42
777.513
777.586
777.637
777.672
777.696
777.712
777.725
777.739
777.756
777.777
777.801
777.829
777.858
777.889
777.92
777.952
777.983
778.015
778.047
778.079
778.11
778.142
778.173
778.205
778.236
778.267
778.298
778.33
778.361
778.392
778.423
778.454
778.485
778.516
778.547
778.578
778.609
778.64
778.671
778.702
778.733
778.763
778.794
778.825
778.856
778.886
778.917
778.947
778.978
779.009
779.039
779.069
779.1
779.13
779.161
779.191
779.221
779.251
779.281
779.311
779.341
779.371
779.401
779.431
779.461
779.49
779.52
779.549
779.579
779.608
779.638
779.667
779.696
779.725
779.754
779.783
779.812
779.841
779.87
779.898
779.927
779.954
779.985
780.01
780.043
780.065
780.099
780.121
780.156
780.176
780.212
780.23
780.267
780.285
780.322
780.34
780.376
780.393
780.435
780.446
774.882
774.895
774.907
774.927
774.948
774.971
774.993
775.015
775.037
775.058
775.08
775.103
775.125
775.148
775.171
775.194
775.217
775.241
775.264
775.288
775.311
775.335
775.359
775.383
775.407
775.431
775.455
775.479
775.504
775.529
775.553
775.578
775.604
775.629
775.654
775.68
775.705
775.731
775.757
775.783
775.809
775.835
775.861
775.887
775.914
775.94
775.967
775.993
776.02
776.047
776.074
776.101
776.129
776.157
776.184
776.212
776.24
776.267
776.295
776.323
776.351
776.379
776.408
776.436
776.464
776.493
776.522
776.55
776.579
776.607
776.636
776.665
776.695
776.723
776.752
776.78
776.808
776.836
776.864
776.891
776.921
776.952
776.984
777.014
777.038
777.052
777.056
777.05
777.022
776.994
776.985
776.984
776.987
776.995
777.012
777.053
777.13
777.215
777.3
777.378
777.445
777.503
777.551
777.591
777.626
777.657
777.686
777.714
777.742
777.771
777.8
777.83
777.861
777.892
777.923
777.955
777.986
778.018
778.049
778.08
778.112
778.143
778.174
778.205
778.236
778.268
778.299
778.33
778.361
778.392
778.423
778.454
778.485
778.516
778.547
778.578
778.609
778.64
778.671
778.702
778.733
778.763
778.794
778.825
778.856
778.886
778.917
778.947
778.978
779.009
779.039
779.069
779.1
779.13
779.161
779.191
779.221
779.251
779.281
779.311
779.341
779.371
779.401
779.431
779.461
779.49
779.52
779.549
779.579
779.608
779.638
779.667
779.696
779.725
779.754
779.783
779.812
779.841
779.87
779.898
779.927
779.955
779.985
780.011
780.042
780.067
780.098
780.122
780.155
780.176
780.212
780.23
780.267
780.286
780.322
780.339
780.376
780.393
780.428
780.449
774.842
774.849
774.866
774.885
774.906
774.926
774.947
774.969
774.991
775.014
775.036
775.058
775.081
775.103
775.126
775.149
775.172
775.195
775.218
775.242
775.265
775.289
775.313
775.337
775.361
775.385
775.41
775.434
775.458
775.483
775.508
775.533
775.558
775.583
775.609
775.634
775.66
775.685
775.711
775.737
775.763
775.789
775.815
775.842
775.868
775.895
775.921
775.948
775.975
776.002
776.029
776.056
776.083
776.111
776.138
776.166
776.194
776.222
776.25
776.278
776.306
776.334
776.363
776.391
776.42
776.448
776.477
776.506
776.535
776.564
776.593
776.623
776.652
776.682
776.712
776.741
776.771
776.801
776.831
776.861
776.891
776.921
776.951
776.983
777.015
777.047
777.073
777.091
777.099
777.103
777.105
777.109
777.116
777.126
777.144
777.172
777.212
777.26
777.314
777.368
777.421
777.47
777.516
777.558
777.597
777.634
777.668
777.702
777.735
777.767
777.799
777.83
777.862
777.893
777.925
777.956
777.987
778.018
778.05
778.081
778.112
778.143
778.174
778.205
778.237
778.268
778.299
778.33
778.361
778.392
778.423
778.454
778.485
778.516
778.547
778.578
778.609
778.64
778.671
778.702
778.733
778.763
778.794
778.825
778.856
778.886
778.917
778.947
778.978
779.009
779.039
779.069
779.1
779.13
779.161
779.191
779.221
779.251
779.281
779.311
779.341
779.371
779.401
779.431
779.461
779.49
779.52
779.549
779.579
779.608
779.638
779.667
779.696
779.725
779.754
779.783
779.812
779.841
779.87
779.898
779.927
779.955
779.983
780.012
780.04
780.069
780.096
780.124
780.153
780.18
780.207
780.237
780.26
780.292
780.317
780.344
780.373
780.397
780.426
780.449
774.9
774.93
774.96
774.988
775.014
775.039
775.063
775.086
775.109
775.131
775.154
775.176
775.199
775.222
775.244
775.267
775.29
775.314
775.337
775.361
775.384
775.408
775.432
775.456
775.48
775.504
775.528
775.553
775.577
775.602
775.627
775.652
775.677
775.702
775.727
775.753
775.778
775.804
775.83
775.856
775.882
775.908
775.934
775.96
775.986
776.013
776.04
776.066
776.093
776.12
776.147
776.174
776.201
776.228
776.256
776.283
776.311
776.338
776.366
776.393
776.421
776.448
776.475
776.503
776.53
776.557
776.585
776.613
776.64
776.667
776.694
776.721
776.747
776.774
776.801
776.827
776.855
776.883
776.913
776.943
776.973
777
777.022
777.038
777.045
777.048
777.049
777.051
777.056
777.068
777.085
777.101
777.12
777.145
777.179
777.219
777.264
777.312
777.361
777.408
777.454
777.496
777.536
777.574
777.609
777.644
777.677
777.71
777.742
777.773
777.805
777.836
777.866
777.897
777.928
777.959
777.99
778.021
778.051
778.082
778.113
778.144
778.175
778.206
778.237
778.268
778.299
778.33
778.361
778.392
778.423
778.454
778.485
778.516
778.547
778.578
778.609
778.64
778.671
778.702
778.733
778.763
778.794
778.825
778.856
778.886
778.917
778.947
778.978
779.009
779.039
779.069
779.1
779.13
779.161
779.191
779.221
779.251
779.281
779.311
779.341
779.371
779.401
779.431
779.461
779.49
779.52
779.549
779.579
779.608
779.638
779.667
779.696
779.725
779.754
779.783
779.812
779.841
779.869
779.899
779.926
779.956
779.982
780.014
780.038
780.071
780.094
780.127
780.149
780.183
780.204
780.239
780.259
780.294
780.313
780.349
780.367
780.403
780.421
780.459
774.753
774.783
774.805
774.827
774.848
774.871
774.893
774.915
774.938
774.96
774.983
775.005
775.027
775.05
775.073
775.095
775.118
775.142
775.165
775.188
775.212
775.236
775.259
775.283
775.307
775.332
775.356
775.381
775.405
775.43
775.455
775.48
775.505
775.53
775.555
775.58
775.606
775.632
775.657
775.683
775.709
775.736
775.762
775.788
775.815
775.841
775.868
775.895
775.922
775.949
775.976
776.003
776.031
776.058
776.086
776.113
776.141
776.169
776.197
776.225
776.253
776.281
776.309
776.338
776.366
776.394
776.423
776.452
776.481
776.51
776.539
776.569
776.598
776.627
776.658
776.688
776.717
776.746
776.776
776.807
776.839
776.87
776.899
776.929
776.959
776.991
777.025
777.06
777.098
777.135
777.167
777.191
777.207
777.218
777.227
777.235
777.243
777.259
777.293
777.341
777.394
777.448
777.499
777.546
777.59
777.63
777.668
777.703
777.738
777.771
777.803
777.835
777.866
777.897
777.928
777.959
777.99
778.021
778.052
778.082
778.113
778.144
778.175
778.206
778.237
778.268
778.299
778.33
778.361
778.392
778.423
778.454
778.485
778.516
778.547
778.578
778.609
778.64
778.671
778.702
778.733
778.763
778.794
778.825
778.856
778.886
778.917
778.947
778.978
779.009
779.039
779.069
779.1
779.13
779.161
779.191
779.221
779.251
779.281
779.311
779.341
779.371
779.401
779.431
779.461
779.49
779.52
779.549
779.579
779.608
779.638
779.667
779.696
779.725
779.754
779.783
779.812
779.841
779.869
779.899
779.926
779.956
779.982
780.014
780.038
780.07
780.094
780.127
780.149
780.183
780.204
780.239
780.258
780.294
780.313
780.349
780.367
780.402
780.425
780.454
774.868
774.909
774.942
774.973
775.001
775.028
775.054
775.079
775.103
775.126
775.149
775.172
775.195
775.217
775.24
775.263
775.286
775.309
775.333
775.356
775.38
775.403
775.427
775.452
775.476
775.5
775.524
775.549
775.573
775.597
775.622
775.647
775.672
775.697
775.723
775.748
775.774
775.799
775.825
775.851
775.877
775.903
775.929
775.955
775.981
776.007
776.034
776.06
776.086
776.113
776.14
776.166
776.193
776.221
776.249
776.277
776.305
776.333
776.361
776.389
776.417
776.445
776.473
776.501
776.529
776.558
776.585
776.612
776.639
776.666
776.693
776.719
776.745
776.772
776.801
776.83
776.861
776.891
776.922
776.953
776.985
777.017
777.048
777.075
777.098
777.116
777.125