/*--------------------------------*- C++ -*----------------------------------*\
| =========                 |                                                 |
| \\      /  F ield         | OpenFOAM: The Open Source CFD Toolbox           |
|  \\    /   O peration     | Version:  3.0.x                                 |
|   \\  /    A nd           | Web:      www.OpenFOAM.org                      |
|    \\/     M anipulation  |                                                 |
\*---------------------------------------------------------------------------*/
FoamFile
{
    version     2.0;
    format      ascii;
    class       volScalarField;
    location    "0.390075";
    object      rho;
}
// * * * * * * * * * * * * * * * * * * * * * * * * * * * * * * * * * * * * * //

dimensions      [1 -3 0 0 0 0 0];

internalField   nonuniform List<scalar> 
13800
(
50.5461
50.5461
50.5461
50.5461
50.5461
50.5461
50.5461
50.5461
50.5461
50.5461
50.5461
50.5461
50.5461
50.5461
50.5461
50.5461
50.5462
50.5462
50.5462
50.5462
50.5462
50.5462
50.5462
50.5462
50.5462
50.5462
50.5462
50.5462
50.5462
50.5462
50.5461
50.5461
50.5461
50.5462
50.5462
50.5463
50.5463
50.5464
50.5465
50.5465
50.5465
50.5465
50.5465
50.5465
50.5465
50.5465
50.5465
50.5465
50.5465
50.5465
50.5465
50.5466
50.5466
50.5466
50.5466
50.5467
50.5467
50.5468
50.5469
50.5469
50.547
50.547
50.5471
50.5471
50.5471
50.5471
50.547
50.547
50.547
50.547
50.547
50.547
50.547
50.5471
50.5472
50.5472
50.5473
50.5473
50.5473
50.5473
50.5474
50.5474
50.5474
50.5474
50.5474
50.5474
50.5474
50.5474
50.5474
50.5474
50.5474
50.5474
50.5474
50.5474
50.5474
50.5474
50.5474
50.5474
50.5474
50.5474
50.5474
50.5474
50.5474
50.5474
50.5474
50.5474
50.5474
50.5474
50.5474
50.5473
50.5473
50.5473
50.5473
50.5473
50.5473
50.5473
50.5473
50.5473
50.5473
50.5473
50.5473
50.5473
50.5473
50.5473
50.5473
50.5473
50.5473
50.5473
50.5473
50.5473
50.5472
50.5472
50.5472
50.5472
50.5472
50.5472
50.5472
50.5472
50.5472
50.5472
50.5472
50.5472
50.5472
50.5472
50.5472
50.5472
50.5472
50.5472
50.5472
50.5472
50.5472
50.5472
50.5472
50.5472
50.5472
50.5472
50.5472
50.5472
50.5472
50.5472
50.5472
50.5472
50.5472
50.5472
50.5472
50.5472
50.5472
50.5472
50.5472
50.5472
50.5472
50.5472
50.5472
50.5472
50.5472
50.5472
50.5472
50.5472
50.5472
50.5472
50.5472
50.5472
50.5472
50.5472
50.5472
50.5472
50.5472
50.5472
50.5472
50.5472
50.5472
50.5472
50.5472
50.5472
50.5472
50.5472
50.5473
50.5474
50.5497
50.5441
50.5469
50.5469
50.5469
50.5469
50.5469
50.5469
50.5469
50.5469
50.5469
50.5469
50.5469
50.5469
50.5469
50.5469
50.5469
50.5469
50.5469
50.5469
50.5469
50.5469
50.5469
50.5469
50.5469
50.5469
50.5469
50.5469
50.5469
50.5469
50.5469
50.5468
50.5468
50.5468
50.5468
50.5468
50.5468
50.5469
50.547
50.5471
50.5471
50.5471
50.5472
50.5472
50.5472
50.5471
50.5471
50.5471
50.5471
50.5471
50.5471
50.5471
50.5471
50.5472
50.5472
50.5472
50.5472
50.5472
50.5473
50.5474
50.5474
50.5475
50.5476
50.5476
50.5476
50.5476
50.5476
50.5476
50.5476
50.5476
50.5475
50.5475
50.5475
50.5475
50.5476
50.5476
50.5477
50.5477
50.5478
50.5478
50.5478
50.5479
50.5479
50.5479
50.5479
50.5479
50.5479
50.5479
50.5479
50.5479
50.5479
50.5479
50.5479
50.5479
50.5479
50.5479
50.5479
50.5479
50.5479
50.5479
50.5479
50.5479
50.5479
50.5479
50.5479
50.5479
50.5479
50.5478
50.5478
50.5478
50.5478
50.5478
50.5478
50.5478
50.5478
50.5478
50.5478
50.5478
50.5478
50.5478
50.5478
50.5478
50.5478
50.5478
50.5478
50.5478
50.5478
50.5478
50.5477
50.5477
50.5477
50.5477
50.5477
50.5477
50.5477
50.5477
50.5477
50.5477
50.5477
50.5477
50.5477
50.5477
50.5477
50.5477
50.5477
50.5477
50.5477
50.5477
50.5477
50.5477
50.5477
50.5477
50.5477
50.5477
50.5477
50.5477
50.5477
50.5477
50.5477
50.5477
50.5477
50.5477
50.5477
50.5477
50.5477
50.5477
50.5477
50.5477
50.5477
50.5477
50.5477
50.5477
50.5477
50.5477
50.5477
50.5477
50.5477
50.5477
50.5477
50.5477
50.5477
50.5477
50.5477
50.5477
50.5477
50.5477
50.5477
50.5477
50.5477
50.5477
50.5477
50.5477
50.5477
50.5477
50.5477
50.5477
50.5477
50.5477
50.5478
50.5478
50.5502
50.5425
50.5469
50.5469
50.5469
50.5469
50.5469
50.5469
50.5469
50.5469
50.5469
50.5469
50.5469
50.5469
50.5469
50.5469
50.5469
50.5469
50.5469
50.5469
50.5469
50.5469
50.5469
50.5469
50.5469
50.5469
50.5469
50.5469
50.5469
50.5469
50.5469
50.5468
50.5468
50.5468
50.5468
50.5468
50.5468
50.5469
50.547
50.5471
50.5471
50.5471
50.5472
50.5472
50.5472
50.5471
50.5471
50.5471
50.5471
50.5471
50.5471
50.5471
50.5471
50.5472
50.5472
50.5472
50.5472
50.5472
50.5473
50.5474
50.5474
50.5475
50.5476
50.5476
50.5476
50.5476
50.5476
50.5476
50.5476
50.5476
50.5475
50.5475
50.5475
50.5475
50.5476
50.5476
50.5477
50.5477
50.5478
50.5478
50.5478
50.5479
50.5479
50.5479
50.5479
50.5479
50.5479
50.5479
50.5479
50.5479
50.5479
50.5479
50.5479
50.5479
50.5479
50.5479
50.5479
50.5479
50.5479
50.5479
50.5479
50.5479
50.5479
50.5479
50.5479
50.5479
50.5479
50.5478
50.5478
50.5478
50.5478
50.5478
50.5478
50.5478
50.5478
50.5478
50.5478
50.5478
50.5478
50.5478
50.5478
50.5478
50.5478
50.5478
50.5478
50.5478
50.5478
50.5478
50.5477
50.5477
50.5477
50.5477
50.5477
50.5477
50.5477
50.5477
50.5477
50.5477
50.5477
50.5477
50.5477
50.5477
50.5477
50.5477
50.5477
50.5477
50.5477
50.5477
50.5477
50.5477
50.5477
50.5477
50.5477
50.5477
50.5477
50.5477
50.5477
50.5477
50.5477
50.5477
50.5477
50.5477
50.5477
50.5477
50.5477
50.5477
50.5477
50.5477
50.5477
50.5477
50.5477
50.5477
50.5477
50.5477
50.5477
50.5477
50.5477
50.5477
50.5477
50.5477
50.5477
50.5477
50.5477
50.5477
50.5477
50.5477
50.5477
50.5477
50.5477
50.5477
50.5477
50.5477
50.5477
50.5477
50.5477
50.5477
50.5477
50.5477
50.5478
50.5478
50.5501
50.5428
50.5469
50.5469
50.5468
50.5468
50.5468
50.5468
50.5468
50.5468
50.5468
50.5468
50.5469
50.5469
50.5469
50.5469
50.5469
50.5469
50.5469
50.5469
50.5469
50.5469
50.5469
50.5469
50.5469
50.5469
50.5469
50.5469
50.5469
50.5469
50.5469
50.5468
50.5468
50.5468
50.5468
50.5468
50.5468
50.5469
50.547
50.5471
50.5471
50.5471
50.5472
50.5472
50.5472
50.5471
50.5471
50.5471
50.5471
50.5471
50.5471
50.5471
50.5471
50.5472
50.5472
50.5472
50.5472
50.5472
50.5473
50.5474
50.5474
50.5475
50.5476
50.5476
50.5476
50.5476
50.5476
50.5476
50.5476
50.5476
50.5475
50.5475
50.5475
50.5475
50.5476
50.5476
50.5477
50.5477
50.5478
50.5478
50.5478
50.5479
50.5479
50.5479
50.5479
50.5479
50.5479
50.5479
50.5479
50.5479
50.5479
50.5479
50.5479
50.5479
50.5479
50.5479
50.5479
50.5479
50.5479
50.5479
50.5479
50.5479
50.5479
50.5479
50.5479
50.5479
50.5479
50.5478
50.5478
50.5478
50.5478
50.5478
50.5478
50.5478
50.5478
50.5478
50.5478
50.5478
50.5478
50.5478
50.5478
50.5478
50.5478
50.5478
50.5478
50.5478
50.5478
50.5478
50.5477
50.5477
50.5477
50.5477
50.5477
50.5477
50.5477
50.5477
50.5477
50.5477
50.5477
50.5477
50.5477
50.5477
50.5477
50.5477
50.5477
50.5477
50.5477
50.5477
50.5477
50.5477
50.5477
50.5477
50.5477
50.5477
50.5477
50.5477
50.5477
50.5477
50.5477
50.5477
50.5477
50.5477
50.5477
50.5477
50.5477
50.5477
50.5477
50.5477
50.5477
50.5477
50.5477
50.5477
50.5477
50.5477
50.5477
50.5477
50.5477
50.5477
50.5477
50.5477
50.5477
50.5477
50.5477
50.5477
50.5477
50.5477
50.5477
50.5477
50.5477
50.5477
50.5477
50.5477
50.5477
50.5477
50.5477
50.5477
50.5477
50.5477
50.5478
50.5478
50.5498
50.5452
50.5468
50.5468
50.5468
50.5468
50.5468
50.5468
50.5468
50.5468
50.5468
50.5468
50.5468
50.5468
50.5469
50.5469
50.5469
50.5469
50.5469
50.5469
50.5469
50.5469
50.5469
50.5469
50.5469
50.5469
50.5469
50.5469
50.5469
50.5469
50.5469
50.5468
50.5468
50.5468
50.5468
50.5468
50.5468
50.5469
50.547
50.5471
50.5471
50.5471
50.5471
50.5472
50.5472
50.5471
50.5471
50.5471
50.5471
50.5471
50.5471
50.5471
50.5471
50.5472
50.5472
50.5472
50.5472
50.5472
50.5473
50.5474
50.5474
50.5475
50.5475
50.5476
50.5476
50.5476
50.5476
50.5476
50.5476
50.5476
50.5475
50.5475
50.5475
50.5475
50.5476
50.5476
50.5477
50.5477
50.5478
50.5478
50.5478
50.5479
50.5479
50.5479
50.5479
50.5479
50.5479
50.5479
50.5479
50.5479
50.5479
50.5479
50.5479
50.5479
50.5479
50.5479
50.5479
50.5479
50.5479
50.5479
50.5479
50.5479
50.5479
50.5479
50.5479
50.5479
50.5479
50.5478
50.5478
50.5478
50.5478
50.5478
50.5478
50.5478
50.5478
50.5478
50.5478
50.5478
50.5478
50.5478
50.5478
50.5478
50.5478
50.5478
50.5478
50.5478
50.5478
50.5478
50.5477
50.5477
50.5477
50.5477
50.5477
50.5477
50.5477
50.5477
50.5477
50.5477
50.5477
50.5477
50.5477
50.5477
50.5477
50.5477
50.5477
50.5477
50.5477
50.5477
50.5477
50.5477
50.5477
50.5477
50.5477
50.5477
50.5477
50.5477
50.5477
50.5477
50.5477
50.5477
50.5477
50.5477
50.5477
50.5477
50.5477
50.5477
50.5477
50.5477
50.5477
50.5477
50.5477
50.5477
50.5477
50.5477
50.5477
50.5477
50.5477
50.5477
50.5477
50.5477
50.5477
50.5477
50.5477
50.5477
50.5477
50.5477
50.5477
50.5477
50.5477
50.5477
50.5477
50.5477
50.5477
50.5477
50.5477
50.5477
50.5477
50.5477
50.5477
50.5477
50.5487
50.5441
50.5468
50.5468
50.5468
50.5468
50.5468
50.5468
50.5468
50.5468
50.5468
50.5468
50.5468
50.5468
50.5469
50.5469
50.5469
50.5469
50.5469
50.5469
50.5469
50.5469
50.5469
50.5469
50.5469
50.5469
50.5469
50.5469
50.5469
50.5469
50.5469
50.5468
50.5468
50.5468
50.5468
50.5468
50.5468
50.5469
50.547
50.5471
50.5471
50.5471
50.5471
50.5472
50.5472
50.5471
50.5471
50.5471
50.5471
50.5471
50.5471
50.5471
50.5471
50.5472
50.5472
50.5472
50.5472
50.5472
50.5473
50.5474
50.5474
50.5475
50.5475
50.5476
50.5476
50.5476
50.5476
50.5476
50.5476
50.5476
50.5475
50.5475
50.5475
50.5475
50.5476
50.5476
50.5477
50.5477
50.5478
50.5478
50.5478
50.5479
50.5479
50.5479
50.5479
50.5479
50.5479
50.5479
50.5479
50.5479
50.5479
50.5479
50.5479
50.5479
50.5479
50.5479
50.5479
50.5479
50.5479
50.5479
50.5479
50.5479
50.5479
50.5479
50.5479
50.5479
50.5479
50.5478
50.5478
50.5478
50.5478
50.5478
50.5478
50.5478
50.5478
50.5478
50.5478
50.5478
50.5478
50.5478
50.5478
50.5478
50.5478
50.5478
50.5478
50.5478
50.5478
50.5478
50.5477
50.5477
50.5477
50.5477
50.5477
50.5477
50.5477
50.5477
50.5477
50.5477
50.5477
50.5477
50.5477
50.5477
50.5477
50.5477
50.5477
50.5477
50.5477
50.5477
50.5477
50.5477
50.5477
50.5477
50.5477
50.5477
50.5477
50.5477
50.5477
50.5477
50.5477
50.5477
50.5477
50.5477
50.5477
50.5477
50.5477
50.5477
50.5477
50.5477
50.5477
50.5477
50.5477
50.5477
50.5477
50.5477
50.5477
50.5477
50.5477
50.5477
50.5477
50.5477
50.5477
50.5477
50.5477
50.5477
50.5477
50.5477
50.5477
50.5477
50.5477
50.5477
50.5477
50.5477
50.5477
50.5477
50.5477
50.5477
50.5477
50.5477
50.5477
50.5476
50.5471
50.5463
50.5469
50.5469
50.5468
50.5468
50.5468
50.5468
50.5468
50.5468
50.5468
50.5468
50.5469
50.5469
50.5469
50.5469
50.5469
50.5469
50.5469
50.5469
50.5469
50.5469
50.5469
50.5469
50.5469
50.5469
50.5469
50.5469
50.5469
50.5469
50.5469
50.5468
50.5468
50.5468
50.5468
50.5468
50.5468
50.5469
50.547
50.5471
50.5471
50.5471
50.5472
50.5472
50.5472
50.5471
50.5471
50.5471
50.5471
50.5471
50.5471
50.5471
50.5471
50.5472
50.5472
50.5472
50.5472
50.5472
50.5473
50.5474
50.5474
50.5475
50.5476
50.5476
50.5476
50.5476
50.5476
50.5476
50.5476
50.5476
50.5475
50.5475
50.5475
50.5475
50.5476
50.5476
50.5477
50.5477
50.5478
50.5478
50.5478
50.5479
50.5479
50.5479
50.5479
50.5479
50.5479
50.5479
50.5479
50.5479
50.5479
50.5479
50.5479
50.5479
50.5479
50.5479
50.5479
50.5479
50.5479
50.5479
50.5479
50.5479
50.5479
50.5479
50.5479
50.5479
50.5479
50.5478
50.5478
50.5478
50.5478
50.5478
50.5478
50.5478
50.5478
50.5478
50.5478
50.5478
50.5478
50.5478
50.5478
50.5478
50.5478
50.5478
50.5478
50.5478
50.5478
50.5478
50.5477
50.5477
50.5477
50.5477
50.5477
50.5477
50.5477
50.5477
50.5477
50.5477
50.5477
50.5477
50.5477
50.5477
50.5477
50.5477
50.5477
50.5477
50.5477
50.5477
50.5477
50.5477
50.5477
50.5477
50.5477
50.5477
50.5477
50.5477
50.5477
50.5477
50.5477
50.5477
50.5477
50.5477
50.5477
50.5477
50.5477
50.5477
50.5477
50.5477
50.5477
50.5477
50.5477
50.5477
50.5477
50.5477
50.5477
50.5477
50.5477
50.5477
50.5477
50.5477
50.5477
50.5477
50.5477
50.5477
50.5477
50.5477
50.5477
50.5477
50.5477
50.5477
50.5477
50.5477
50.5477
50.5477
50.5477
50.5477
50.5477
50.5477
50.5476
50.5476
50.5453
50.5525
50.5469
50.5469
50.5469
50.5469
50.5469
50.5469
50.5469
50.5469
50.5469
50.5469
50.5469
50.5469
50.5469
50.5469
50.5469
50.5469
50.5469
50.5469
50.5469
50.5469
50.5469
50.5469
50.5469
50.5469
50.5469
50.5469
50.5469
50.5469
50.5469
50.5468
50.5468
50.5468
50.5468
50.5468
50.5468
50.5469
50.547
50.5471
50.5471
50.5471
50.5472
50.5472
50.5472
50.5471
50.5471
50.5471
50.5471
50.5471
50.5471
50.5471
50.5471
50.5472
50.5472
50.5472
50.5472
50.5472
50.5473
50.5474
50.5474
50.5475
50.5476
50.5476
50.5476
50.5476
50.5476
50.5476
50.5476
50.5476
50.5475
50.5475
50.5475
50.5475
50.5476
50.5476
50.5477
50.5477
50.5478
50.5478
50.5478
50.5479
50.5479
50.5479
50.5479
50.5479
50.5479
50.5479
50.5479
50.5479
50.5479
50.5479
50.5479
50.5479
50.5479
50.5479
50.5479
50.5479
50.5479
50.5479
50.5479
50.5479
50.5479
50.5479
50.5479
50.5479
50.5479
50.5478
50.5478
50.5478
50.5478
50.5478
50.5478
50.5478
50.5478
50.5478
50.5478
50.5478
50.5478
50.5478
50.5478
50.5478
50.5478
50.5478
50.5478
50.5478
50.5478
50.5478
50.5477
50.5477
50.5477
50.5477
50.5477
50.5477
50.5477
50.5477
50.5477
50.5477
50.5477
50.5477
50.5477
50.5477
50.5477
50.5477
50.5477
50.5477
50.5477
50.5477
50.5477
50.5477
50.5477
50.5477
50.5477
50.5477
50.5477
50.5477
50.5477
50.5477
50.5477
50.5477
50.5477
50.5477
50.5477
50.5477
50.5477
50.5477
50.5477
50.5477
50.5477
50.5477
50.5477
50.5477
50.5477
50.5477
50.5477
50.5477
50.5477
50.5477
50.5477
50.5477
50.5477
50.5477
50.5477
50.5477
50.5477
50.5477
50.5477
50.5477
50.5477
50.5477
50.5477
50.5477
50.5477
50.5477
50.5477
50.5477
50.5477
50.5477
50.5476
50.5479
50.5434
50.5697
50.5469
50.5469
50.5469
50.5469
50.5469
50.5469
50.5469
50.5469
50.5469
50.5469
50.5469
50.5469
50.5469
50.5469
50.5469
50.5469
50.5469
50.5469
50.5469
50.5469
50.5469
50.5469
50.5469
50.5469
50.5469
50.5469
50.5469
50.5469
50.5469
50.5468
50.5468
50.5468
50.5468
50.5468
50.5468
50.5469
50.547
50.5471
50.5471
50.5471
50.5472
50.5472
50.5472
50.5471
50.5471
50.5471
50.5471
50.5471
50.5471
50.5471
50.5471
50.5472
50.5472
50.5472
50.5472
50.5472
50.5473
50.5474
50.5474
50.5475
50.5476
50.5476
50.5476
50.5476
50.5476
50.5476
50.5476
50.5476
50.5475
50.5475
50.5475
50.5475
50.5476
50.5476
50.5477
50.5477
50.5478
50.5478
50.5478
50.5479
50.5479
50.5479
50.5479
50.5479
50.5479
50.5479
50.5479
50.5479
50.5479
50.5479
50.5479
50.5479
50.5479
50.5479
50.5479
50.5479
50.5479
50.5479
50.5479
50.5479
50.5479
50.5479
50.5479
50.5479
50.5479
50.5478
50.5478
50.5478
50.5478
50.5478
50.5478
50.5478
50.5478
50.5478
50.5478
50.5478
50.5478
50.5478
50.5478
50.5478
50.5478
50.5478
50.5478
50.5478
50.5478
50.5478
50.5477
50.5477
50.5477
50.5477
50.5477
50.5477
50.5477
50.5477
50.5477
50.5477
50.5477
50.5477
50.5477
50.5477
50.5477
50.5477
50.5477
50.5477
50.5477
50.5477
50.5477
50.5477
50.5477
50.5477
50.5477
50.5477
50.5477
50.5477
50.5477
50.5477
50.5477
50.5477
50.5477
50.5477
50.5477
50.5477
50.5477
50.5477
50.5477
50.5477
50.5477
50.5477
50.5477
50.5477
50.5477
50.5477
50.5477
50.5477
50.5477
50.5477
50.5477
50.5477
50.5477
50.5477
50.5477
50.5477
50.5477
50.5477
50.5477
50.5477
50.5477
50.5477
50.5477
50.5477
50.5477
50.5477
50.5477
50.5477
50.5477
50.5477
50.5476
50.548
50.5424
50.5787
50.5461
50.5461
50.5461
50.5461
50.5461
50.5461
50.5461
50.5461
50.5461
50.5461
50.5461
50.5461
50.5461
50.5461
50.5461
50.5461
50.5462
50.5462
50.5462
50.5462
50.5462
50.5462
50.5462
50.5462
50.5462
50.5462
50.5462
50.5462
50.5462
50.5462
50.5461
50.5461
50.5461
50.5462
50.5462
50.5463
50.5463
50.5464
50.5465
50.5465
50.5465
50.5465
50.5465
50.5465
50.5465
50.5465
50.5465
50.5465
50.5465
50.5465
50.5465
50.5466
50.5466
50.5466
50.5466
50.5467
50.5467
50.5468
50.5469
50.5469
50.547
50.547
50.5471
50.5471
50.5471
50.5471
50.547
50.547
50.547
50.547
50.547
50.547
50.547
50.5471
50.5472
50.5472
50.5473
50.5473
50.5473
50.5473
50.5474
50.5474
50.5474
50.5474
50.5474
50.5474
50.5474
50.5474
50.5474
50.5474
50.5474
50.5474
50.5474
50.5474
50.5474
50.5474
50.5474
50.5474
50.5474
50.5474
50.5474
50.5474
50.5474
50.5474
50.5474
50.5474
50.5474
50.5474
50.5474
50.5473
50.5473
50.5473
50.5473
50.5473
50.5473
50.5473
50.5473
50.5473
50.5473
50.5473
50.5473
50.5473
50.5473
50.5473
50.5473
50.5473
50.5473
50.5473
50.5473
50.5473
50.5472
50.5472
50.5472
50.5472
50.5472
50.5472
50.5472
50.5472
50.5472
50.5472
50.5472
50.5472
50.5472
50.5472
50.5472
50.5472
50.5472
50.5472
50.5472
50.5472
50.5472
50.5472
50.5472
50.5472
50.5472
50.5472
50.5472
50.5472
50.5472
50.5472
50.5472
50.5472
50.5472
50.5472
50.5472
50.5472
50.5472
50.5472
50.5472
50.5472
50.5472
50.5472
50.5472
50.5472
50.5472
50.5472
50.5472
50.5472
50.5472
50.5472
50.5472
50.5472
50.5472
50.5472
50.5472
50.5472
50.5472
50.5472
50.5472
50.5472
50.5472
50.5472
50.5472
50.5472
50.5472
50.5472
50.5471
50.5476
50.5409
50.5869
50.5999
50.6221
50.6294
50.6305
50.6302
50.6301
50.6297
50.6291
50.6282
50.6272
50.6262
50.625
50.6237
50.6222
50.6203
50.6179
50.6147
50.6105
50.6045
50.5953
50.5968
50.6163
50.624
50.6254
50.6254
50.6254
50.6252
50.6247
50.6239
50.6231
50.6221
50.621
50.6198
50.6184
50.6165
50.6141
50.6108
50.6065
50.6004
50.5912
50.5937
50.6135
50.6223
50.6242
50.6242
50.6242
50.624
50.6234
50.6226
50.6217
50.6207
50.6196
50.6184
50.6169
50.615
50.6126
50.6093
50.6047
50.5982
50.5882
50.5829
50.5937
50.597
50.5966
50.5959
50.5955
50.5949
50.5941
50.593
50.5919
50.5908
50.5895
50.5881
50.5863
50.5841
50.5814
50.5784
50.574
50.5682
50.5602
50.5653
50.5725
50.578
50.5821
50.5849
50.5866
50.5874
50.5876
50.5875
50.5871
50.5863
50.5851
50.5838
50.582
50.5797
50.5768
50.573
50.5686
50.5634
50.5573
50.5336
50.5278
50.5215
50.515
50.5091
50.5043
50.5007
50.4979
50.4955
50.4936
50.4921
50.4911
50.49
50.4893
50.4884
50.4878
50.4875
50.4879
50.4884
50.4908
50.5002
50.489
50.4855
50.4863
50.4872
50.4878
50.4879
50.4883
50.4884
50.4886
50.4885
50.4885
50.4882
50.4881
50.4879
50.4884
50.4891
50.491
50.4944
50.5006
50.4586
50.4267
50.4017
50.3844
50.3726
50.3637
50.3569
50.352
50.3488
50.3468
50.3459
50.346
50.3471
50.3498
50.3543
50.3607
50.3685
50.3805
50.3944
50.413
50.45
50.416
50.3942
50.3812
50.3724
50.3659
50.3608
50.3574
50.3553
50.3547
50.3548
50.3559
50.3579
50.3612
50.3659
50.3725
50.381
50.3913
50.4051
50.4224
50.4391
50.3907
50.3632
50.3465
50.3351
50.3258
50.3182
50.3128
50.3091
50.3065
50.3055
50.3049
50.3063
50.3085
50.3132
50.3198
50.3286
50.3401
50.3554
50.3761
50.5553
50.5325
50.5262
50.5244
50.5238
50.5236
50.5236
50.5235
50.5235
50.5235
50.5235
50.5235
50.5236
50.5236
50.5236
50.5236
50.5236
50.5236
50.5236
50.5236
50.5236
50.5236
50.5236
50.5237
50.5237
50.5237
50.5236
50.5236
50.5236
50.5237
50.5237
50.5237
50.5238
50.5238
50.5238
50.5238
50.5238
50.5239
50.5239
50.5239
50.524
50.524
50.5241
50.5241
50.5242
50.5242
50.5243
50.5243
50.5244
50.5245
50.5246
50.5247
50.5248
50.5249
50.5249
50.525
50.5251
50.5252
50.5254
50.5255
50.5257
50.5258
50.526
50.5262
50.5264
50.5266
50.5268
50.5271
50.5273
50.5276
50.5279
50.5282
50.5285
50.5288
50.5291
50.5295
50.5299
50.5303
50.5307
50.5312
50.5317
50.5322
50.5327
50.5332
50.5338
50.5344
50.5351
50.5358
50.5365
50.5373
50.538
50.5389
50.5398
50.5408
50.542
50.5432
50.5446
50.5458
50.547
50.5483
50.5495
50.5507
50.5519
50.5529
50.5531
50.5502
50.5362
50.5009
50.4623
50.4273
50.3985
50.3775
50.3646
50.359
50.3588
50.3616
50.3716
50.4044
50.4523
50.494
50.5277
50.5532
50.5714
50.5838
50.5917
50.5965
50.5996
50.6022
50.604
50.6046
50.6055
50.6069
50.6086
50.6106
50.6128
50.6152
50.6177
50.6204
50.6231
50.6259
50.6288
50.6317
50.6347
50.6378
50.6409
50.6441
50.6474
50.6507
50.6541
50.6576
50.6611
50.6647
50.6683
50.672
50.6758
50.6796
50.6835
50.6875
50.6915
50.6956
50.6997
50.7039
50.7082
50.7125
50.7169
50.7214
50.7259
50.7305
50.7351
50.7399
50.7446
50.7495
50.7544
50.7594
50.7645
50.7696
50.7748
50.78
50.7853
50.7907
50.7962
50.8017
50.8073
50.813
50.8188
50.8246
50.8305
50.8364
50.8425
50.8486
50.8547
50.8611
50.8671
50.8739
50.88
50.8869
50.8927
50.8995
50.9009
50.9378
50.5551
50.5337
50.5277
50.526
50.5255
50.5253
50.5252
50.5252
50.5252
50.5252
50.5252
50.5252
50.5253
50.5253
50.5253
50.5253
50.5253
50.5253
50.5253
50.5253
50.5254
50.5254
50.5254
50.5254
50.5254
50.5254
50.5254
50.5254
50.5254
50.5254
50.5254
50.5254
50.5255
50.5255
50.5256
50.5256
50.5256
50.5256
50.5257
50.5257
50.5257
50.5258
50.5258
50.5259
50.5259
50.526
50.526
50.5261
50.5262
50.5262
50.5263
50.5264
50.5265
50.5266
50.5268
50.5269
50.5269
50.527
50.5272
50.5273
50.5275
50.5276
50.5278
50.528
50.5282
50.5284
50.5287
50.5289
50.5291
50.5294
50.5297
50.53
50.5303
50.5307
50.531
50.5313
50.5317
50.5321
50.5325
50.533
50.5335
50.534
50.5345
50.535
50.5356
50.5362
50.5368
50.5375
50.5382
50.5389
50.5397
50.5406
50.5415
50.5424
50.5434
50.5445
50.5455
50.5466
50.5477
50.5489
50.5501
50.5515
50.5534
50.5563
50.5597
50.563
50.566
50.5684
50.5704
50.5721
50.5736
50.5743
50.5721
50.5654
50.559
50.5542
50.5514
50.5506
50.5514
50.5535
50.5565
50.5626
50.5708
50.5778
50.5836
50.5884
50.5923
50.5954
50.5982
50.6009
50.6035
50.6058
50.6082
50.6106
50.613
50.6155
50.6181
50.6208
50.6235
50.6263
50.6292
50.6322
50.6352
50.6383
50.6414
50.6446
50.6479
50.6512
50.6546
50.6581
50.6616
50.6652
50.6688
50.6725
50.6763
50.6801
50.684
50.688
50.692
50.6961
50.7002
50.7044
50.7087
50.713
50.7174
50.7219
50.7264
50.731
50.7356
50.7403
50.7451
50.75
50.7549
50.7599
50.7649
50.7701
50.7752
50.7805
50.7858
50.7912
50.7967
50.8022
50.8078
50.8135
50.8192
50.8251
50.831
50.8369
50.8429
50.8491
50.8552
50.8616
50.8676
50.8744
50.8804
50.8874
50.8932
50.9
50.902
50.9327
50.5552
50.5345
50.528
50.526
50.5253
50.5251
50.525
50.525
50.5249
50.5249
50.5249
50.5249
50.5249
50.525
50.525
50.525
50.525
50.525
50.525
50.525
50.5251
50.5251
50.5251
50.5251
50.5251
50.5251
50.5251
50.5251
50.5251
50.5251
50.5251
50.5251
50.5252
50.5252
50.5253
50.5253
50.5253
50.5253
50.5254
50.5254
50.5254
50.5255
50.5255
50.5256
50.5256
50.5257
50.5257
50.5258
50.5259
50.5259
50.526
50.5261
50.5262
50.5263
50.5265
50.5266
50.5267
50.5268
50.5269
50.527
50.5272
50.5273
50.5275
50.5277
50.5279
50.5281
50.5284
50.5286
50.5289
50.5291
50.5294
50.5297
50.53
50.5304
50.5307
50.531
50.5314
50.5318
50.5323
50.5327
50.5332
50.5337
50.5342
50.5347
50.5353
50.5359
50.5365
50.5372
50.5379
50.5386
50.5394
50.5402
50.541
50.542
50.543
50.544
50.5451
50.5462
50.5473
50.5484
50.5496
50.5509
50.5523
50.5542
50.5574
50.5631
50.5689
50.5741
50.5784
50.5817
50.5841
50.586
50.5877
50.5888
50.5879
50.5832
50.5785
50.575
50.5728
50.572
50.5725
50.574
50.5762
50.5788
50.5823
50.5865
50.5902
50.5937
50.5968
50.5996
50.6024
50.6051
50.6077
50.6102
50.6128
50.6154
50.618
50.6207
50.6235
50.6263
50.6292
50.6322
50.6352
50.6383
50.6414
50.6446
50.6479
50.6512
50.6546
50.6581
50.6616
50.6652
50.6688
50.6725
50.6763
50.6801
50.684
50.688
50.692
50.6961
50.7002
50.7044
50.7087
50.713
50.7174
50.7219
50.7264
50.731
50.7356
50.7403
50.7451
50.75
50.7549
50.7599
50.7649
50.7701
50.7752
50.7805
50.7858
50.7912
50.7967
50.8022
50.8078
50.8135
50.8192
50.8251
50.831
50.8369
50.843
50.8491
50.8552
50.8616
50.8676
50.8744
50.8804
50.8874
50.8932
50.8999
50.9027
50.9257
50.5376
50.5234
50.5198
50.5196
50.5199
50.5202
50.5203
50.5204
50.5204
50.5204
50.5205
50.5205
50.5205
50.5205
50.5205
50.5205
50.5205
50.5206
50.5206
50.5206
50.5206
50.5206
50.5206
50.5206
50.5206
50.5206
50.5206
50.5206
50.5206
50.5206
50.5207
50.5207
50.5207
50.5208
50.5208
50.5208
50.5208
50.5209
50.5209
50.5209
50.521
50.521
50.5211
50.5211
50.5212
50.5212
50.5213
50.5213
50.5214
50.5215
50.5216
50.5217
50.5218
50.5219
50.522
50.5221
50.5222
50.5223
50.5224
50.5226
50.5227
50.5229
50.5231
50.5233
50.5235
50.5237
50.5239
50.5242
50.5244
50.5247
50.525
50.5253
50.5256
50.5259
50.5262
50.5266
50.527
50.5274
50.5278
50.5283
50.5288
50.5293
50.5298
50.5304
50.531
50.5316
50.5323
50.533
50.5337
50.5345
50.5353
50.5363
50.5373
50.5384
50.5395
50.5406
50.5417
50.5428
50.5439
50.545
50.5463
50.5477
50.5498
50.5532
50.557
50.5607
50.5641
50.567
50.5695
50.5715
50.5732
50.5749
50.5763
50.5769
50.576
50.5752
50.5748
50.5749
50.5756
50.5767
50.5782
50.58
50.5821
50.5844
50.587
50.5896
50.5922
50.5948
50.5973
50.5998
50.6023
50.6048
50.6073
50.6098
50.6124
50.615
50.6177
50.6205
50.6233
50.6261
50.629
50.632
50.6351
50.6382
50.6413
50.6446
50.6478
50.6512
50.6546
50.6581
50.6616
50.6652
50.6688
50.6725
50.6763
50.6801
50.684
50.688
50.692
50.6961
50.7002
50.7044
50.7087
50.713
50.7174
50.7219
50.7264
50.731
50.7356
50.7403
50.7451
50.75
50.7549
50.7599
50.7649
50.7701
50.7752
50.7805
50.7858
50.7912
50.7967
50.8022
50.8078
50.8135
50.8192
50.8251
50.831
50.8369
50.843
50.849
50.8552
50.8616
50.8676
50.8743
50.8805
50.8872
50.8936
50.8997
50.9042
50.9131
50.5429
50.5367
50.5331
50.53
50.528
50.527
50.5266
50.5264
50.5263
50.5263
50.5263
50.5262
50.5262
50.5262
50.5262
50.5262
50.5262
50.5263
50.5263
50.5263
50.5263
50.5263
50.5263
50.5263
50.5263
50.5264
50.5264
50.5264
50.5264
50.5264
50.5264
50.5264
50.5264
50.5265
50.5265
50.5265
50.5266
50.5266
50.5266
50.5267
50.5267
50.5267
50.5268
50.5268
50.5268
50.5269
50.527
50.527
50.5271
50.5272
50.5273
50.5273
50.5274
50.5275
50.5277
50.5278
50.5279
50.528
50.5282
50.5283
50.5285
50.5286
50.5288
50.529
50.5291
50.5294
50.5296
50.5298
50.5301
50.5303
50.5306
50.5309
50.5312
50.5315
50.5319
50.5322
50.5326
50.533
50.5334
50.5339
50.5343
50.5348
50.5353
50.5359
50.5364
50.537
50.5376
50.5382
50.5389
50.5396
50.5403
50.541
50.5418
50.5426
50.5435
50.5444
50.5454
50.5464
50.5474
50.5484
50.5495
50.5507
50.5519
50.5532
50.5546
50.5562
50.5583
50.5607
50.5631
50.5652
50.567
50.5688
50.5705
50.5722
50.5735
50.5746
50.5756
50.5768
50.5781
50.5796
50.5811
50.5829
50.5847
50.5867
50.5887
50.5908
50.593
50.5952
50.5975
50.5998
50.6022
50.6046
50.6071
50.6096
50.6122
50.6149
50.6176
50.6204
50.6232
50.626
50.629
50.632
50.635
50.6381
50.6413
50.6445
50.6478
50.6512
50.6546
50.658
50.6616
50.6652
50.6688
50.6725
50.6763
50.6801
50.684
50.688
50.692
50.6961
50.7002
50.7044
50.7087
50.713
50.7174
50.7219
50.7264
50.731
50.7356
50.7403
50.7451
50.75
50.7549
50.7599
50.7649
50.7701
50.7752
50.7805
50.7858
50.7912
50.7967
50.8022
50.8078
50.8135
50.8193
50.8251
50.8309
50.8369
50.8429
50.8491
50.8552
50.8614
50.8679
50.8741
50.8808
50.8871
50.8937
50.9004
50.9062
50.9111
50.4953
50.5017
50.5055
50.5083
50.51
50.5109
50.5113
50.5115
50.5116
50.5117
50.5117
50.5117
50.5117
50.5117
50.5117
50.5117
50.5117
50.5117
50.5117
50.5118
50.5118
50.5118
50.5118
50.5118
50.5118
50.5119
50.5119
50.5119
50.5118
50.5119
50.5119
50.5119
50.5119
50.5119
50.512
50.512
50.512
50.5121
50.5121
50.5121
50.5122
50.5122
50.5123
50.5123
50.5124
50.5125
50.5125
50.5126
50.5127
50.5128
50.5129
50.5129
50.513
50.5131
50.5132
50.5134
50.5135
50.5136
50.5138
50.5139
50.5141
50.5143
50.5144
50.5146
50.5148
50.5151
50.5153
50.5156
50.5159
50.5162
50.5166
50.5169
50.5173
50.5177
50.5181
50.5185
50.519
50.5195
50.5201
50.5208
50.5214
50.5221
50.5227
50.5234
50.5242
50.525
50.5259
50.5268
50.5279
50.529
50.5301
50.5312
50.5323
50.5334
50.5344
50.5354
50.5365
50.5376
50.5389
50.5404
50.5427
50.5455
50.5484
50.5512
50.554
50.5567
50.5592
50.5615
50.5637
50.5656
50.5674
50.5691
50.5708
50.5724
50.5736
50.5745
50.5755
50.5766
50.5778
50.5791
50.5807
50.5823
50.5841
50.586
50.588
50.5901
50.5923
50.5945
50.5968
50.5992
50.6016
50.6041
50.6066
50.6092
50.6119
50.6146
50.6173
50.6201
50.623
50.6259
50.6289
50.6319
50.6349
50.6381
50.6413
50.6445
50.6478
50.6511
50.6546
50.658
50.6616
50.6652
50.6688
50.6725
50.6763
50.6801
50.684
50.688
50.692
50.6961
50.7002
50.7044
50.7087
50.713
50.7174
50.7219
50.7264
50.731
50.7356
50.7403
50.7451
50.75
50.7549
50.7599
50.7649
50.7701
50.7752
50.7805
50.7858
50.7912
50.7967
50.8022
50.8078
50.8135
50.8193
50.8251
50.831
50.8369
50.843
50.849
50.8553
50.8614
50.8679
50.8741
50.8808
50.887
50.8941
50.9004
50.9086
50.913
50.5215
50.5337
50.5354
50.5344
50.5336
50.5332
50.5329
50.5328
50.5327
50.5327
50.5327
50.5327
50.5327
50.5327
50.5327
50.5327
50.5327
50.5327
50.5327
50.5327
50.5327
50.5327
50.5327
50.5328
50.5328
50.5328
50.5328
50.5328
50.5328
50.5328
50.5328
50.5329
50.5329
50.5329
50.5329
50.533
50.533
50.533
50.533
50.5331
50.5331
50.5331
50.5332
50.5332
50.5333
50.5333
50.5334
50.5335
50.5335
50.5336
50.5336
50.5337
50.5338
50.5339
50.534
50.5341
50.5343
50.5344
50.5345
50.5346
50.5348
50.5349
50.5351
50.5353
50.5355
50.5357
50.5359
50.5362
50.5365
50.5367
50.537
50.5373
50.5376
50.5379
50.5383
50.5387
50.5391
50.5395
50.5399
50.5403
50.5408
50.5413
50.5418
50.5423
50.5429
50.5435
50.5442
50.5448
50.5455
50.5462
50.547
50.5477
50.5485
50.5493
50.5502
50.551
50.5519
50.5527
50.5537
50.5546
50.5557
50.5569
50.558
50.5589
50.5597
50.5605
50.5615
50.5626
50.564
50.5656
50.5675
50.5699
50.5728
50.5753
50.5773
50.5793
50.5811
50.5826
50.5831
50.5835
50.5842
50.5851
50.5862
50.5876
50.5892
50.591
50.5929
50.595
50.5971
50.5994
50.6018
50.6042
50.6067
50.6093
50.6119
50.6146
50.6173
50.6201
50.623
50.6259
50.6288
50.6319
50.6349
50.6381
50.6412
50.6445
50.6478
50.6511
50.6546
50.658
50.6616
50.6651
50.6688
50.6725
50.6763
50.6801
50.684
50.688
50.692
50.6961
50.7002
50.7044
50.7087
50.713
50.7174
50.7219
50.7264
50.731
50.7356
50.7403
50.7451
50.75
50.7549
50.7599
50.7649
50.7701
50.7752
50.7805
50.7858
50.7912
50.7967
50.8022
50.8078
50.8135
50.8192
50.8251
50.831
50.8369
50.843
50.849
50.8553
50.8614
50.8679
50.8741
50.8808
50.8871
50.8942
50.9009
50.9101
50.9159
50.4763
50.5025
50.5094
50.5116
50.5122
50.5123
50.5123
50.5123
50.5123
50.5123
50.5123
50.5123
50.5123
50.5122
50.5122
50.5122
50.5122
50.5122
50.5122
50.5122
50.5123
50.5123
50.5123
50.5124
50.5124
50.5124
50.5124
50.5125
50.5125
50.5125
50.5125
50.5125
50.5125
50.5125
50.5125
50.5126
50.5126
50.5126
50.5127
50.5127
50.5127
50.5128
50.5128
50.5129
50.5129
50.513
50.5131
50.5132
50.5132
50.5133
50.5134
50.5136
50.5137
50.5139
50.5141
50.5142
50.5144
50.5145
50.5147
50.5148
50.515
50.5152
50.5154
50.5156
50.5158
50.516
50.5162
50.5164
50.5167
50.517
50.5173