/*--------------------------------*- C++ -*----------------------------------*\
| =========                 |                                                 |
| \\      /  F ield         | OpenFOAM: The Open Source CFD Toolbox           |
|  \\    /   O peration     | Version:  3.0.x                                 |
|   \\  /    A nd           | Web:      www.OpenFOAM.org                      |
|    \\/     M anipulation  |                                                 |
\*---------------------------------------------------------------------------*/
FoamFile
{
    version     2.0;
    format      ascii;
    class       volVectorField;
    location    "0.390075";
    object      U;
}
// * * * * * * * * * * * * * * * * * * * * * * * * * * * * * * * * * * * * * //

dimensions      [0 1 -1 0 0 0 0];

internalField   nonuniform List<vector> 
13800
(
(57.8962 0.000142472 0)
(57.8926 0.000123996 0)
(57.8889 0.000122704 0)
(57.8853 0.000124787 0)
(57.8815 0.000126578 0)
(57.8778 0.000128075 0)
(57.8741 0.000129326 0)
(57.8704 0.000130361 0)
(57.8667 0.000131219 0)
(57.863 0.000131934 0)
(57.8593 0.000132537 0)
(57.8555 0.000133046 0)
(57.8518 0.000133479 0)
(57.8481 0.00013385 0)
(57.8443 0.000134168 0)
(57.8406 0.000134441 0)
(57.8369 0.000134678 0)
(57.8331 0.000134882 0)
(57.8294 0.000135059 0)
(57.8256 0.000135213 0)
(57.8219 0.000135346 0)
(57.8181 0.000135461 0)
(57.8143 0.000135561 0)
(57.8106 0.00013565 0)
(57.8068 0.000135724 0)
(57.803 0.000135788 0)
(57.7993 0.000135834 0)
(57.7955 0.000135884 0)
(57.7917 0.000135956 0)
(57.788 0.000135975 0)
(57.7842 0.000136008 0)
(57.7804 0.000136038 0)
(57.7766 0.000136053 0)
(57.7728 0.000136078 0)
(57.769 0.000136154 0)
(57.7653 0.000136116 0)
(57.7615 0.000136143 0)
(57.7577 0.000136162 0)
(57.7539 0.000136175 0)
(57.7502 0.000136185 0)
(57.7464 0.000136193 0)
(57.7426 0.000136191 0)
(57.7389 0.000136191 0)
(57.7351 0.000136224 0)
(57.7313 0.000136211 0)
(57.7276 0.000136208 0)
(57.7238 0.000136206 0)
(57.72 0.000136177 0)
(57.7163 0.000136234 0)
(57.7125 0.00013621 0)
(57.7088 0.000136199 0)
(57.705 0.000136201 0)
(57.7013 0.000136201 0)
(57.6975 0.0001362 0)
(57.6938 0.000136199 0)
(57.69 0.000136196 0)
(57.6863 0.000136192 0)
(57.6825 0.000136185 0)
(57.6787 0.000136175 0)
(57.675 0.000136158 0)
(57.6712 0.000136134 0)
(57.6675 0.000136099 0)
(57.6637 0.000136048 0)
(57.66 0.000135976 0)
(57.6562 0.000135873 0)
(57.6525 0.000135722 0)
(57.6487 0.000135575 0)
(57.6449 0.000135311 0)
(57.6412 0.000134983 0)
(57.6374 0.000134556 0)
(57.6337 0.000133993 0)
(57.63 0.000133335 0)
(57.6263 0.00013259 0)
(57.6226 0.000131394 0)
(57.619 0.000130178 0)
(57.6154 0.000128658 0)
(57.6118 0.000126856 0)
(57.6083 0.000124747 0)
(57.6048 0.00012231 0)
(57.6014 0.000119528 0)
(57.5981 0.000116389 0)
(57.5949 0.00011289 0)
(57.5918 0.000109034 0)
(57.5888 0.000104836 0)
(57.586 0.000100315 0)
(57.5832 9.55034e-05 0)
(57.5806 9.04381e-05 0)
(57.5781 8.51648e-05 0)
(57.5758 7.97345e-05 0)
(57.5737 7.4203e-05 0)
(57.5717 6.86271e-05 0)
(57.5698 6.30701e-05 0)
(57.5681 5.75867e-05 0)
(57.5666 5.22194e-05 0)
(57.5652 4.70397e-05 0)
(57.5639 4.20818e-05 0)
(57.5628 3.73825e-05 0)
(57.5618 3.29729e-05 0)
(57.5609 2.88756e-05 0)
(57.5602 2.51053e-05 0)
(57.5595 2.16681e-05 0)
(57.559 1.85662e-05 0)
(57.5585 1.57902e-05 0)
(57.5581 1.33305e-05 0)
(57.5577 1.11707e-05 0)
(57.5574 9.29108e-06 0)
(57.5572 7.67044e-06 0)
(57.557 6.28509e-06 0)
(57.5568 5.11138e-06 0)
(57.5567 4.1257e-06 0)
(57.5566 3.30502e-06 0)
(57.5565 2.62756e-06 0)
(57.5565 2.07304e-06 0)
(57.5564 1.62302e-06 0)
(57.5564 1.26079e-06 0)
(57.5564 9.71647e-07 0)
(57.5564 7.42727e-07 0)
(57.5564 5.62938e-07 0)
(57.5564 4.22869e-07 0)
(57.5564 3.14611e-07 0)
(57.5564 2.31567e-07 0)
(57.5564 1.68354e-07 0)
(57.5564 1.20629e-07 0)
(57.5564 8.48191e-08 0)
(57.5564 5.81627e-08 0)
(57.5564 3.84757e-08 0)
(57.5564 2.39995e-08 0)
(57.5564 1.34831e-08 0)
(57.5564 5.7917e-09 0)
(57.5564 2.03442e-10 0)
(57.5564 -3.67848e-09 0)
(57.5563 -6.25192e-09 0)
(57.5563 -8.00194e-09 0)
(57.5563 -9.18946e-09 0)
(57.5563 -9.97488e-09 0)
(57.5563 -1.04793e-08 0)
(57.5563 -1.07863e-08 0)
(57.5562 -1.09615e-08 0)
(57.5562 -1.10518e-08 0)
(57.5562 -1.10804e-08 0)
(57.5562 -1.10728e-08 0)
(57.5561 -1.10422e-08 0)
(57.5561 -1.09982e-08 0)
(57.556 -1.09439e-08 0)
(57.556 -1.08823e-08 0)
(57.556 -1.08145e-08 0)
(57.5559 -1.07429e-08 0)
(57.5559 -1.06684e-08 0)
(57.5558 -1.05854e-08 0)
(57.5558 -1.0514e-08 0)
(57.5557 -1.06844e-08 0)
(57.5557 -1.00789e-08 0)
(57.5556 -1.02439e-08 0)
(57.5556 -1.01609e-08 0)
(57.5555 -1.01382e-08 0)
(57.5555 -1.00638e-08 0)
(57.5554 -9.59241e-09 0)
(57.5554 -9.93321e-09 0)
(57.5553 -9.64619e-09 0)
(57.5553 -9.48808e-09 0)
(57.5552 -9.49053e-09 0)
(57.5552 -9.4523e-09 0)
(57.5551 -9.40412e-09 0)
(57.5551 -9.37e-09 0)
(57.555 -9.33841e-09 0)
(57.555 -9.27891e-09 0)
(57.5549 -9.06499e-09 0)
(57.5549 -9.06603e-09 0)
(57.5548 -8.91544e-09 0)
(57.5548 -9.21079e-09 0)
(57.5548 -1.01683e-08 0)
(57.5547 -8.76709e-09 0)
(57.5547 -9.19942e-09 0)
(57.5546 -9.21919e-09 0)
(57.5546 -9.21133e-09 0)
(57.5546 -9.24961e-09 0)
(57.5545 -8.98218e-09 0)
(57.5545 -9.38385e-09 0)
(57.5545 -9.48212e-09 0)
(57.5544 -9.27625e-09 0)
(57.5544 -9.26479e-09 0)
(57.5544 -9.39964e-09 0)
(57.5544 -9.33906e-09 0)
(57.5543 -9.54559e-09 0)
(57.5543 -9.55393e-09 0)
(57.5543 -9.38541e-09 0)
(57.5543 -1.00912e-08 0)
(57.5543 -8.10944e-09 0)
(57.5543 -3.39566e-09 0)
(57.5543 1.92548e-08 0)
(57.5542 1.30891e-07 0)
(57.5542 6.65744e-07 0)
(57.5541 3.25165e-06 0)
(57.5537 1.55201e-05 0)
(57.5517 7.23588e-05 0)
(57.5425 0.000336903 0)
(57.5001 0.0015596 0)
(57.3039 0.00720528 0)
(56.6733 0.0367911 0)
(50.7264 0.144829 0)
(57.9001 0.000222426 0)
(57.9004 0.00016189 0)
(57.9006 0.000149596 0)
(57.9008 0.000147504 0)
(57.901 0.000145705 0)
(57.9012 0.000144286 0)
(57.9014 0.000143213 0)
(57.9016 0.00014235 0)
(57.9018 0.000141634 0)
(57.902 0.000141032 0)
(57.9021 0.000140525 0)
(57.9023 0.000140093 0)
(57.9025 0.000139722 0)
(57.9026 0.000139402 0)
(57.9028 0.000139125 0)
(57.903 0.000138885 0)
(57.9031 0.000138675 0)
(57.9033 0.000138491 0)
(57.9034 0.000138331 0)
(57.9035 0.000138189 0)
(57.9037 0.000138065 0)
(57.9038 0.000137955 0)
(57.9039 0.000137858 0)
(57.9041 0.000137776 0)
(57.9042 0.000137697 0)
(57.9043 0.00013763 0)
(57.9044 0.000137552 0)
(57.9046 0.000137503 0)
(57.9047 0.000137509 0)
(57.9048 0.000137437 0)
(57.9049 0.000137407 0)
(57.905 0.000137381 0)
(57.9051 0.00013734 0)
(57.9052 0.000137325 0)
(57.9053 0.000137411 0)
(57.9054 0.000137289 0)
(57.9055 0.000137312 0)
(57.9057 0.000137315 0)
(57.9058 0.000137314 0)
(57.9059 0.000137314 0)
(57.906 0.000137314 0)
(57.9061 0.000137303 0)
(57.9062 0.0001373 0)
(57.9063 0.000137356 0)
(57.9065 0.00013733 0)
(57.9066 0.000137331 0)
(57.9067 0.000137336 0)
(57.9068 0.000137292 0)
(57.9069 0.000137408 0)
(57.9071 0.000137366 0)
(57.9072 0.000137369 0)
(57.9073 0.000137386 0)
(57.9075 0.000137399 0)
(57.9076 0.000137413 0)
(57.9077 0.000137427 0)
(57.9079 0.00013744 0)
(57.908 0.000137452 0)
(57.9081 0.000137462 0)
(57.9083 0.000137469 0)
(57.9084 0.000137469 0)
(57.9085 0.000137462 0)
(57.9086 0.000137442 0)
(57.9088 0.000137406 0)
(57.9089 0.000137347 0)
(57.909 0.000137253 0)
(57.9091 0.000137097 0)
(57.9092 0.000136986 0)
(57.9093 0.000136704 0)
(57.9094 0.000136368 0)
(57.9095 0.000135926 0)
(57.9096 0.000135323 0)
(57.9097 0.000134651 0)
(57.9098 0.000133945 0)
(57.9099 0.000132572 0)
(57.91 0.000131339 0)
(57.9101 0.000129741 0)
(57.9102 0.000127847 0)
(57.9103 0.000125632 0)
(57.9103 0.000123076 0)
(57.9104 0.000120163 0)
(57.9105 0.000116883 0)
(57.9105 0.000113235 0)
(57.9106 0.000109225 0)
(57.9107 0.00010487 0)
(57.9107 0.000100193 0)
(57.9108 9.52285e-05 0)
(57.9108 9.0018e-05 0)
(57.9109 8.46099e-05 0)
(57.9109 7.90582e-05 0)
(57.9109 7.3421e-05 0)
(57.911 6.77557e-05 0)
(57.911 6.21315e-05 0)
(57.911 5.66006e-05 0)
(57.9111 5.11964e-05 0)
(57.9111 4.60068e-05 0)
(57.9111 4.10553e-05 0)
(57.9111 3.63773e-05 0)
(57.9111 3.20029e-05 0)
(57.9111 2.79524e-05 0)
(57.9111 2.42379e-05 0)
(57.9112 2.08629e-05 0)
(57.9112 1.78291e-05 0)
(57.9112 1.51218e-05 0)
(57.9112 1.27319e-05 0)
(57.9112 1.06404e-05 0)
(57.9112 8.82644e-06 0)
(57.9112 7.26778e-06 0)
(57.9112 5.93985e-06 0)
(57.9112 4.81858e-06 0)
(57.9112 3.88003e-06 0)
(57.9112 3.10119e-06 0)
(57.9112 2.46034e-06 0)
(57.9112 1.93751e-06 0)
(57.9112 1.51464e-06 0)
(57.9112 1.1753e-06 0)
(57.9112 9.05321e-07 0)
(57.9112 6.92261e-07 0)
(57.9112 5.25489e-07 0)
(57.9112 3.96005e-07 0)
(57.9112 2.96287e-07 0)
(57.9112 2.20059e-07 0)
(57.9112 1.62251e-07 0)
(57.9112 1.18823e-07 0)
(57.9112 8.63514e-08 0)
(57.9112 6.23109e-08 0)
(57.9112 4.46578e-08 0)
(57.9112 3.1734e-08 0)
(57.9112 2.2499e-08 0)
(57.9112 1.58692e-08 0)
(57.9112 1.12568e-08 0)
(57.9112 8.04391e-09 0)
(57.9111 5.61392e-09 0)
(57.9111 3.95013e-09 0)
(57.9111 2.8377e-09 0)
(57.9111 2.12844e-09 0)
(57.911 1.6861e-09 0)
(57.911 1.43395e-09 0)
(57.911 1.30477e-09 0)
(57.911 1.25403e-09 0)
(57.9109 1.2565e-09 0)
(57.9109 1.29023e-09 0)
(57.9108 1.34201e-09 0)
(57.9108 1.41788e-09 0)
(57.9108 1.49938e-09 0)
(57.9107 1.58789e-09 0)
(57.9107 1.68787e-09 0)
(57.9106 1.78652e-09 0)
(57.9106 1.89999e-09 0)
(57.9105 2.02009e-09 0)
(57.9105 2.11763e-09 0)
(57.9104 1.46231e-09 0)
(57.9104 3.15718e-09 0)
(57.9103 2.5649e-09 0)
(57.9102 2.63565e-09 0)
(57.9102 2.66586e-09 0)
(57.9101 2.79387e-09 0)
(57.9101 3.16029e-09 0)
(57.91 2.99298e-09 0)
(57.91 3.47636e-09 0)
(57.9099 3.68541e-09 0)
(57.9098 3.42275e-09 0)
(57.9098 3.5852e-09 0)
(57.9097 3.67575e-09 0)
(57.9097 3.71178e-09 0)
(57.9096 3.74587e-09 0)
(57.9096 3.77327e-09 0)
(57.9095 3.81635e-09 0)
(57.9095 3.81849e-09 0)
(57.9094 4.37344e-09 0)
(57.9094 3.98951e-09 0)
(57.9093 2.1211e-09 0)
(57.9093 4.96353e-09 0)
(57.9092 4.02441e-09 0)
(57.9092 3.88665e-09 0)
(57.9091 3.91469e-09 0)
(57.9091 3.84433e-09 0)
(57.909 4.33023e-09 0)
(57.909 4.34983e-09 0)
(57.909 2.90869e-09 0)
(57.9089 3.57077e-09 0)
(57.9089 3.68738e-09 0)
(57.9089 3.62911e-09 0)
(57.9088 3.21733e-09 0)
(57.9088 3.34615e-09 0)
(57.9088 3.22829e-09 0)
(57.9088 4.48793e-09 0)
(57.9087 2.09329e-09 0)
(57.9087 8.58049e-09 0)
(57.9087 2.48679e-08 0)
(57.9087 1.02069e-07 0)
(57.9087 4.8272e-07 0)
(57.9086 2.30349e-06 0)
(57.9085 1.11079e-05 0)
(57.9081 5.28845e-05 0)
(57.9061 0.000246422 0)
(57.8969 0.00114716 0)
(57.8547 0.00531122 0)
(57.6592 0.0244967 0)
(57.0282 0.122386 0)
(51.4043 0.455136 0)
(57.9001 0.000163203 0)
(57.9004 0.000113255 0)
(57.9006 0.000107488 0)
(57.9008 0.000110526 0)
(57.901 0.000111553 0)
(57.9012 0.000112016 0)
(57.9014 0.000112414 0)
(57.9016 0.000112742 0)
(57.9018 0.000113008 0)
(57.902 0.000113227 0)
(57.9021 0.000113418 0)
(57.9023 0.000113583 0)
(57.9025 0.000113727 0)
(57.9027 0.000113851 0)
(57.9028 0.000113962 0)
(57.903 0.00011406 0)
(57.9031 0.000114147 0)
(57.9033 0.000114225 0)
(57.9034 0.000114295 0)
(57.9036 0.000114357 0)
(57.9037 0.000114414 0)
(57.9039 0.000114464 0)
(57.904 0.00011451 0)
(57.9041 0.000114555 0)
(57.9043 0.000114589 0)
(57.9044 0.000114623 0)
(57.9045 0.000114639 0)
(57.9046 0.00011467 0)
(57.9048 0.000114737 0)
(57.9049 0.000114738 0)
(57.905 0.000114765 0)
(57.9051 0.000114789 0)
(57.9052 0.000114797 0)
(57.9054 0.000114824 0)
(57.9055 0.000114928 0)
(57.9056 0.000114849 0)
(57.9057 0.000114905 0)
(57.9058 0.000114931 0)
(57.9059 0.000114951 0)
(57.9061 0.000114971 0)
(57.9062 0.00011499 0)
(57.9063 0.000114997 0)
(57.9064 0.00011501 0)
(57.9066 0.000115068 0)
(57.9067 0.000115057 0)
(57.9068 0.000115071 0)
(57.907 0.000115087 0)
(57.9071 0.00011506 0)
(57.9072 0.000115165 0)
(57.9074 0.000115129 0)
(57.9075 0.000115148 0)
(57.9077 0.000115168 0)
(57.9078 0.000115183 0)
(57.908 0.0001152 0)
(57.9081 0.000115216 0)
(57.9083 0.000115231 0)
(57.9084 0.000115245 0)
(57.9086 0.000115257 0)
(57.9087 0.000115265 0)
(57.9088 0.000115268 0)
(57.909 0.000115264 0)
(57.9091 0.000115249 0)
(57.9093 0.00011522 0)
(57.9094 0.000115171 0)
(57.9095 0.000115092 0)
(57.9097 0.000114958 0)
(57.9098 0.000114862 0)
(57.9099 0.000114618 0)
(57.91 0.000114331 0)
(57.9102 0.000113951 0)
(57.9103 0.000113435 0)
(57.9104 0.000112855 0)
(57.9105 0.000112237 0)
(57.9106 0.000111072 0)
(57.9107 0.000110012 0)
(57.9108 0.000108641 0)
(57.9109 0.000107019 0)
(57.911 0.000105125 0)
(57.911 0.000102942 0)
(57.9111 0.000100457 0)
(57.9112 9.76633e-05 0)
(57.9113 9.45596e-05 0)
(57.9113 9.1153e-05 0)
(57.9114 8.74576e-05 0)
(57.9114 8.34955e-05 0)
(57.9115 7.92958e-05 0)
(57.9115 7.48944e-05 0)
(57.9115 7.03329e-05 0)
(57.9116 6.56572e-05 0)
(57.9116 6.09167e-05 0)
(57.9116 5.61605e-05 0)
(57.9116 5.14435e-05 0)
(57.9116 4.68152e-05 0)
(57.9116 4.22982e-05 0)
(57.9116 3.79678e-05 0)
(57.9116 3.3842e-05 0)
(57.9116 2.995e-05 0)
(57.9116 2.63165e-05 0)
(57.9116 2.29571e-05 0)
(57.9116 1.98809e-05 0)
(57.9116 1.70901e-05 0)
(57.9116 1.45853e-05 0)
(57.9116 1.23534e-05 0)
(57.9115 1.03859e-05 0)
(57.9115 8.66674e-06 0)
(57.9115 7.17789e-06 0)
(57.9115 5.9003e-06 0)
(57.9115 4.81347e-06 0)
(57.9115 3.89713e-06 0)
(57.9115 3.13121e-06 0)
(57.9115 2.4965e-06 0)
(57.9115 1.97501e-06 0)
(57.9115 1.55016e-06 0)
(57.9115 1.20706e-06 0)
(57.9115 9.32071e-07 0)
(57.9115 7.13615e-07 0)
(57.9115 5.41449e-07 0)
(57.9115 4.06859e-07 0)
(57.9115 3.02485e-07 0)
(57.9115 2.22189e-07 0)
(57.9115 1.60865e-07 0)
(57.9115 1.14402e-07 0)
(57.9115 7.95286e-08 0)
(57.9115 5.34591e-08 0)
(57.9115 3.41904e-08 0)
(57.9115 2.00488e-08 0)
(57.9115 9.71741e-09 0)
(57.9115 2.33716e-09 0)
(57.9115 -3.01724e-09 0)
(57.9115 -6.83069e-09 0)
(57.9115 -9.52611e-09 0)
(57.9115 -1.13497e-08 0)
(57.9114 -1.25896e-08 0)
(57.9114 -1.34296e-08 0)
(57.9114 -1.39763e-08 0)
(57.9114 -1.43196e-08 0)
(57.9113 -1.45169e-08 0)
(57.9113 -1.462e-08 0)
(57.9113 -1.46604e-08 0)
(57.9112 -1.46624e-08 0)
(57.9112 -1.46424e-08 0)
(57.9112 -1.46104e-08 0)
(57.9111 -1.45683e-08 0)
(57.9111 -1.45116e-08 0)
(57.911 -1.44571e-08 0)
(57.911 -1.43957e-08 0)
(57.9109 -1.43259e-08 0)
(57.9109 -1.42475e-08 0)
(57.9108 -1.41608e-08 0)
(57.9108 -1.41085e-08 0)
(57.9107 -1.52526e-08 0)
(57.9107 -1.28055e-08 0)
(57.9106 -1.37526e-08 0)
(57.9106 -1.37612e-08 0)
(57.9105 -1.36645e-08 0)
(57.9105 -1.35709e-08 0)
(57.9104 -1.40584e-08 0)
(57.9103 -1.33142e-08 0)
(57.9103 -1.3055e-08 0)
(57.9102 -1.28927e-08 0)
(57.9102 -1.36099e-08 0)
(57.9101 -1.32673e-08 0)
(57.9101 -1.31913e-08 0)
(57.91 -1.31367e-08 0)
(57.9099 -1.30883e-08 0)
(57.9099 -1.30942e-08 0)
(57.9098 -1.32311e-08 0)
(57.9098 -1.32161e-08 0)
(57.9097 -1.2578e-08 0)
(57.9097 -1.29579e-08 0)
(57.9096 -1.50204e-08 0)
(57.9096 -1.20634e-08 0)
(57.9095 -1.29628e-08 0)
(57.9095 -1.32278e-08 0)
(57.9094 -1.30839e-08 0)
(57.9094 -1.31134e-08 0)
(57.9093 -1.28743e-08 0)
(57.9093 -1.13144e-08 0)
(57.9093 -1.52738e-08 0)
(57.9092 -1.34484e-08 0)
(57.9092 -1.30282e-08 0)
(57.9092 -1.26881e-08 0)
(57.9091 -1.46976e-08 0)
(57.9091 -1.2311e-08 0)
(57.9091 -1.316e-08 0)
(57.9091 -1.30296e-08 0)
(57.9091 -1.50633e-08 0)
(57.909 -1.97857e-09 0)
(57.909 3.0175e-08 0)
(57.909 1.82841e-07 0)
(57.909 9.38054e-07 0)
(57.909 4.54723e-06 0)
(57.9089 2.1998e-05 0)
(57.9084 0.000104851 0)
(57.9065 0.000488621 0)
(57.8976 0.0022751 0)
(57.8565 0.0105407 0)
(57.6668 0.0486102 0)
(57.0579 0.241665 0)
(51.7526 0.879429 0)
(57.9001 0.000118902 0)
(57.9003 0.000103117 0)
(57.9006 0.000100129 0)
(57.9008 0.000104071 0)
(57.901 0.000106165 0)
(57.9012 0.000107391 0)
(57.9014 0.000108425 0)
(57.9016 0.000109303 0)
(57.9017 0.000110034 0)
(57.9019 0.000110639 0)
(57.9021 0.000111158 0)
(57.9023 0.000111605 0)
(57.9025 0.000111986 0)
(57.9026 0.000112311 0)
(57.9028 0.000112595 0)
(57.9029 0.000112843 0)
(57.9031 0.000113058 0)
(57.9033 0.000113247 0)
(57.9034 0.000113413 0)
(57.9036 0.00011356 0)
(57.9037 0.000113688 0)
(57.9038 0.000113802 0)
(57.904 0.000113903 0)
(57.9041 0.000113994 0)
(57.9042 0.000114071 0)
(57.9044 0.000114141 0)
(57.9045 0.000114196 0)
(57.9046 0.000114252 0)
(57.9047 0.000114331 0)
(57.9049 0.000114364 0)
(57.905 0.000114407 0)
(57.9051 0.000114447 0)
(57.9052 0.000114476 0)
(57.9053 0.000114515 0)
(57.9054 0.000114601 0)
(57.9056 0.000114568 0)
(57.9057 0.000114619 0)
(57.9058 0.000114651 0)
(57.9059 0.000114677 0)
(57.906 0.000114701 0)
(57.9062 0.000114724 0)
(57.9063 0.000114739 0)
(57.9064 0.000114756 0)
(57.9065 0.000114798 0)
(57.9067 0.000114801 0)
(57.9068 0.000114815 0)
(57.9069 0.00011483 0)
(57.9071 0.000114819 0)
(57.9072 0.000114891 0)
(57.9074 0.000114873 0)
(57.9075 0.00011489 0)
(57.9076 0.000114908 0)
(57.9078 0.000114922 0)
(57.9079 0.000114938 0)
(57.9081 0.000114953 0)
(57.9082 0.000114967 0)
(57.9084 0.00011498 0)
(57.9085 0.000114991 0)
(57.9087 0.000114998 0)
(57.9088 0.000115001 0)
(57.909 0.000114997 0)
(57.9091 0.000114983 0)
(57.9092 0.000114956 0)
(57.9094 0.000114911 0)
(57.9095 0.00011484 0)
(57.9096 0.000114722 0)
(57.9098 0.000114618 0)
(57.9099 0.000114405 0)
(57.91 0.000114141 0)
(57.9101 0.000113793 0)
(57.9102 0.000113327 0)
(57.9104 0.000112784 0)
(57.9105 0.000112166 0)
(57.9106 0.000111158 0)
(57.9107 0.000110139 0)
(57.9108 0.000108859 0)
(57.9108 0.000107339 0)
(57.9109 0.000105558 0)
(57.911 0.000103499 0)
(57.9111 0.000101146 0)
(57.9112 9.84902e-05 0)
(57.9112 9.55288e-05 0)
(57.9113 9.22655e-05 0)
(57.9113 8.87112e-05 0)
(57.9114 8.48844e-05 0)
(57.9114 8.0811e-05 0)
(57.9115 7.65234e-05 0)
(57.9115 7.20604e-05 0)
(57.9115 6.7465e-05 0)
(57.9116 6.27846e-05 0)
(57.9116 5.80693e-05 0)
(57.9116 5.33633e-05 0)
(57.9116 4.87318e-05 0)
(57.9116 4.41907e-05 0)
(57.9116 3.98116e-05 0)
(57.9116 3.56207e-05 0)
(57.9116 3.16482e-05 0)
(57.9116 2.79214e-05 0)
(57.9116 2.44588e-05 0)
(57.9116 2.12725e-05 0)
(57.9116 1.83679e-05 0)
(57.9116 1.5747e-05 0)
(57.9116 1.34011e-05 0)
(57.9115 1.13226e-05 0)
(57.9115 9.49732e-06 0)
(57.9115 7.90882e-06 0)
(57.9115 6.53894e-06 0)
(57.9115 5.36786e-06 0)
(57.9115 4.37562e-06 0)
(57.9115 3.54217e-06 0)
(57.9115 2.84811e-06 0)
(57.9115 2.27506e-06 0)
(57.9115 1.80593e-06 0)
(57.9115 1.42514e-06 0)
(57.9115 1.11852e-06 0)
(57.9115 8.73717e-07 0)
(57.9115 6.79848e-07 0)
(57.9115 5.27545e-07 0)
(57.9115 4.0885e-07 0)
(57.9115 3.17083e-07 0)
(57.9115 2.46663e-07 0)
(57.9115 1.93043e-07 0)
(57.9115 1.52568e-07 0)
(57.9115 1.22181e-07 0)
(57.9115 9.95742e-08 0)
(57.9115 8.28745e-08 0)
(57.9115 7.05979e-08 0)
(57.9115 6.16867e-08 0)
(57.9115 5.51408e-08 0)
(57.9115 5.03822e-08 0)
(57.9115 4.7029e-08 0)
(57.9115 4.4879e-08 0)
(57.9114 4.33845e-08 0)
(57.9114 4.2363e-08 0)
(57.9114 4.16818e-08 0)
(57.9114 4.12366e-08 0)
(57.9113 4.09588e-08 0)
(57.9113 4.07994e-08 0)
(57.9113 4.07063e-08 0)
(57.9112 4.06636e-08 0)
(57.9112 4.0661e-08 0)
(57.9112 4.06761e-08 0)
(57.9111 4.07039e-08 0)
(57.9111 4.07521e-08 0)
(57.911 4.08022e-08 0)
(57.911 4.08528e-08 0)
(57.9109 4.09104e-08 0)
(57.9109 4.09834e-08 0)
(57.9108 4.10694e-08 0)
(57.9108 4.11096e-08 0)
(57.9107 3.84646e-08 0)
(57.9107 4.46699e-08 0)
(57.9106 4.18504e-08 0)
(57.9106 4.14453e-08 0)
(57.9105 4.17168e-08 0)
(57.9105 4.17569e-08 0)
(57.9104 4.03625e-08 0)
(57.9103 4.21334e-08 0)
(57.9103 4.24684e-08 0)
(57.9102 4.32956e-08 0)
(57.9102 4.06769e-08 0)
(57.9101 4.18105e-08 0)
(57.9101 4.20569e-08 0)
(57.91 4.18211e-08 0)
(57.9099 4.18544e-08 0)
(57.9099 4.20142e-08 0)
(57.9098 4.22099e-08 0)
(57.9098 4.23664e-08 0)
(57.9097 4.28072e-08 0)
(57.9097 4.22937e-08 0)
(57.9096 3.69986e-08 0)
(57.9096 4.56916e-08 0)
(57.9095 4.31262e-08 0)
(57.9095 4.19959e-08 0)
(57.9094 4.23555e-08 0)
(57.9094 4.18632e-08 0)
(57.9093 4.01877e-08 0)
(57.9093 5.24736e-08 0)
(57.9093 3.52029e-08 0)
(57.9092 4.06846e-08 0)
(57.9092 4.22491e-08 0)
(57.9092 4.36657e-08 0)
(57.9091 3.96585e-08 0)
(57.9091 4.23469e-08 0)
(57.9091 4.18923e-08 0)
(57.9091 4.37101e-08 0)
(57.9091 4.39e-08 0)
(57.909 6.43742e-08 0)
(57.909 1.51072e-07 0)
(57.909 5.40573e-07 0)
(57.909 2.45165e-06 0)
(57.909 1.15817e-05 0)
(57.9089 5.56474e-05 0)
(57.9085 0.000265721 0)
(57.9068 0.00123698 0)
(57.8989 0.00575551 0)
(57.8624 0.0265902 0)
(57.6969 0.121054 0)
(57.1693 0.554018 0)
(53.1508 1.98306 0)
(57.9001 3.56551e-05 0)
(57.9003 2.7748e-05 0)
(57.9006 1.95148e-05 0)
(57.9008 1.62353e-05 0)
(57.901 1.37034e-05 0)
(57.9012 1.15396e-05 0)
(57.9013 9.84011e-06 0)
(57.9015 8.48052e-06 0)
(57.9017 7.36022e-06 0)
(57.9019 6.41714e-06 0)
(57.9021 5.6244e-06 0)
(57.9023 4.95172e-06 0)
(57.9024 4.37278e-06 0)
(57.9026 3.87072e-06 0)
(57.9028 3.4367e-06 0)
(57.9029 3.05891e-06 0)
(57.9031 2.72856e-06 0)
(57.9032 2.43899e-06 0)
(57.9034 2.18438e-06 0)
(57.9035 1.96023e-06 0)
(57.9037 1.7622e-06 0)
(57.9038 1.58714e-06 0)
(57.9039 1.4323e-06 0)
(57.9041 1.29572e-06 0)
(57.9042 1.17337e-06 0)
(57.9043 1.06489e-06 0)
(57.9045 9.66434e-07 0)
(57.9046 8.80171e-07 0)
(57.9047 8.12423e-07 0)
(57.9048 7.4041e-07 0)
(57.905 6.79449e-07 0)
(57.9051 6.25323e-07 0)
(57.9052 5.74348e-07 0)
(57.9053 5.32676e-07 0)
(57.9054 5.08602e-07 0)
(57.9055 4.55465e-07 0)
(57.9057 4.30784e-07 0)
(57.9058 4.05466e-07 0)
(57.9059 3.81483e-07 0)
(57.906 3.60561e-07 0)
(57.9061 3.42028e-07 0)
(57.9063 3.24653e-07 0)
(57.9064 3.09483e-07 0)
(57.9065 3.02375e-07 0)
(57.9066 2.8822e-07 0)
(57.9068 2.78057e-07 0)
(57.9069 2.69496e-07 0)
(57.9071 2.55345e-07 0)
(57.9072 2.65373e-07 0)
(57.9073 2.49751e-07 0)
(57.9075 2.45565e-07 0)
(57.9076 2.42679e-07 0)
(57.9078 2.39084e-07 0)
(57.9079 2.36276e-07 0)
(57.9081 2.33887e-07 0)
(57.9082 2.31849e-07 0)
(57.9084 2.30144e-07 0)
(57.9085 2.28709e-07 0)
(57.9086 2.27466e-07 0)
(57.9088 2.26318e-07 0)
(57.9089 2.25127e-07 0)
(57.9091 2.23724e-07 0)
(57.9092 2.2192e-07 0)
(57.9094 2.1989e-07 0)
(57.9095 2.15373e-07 0)
(57.9096 2.04719e-07 0)
(57.9097 2.08594e-07 0)
(57.9099 1.94502e-07 0)
(57.91 1.80643e-07 0)
(57.9101 1.62792e-07 0)
(57.9102 1.36115e-07 0)
(57.9103 1.16835e-07 0)
(57.9104 1.08774e-07 0)
(57.9105 3.64897e-08 0)
(57.9106 3.13349e-09 0)
(57.9107 -4.74958e-08 0)
(57.9108 -1.06151e-07 0)
(57.9109 -1.71821e-07 0)
(57.911 -2.44061e-07 0)
(57.9111 -3.2203e-07 0)
(57.9111 -4.046e-07 0)
(57.9112 -4.90361e-07 0)
(57.9113 -5.7765e-07 0)
(57.9113 -6.64563e-07 0)
(57.9114 -7.49061e-07 0)
(57.9114 -8.29046e-07 0)
(57.9115 -9.02476e-07 0)
(57.9115 -9.67355e-07 0)
(57.9115 -1.02224e-06 0)
(57.9115 -1.06551e-06 0)
(57.9116 -1.0951e-06 0)
(57.9116 -1.11599e-06 0)
(57.9116 -1.11527e-06 0)
(57.9116 -1.11006e-06 0)
(57.9116 -1.08871e-06 0)
(57.9116 -1.05567e-06 0)
(57.9116 -1.0136e-06 0)
(57.9116 -9.62951e-07 0)
(57.9116 -9.05717e-07 0)
(57.9116 -8.43636e-07 0)
(57.9116 -7.78578e-07 0)
(57.9116 -7.11538e-07 0)
(57.9115 -6.45093e-07 0)
(57.9115 -5.79861e-07 0)
(57.9115 -5.17129e-07 0)
(57.9115 -4.57888e-07 0)
(57.9115 -4.02676e-07 0)
(57.9115 -3.52053e-07 0)
(57.9115 -3.0622e-07 0)
(57.9115 -2.65285e-07 0)
(57.9115 -2.29181e-07 0)
(57.9115 -1.97716e-07 0)
(57.9115 -1.70591e-07 0)
(57.9115 -1.47468e-07 0)
(57.9115 -1.27982e-07 0)
(57.9115 -1.1171e-07 0)
(57.9115 -9.82593e-08 0)
(57.9115 -8.72413e-08 0)
(57.9115 -7.82935e-08 0)
(57.9115 -7.10815e-08 0)
(57.9115 -6.53221e-08 0)
(57.9115 -6.07547e-08 0)
(57.9115 -5.7147e-08 0)
(57.9115 -5.43361e-08 0)
(57.9115 -5.21532e-08 0)
(57.9115 -5.04726e-08 0)
(57.9115 -4.91969e-08 0)
(57.9115 -4.82059e-08 0)
(57.9115 -4.74103e-08 0)
(57.9115 -4.67009e-08 0)
(57.9115 -4.61871e-08 0)
(57.9115 -4.59965e-08 0)
(57.9114 -4.59073e-08 0)
(57.9114 -4.58111e-08 0)
(57.9114 -4.57317e-08 0)
(57.9114 -4.5675e-08 0)
(57.9113 -4.56239e-08 0)
(57.9113 -4.55661e-08 0)
(57.9113 -4.55384e-08 0)
(57.9112 -4.55098e-08 0)
(57.9112 -4.54828e-08 0)
(57.9112 -4.54642e-08 0)
(57.9111 -4.54527e-08 0)
(57.9111 -4.54246e-08 0)
(57.911 -4.54041e-08 0)
(57.911 -4.539e-08 0)
(57.9109 -4.53695e-08 0)
(57.9109 -4.53136e-08 0)
(57.9108 -4.52382e-08 0)
(57.9108 -4.49306e-08 0)
(57.9107 -4.37919e-08 0)
(57.9107 -4.60569e-08 0)
(57.9106 -4.53329e-08 0)
(57.9106 -4.51222e-08 0)
(57.9105 -4.4363e-08 0)
(57.9105 -4.5481e-08 0)
(57.9104 -4.66156e-08 0)
(57.9103 -4.43629e-08 0)
(57.9103 -4.42528e-08 0)
(57.9102 -4.42891e-08 0)
(57.9102 -4.65087e-08 0)
(57.9101 -4.46796e-08 0)
(57.9101 -4.50768e-08 0)
(57.91 -4.49076e-08 0)
(57.9099 -4.50798e-08 0)
(57.9099 -4.50154e-08 0)
(57.9098 -4.50016e-08 0)
(57.9098 -4.50243e-08 0)
(57.9097 -4.46579e-08 0)
(57.9097 -4.48372e-08 0)
(57.9096 -4.74565e-08 0)
(57.9096 -4.31855e-08 0)
(57.9095 -4.45015e-08 0)
(57.9095 -4.50344e-08 0)
(57.9094 -4.48312e-08 0)
(57.9094 -4.46946e-08 0)
(57.9093 -4.37763e-08 0)
(57.9093 -4.04594e-08 0)
(57.9093 -4.94151e-08 0)
(57.9092 -4.58757e-08 0)
(57.9092 -4.4413e-08 0)
(57.9092 -4.16903e-08 0)
(57.9091 -4.80376e-08 0)
(57.9091 -4.59042e-08 0)
(57.9091 -4.53625e-08 0)
(57.9091 -4.6437e-08 0)
(57.9091 -2.95923e-08 0)
(57.909 -1.27275e-08 0)
(57.909 1.33609e-07 0)
(57.909 7.86317e-07 0)
(57.909 3.95622e-06 0)
(57.909 1.91065e-05 0)
(57.9089 9.19603e-05 0)
(57.9088 0.00043961 0)
(57.9081 0.00205854 0)
(57.905 0.0095997 0)
(57.8901 0.0445076 0)
(57.8187 0.203026 0)
(57.5866 0.901997 0)
(55.1846 3.19761 0)
(57.9001 -3.56551e-05 0)
(57.9003 -2.7748e-05 0)
(57.9006 -1.95148e-05 0)
(57.9008 -1.62353e-05 0)
(57.901 -1.37034e-05 0)
(57.9012 -1.15396e-05 0)
(57.9013 -9.84011e-06 0)
(57.9015 -8.48052e-06 0)
(57.9017 -7.36022e-06 0)
(57.9019 -6.41714e-06 0)
(57.9021 -5.6244e-06 0)
(57.9023 -4.95172e-06 0)
(57.9024 -4.37278e-06 0)
(57.9026 -3.87072e-06 0)
(57.9028 -3.4367e-06 0)
(57.9029 -3.05892e-06 0)
(57.9031 -2.72856e-06 0)
(57.9032 -2.439e-06 0)
(57.9034 -2.18438e-06 0)
(57.9035 -1.96023e-06 0)
(57.9037 -1.7622e-06 0)
(57.9038 -1.58714e-06 0)
(57.9039 -1.4323e-06 0)
(57.9041 -1.29572e-06 0)
(57.9042 -1.17337e-06 0)
(57.9043 -1.06489e-06 0)
(57.9045 -9.66434e-07 0)
(57.9046 -8.80172e-07 0)
(57.9047 -8.12423e-07 0)
(57.9048 -7.4041e-07 0)
(57.905 -6.79449e-07 0)
(57.9051 -6.25323e-07 0)
(57.9052 -5.74348e-07 0)
(57.9053 -5.32676e-07 0)
(57.9054 -5.08603e-07 0)
(57.9055 -4.55464e-07 0)
(57.9057 -4.30783e-07 0)
(57.9058 -4.05466e-07 0)
(57.9059 -3.81483e-07 0)
(57.906 -3.60563e-07 0)
(57.9061 -3.42028e-07 0)
(57.9063 -3.24654e-07 0)
(57.9064 -3.09485e-07 0)
(57.9065 -3.02376e-07 0)
(57.9066 -2.8822e-07 0)
(57.9068 -2.78057e-07 0)
(57.9069 -2.69495e-07 0)
(57.9071 -2.55346e-07 0)
(57.9072 -2.65373e-07 0)
(57.9073 -2.49751e-07 0)
(57.9075 -2.45564e-07 0)
(57.9076 -2.42678e-07 0)
(57.9078 -2.39083e-07 0)
(57.9079 -2.36276e-07 0)
(57.9081 -2.33886e-07 0)
(57.9082 -2.31849e-07 0)
(57.9084 -2.30144e-07 0)
(57.9085 -2.28709e-07 0)
(57.9086 -2.27467e-07 0)
(57.9088 -2.26317e-07 0)
(57.9089 -2.25126e-07 0)
(57.9091 -2.23723e-07 0)
(57.9092 -2.21921e-07 0)
(57.9094 -2.1989e-07 0)
(57.9095 -2.15372e-07 0)
(57.9096 -2.04718e-07 0)
(57.9097 -2.08594e-07 0)
(57.9099 -1.94501e-07 0)
(57.91 -1.80643e-07 0)
(57.9101 -1.62792e-07 0)
(57.9102 -1.36115e-07 0)
(57.9103 -1.16835e-07 0)
(57.9104 -1.08775e-07 0)
(57.9105 -3.64908e-08 0)
(57.9106 -3.13575e-09 0)
(57.9107 4.74946e-08 0)
(57.9108 1.06149e-07 0)
(57.9109 1.71819e-07 0)
(57.911 2.44061e-07 0)
(57.9111 3.22031e-07 0)
(57.9111 4.04599e-07 0)
(57.9112 4.90359e-07 0)
(57.9113 5.77649e-07 0)
(57.9113 6.64563e-07 0)
(57.9114 7.49061e-07 0)
(57.9114 8.29046e-07 0)
(57.9115 9.02476e-07 0)
(57.9115 9.67357e-07 0)
(57.9115 1.02224e-06 0)
(57.9115 1.06551e-06 0)
(57.9116 1.0951e-06 0)
(57.9116 1.11599e-06 0)
(57.9116 1.11527e-06 0)
(57.9116 1.11006e-06 0)
(57.9116 1.08871e-06 0)
(57.9116 1.05567e-06 0)
(57.9116 1.0136e-06 0)
(57.9116 9.62951e-07 0)
(57.9116 9.05718e-07 0)
(57.9116 8.43637e-07 0)
(57.9116 7.78579e-07 0)
(57.9116 7.11539e-07 0)
(57.9115 6.45092e-07 0)
(57.9115 5.79861e-07 0)
(57.9115 5.17129e-07 0)
(57.9115 4.57889e-07 0)
(57.9115 4.02675e-07 0)
(57.9115 3.52052e-07 0)
(57.9115 3.0622e-07 0)
(57.9115 2.65285e-07 0)
(57.9115 2.29182e-07 0)
(57.9115 1.97718e-07 0)
(57.9115 1.70592e-07 0)
(57.9115 1.47468e-07 0)
(57.9115 1.27983e-07 0)
(57.9115 1.11709e-07 0)
(57.9115 9.82609e-08 0)
(57.9115 8.72431e-08 0)
(57.9115 7.82931e-08 0)
(57.9115 7.10819e-08 0)
(57.9115 6.5323e-08 0)
(57.9115 6.07558e-08 0)
(57.9115 5.7148e-08 0)
(57.9115 5.43359e-08 0)
(57.9115 5.21541e-08 0)
(57.9115 5.04733e-08 0)
(57.9115 4.91971e-08 0)
(57.9115 4.82068e-08 0)
(57.9115 4.74065e-08 0)
(57.9115 4.6708e-08 0)
(57.9115 4.61793e-08 0)
(57.9115 4.60142e-08 0)
(57.9114 4.58924e-08 0)
(57.9114 4.58182e-08 0)
(57.9114 4.57412e-08 0)
(57.9114 4.56713e-08 0)
(57.9113 4.5611e-08 0)
(57.9113 4.55923e-08 0)
(57.9113 4.55337e-08 0)
(57.9112 4.55169e-08 0)
(57.9112 4.54934e-08 0)
(57.9112 4.54707e-08 0)
(57.9111 4.54415e-08 0)
(57.9111 4.54391e-08 0)
(57.911 4.5417e-08 0)
(57.911 4.5387e-08 0)
(57.9109 4.53682e-08 0)
(57.9109 4.53879e-08 0)
(57.9108 4.54313e-08 0)
(57.9108 4.59278e-08 0)
(57.9107 5.04413e-08 0)
(57.9107 4.00256e-08 0)
(57.9106 4.43467e-08 0)
(57.9106 4.52603e-08 0)
(57.9105 4.6123e-08 0)
(57.9105 4.4122e-08 0)
(57.9104 4.38286e-08 0)
(57.9103 4.60168e-08 0)
(57.9103 4.55198e-08 0)
(57.9102 4.52565e-08 0)
(57.9102 4.42895e-08 0)
(57.9101 4.52545e-08 0)
(57.9101 4.4935e-08 0)
(57.91 4.50519e-08 0)
(57.9099 4.49824e-08 0)
(57.9099 4.5035e-08 0)
(57.9098 4.50997e-08 0)
(57.9098 4.50043e-08 0)
(57.9097 4.49577e-08 0)
(57.9097 4.48709e-08 0)
(57.9096 4.73663e-08 0)
(57.9096 4.30396e-08 0)
(57.9095 4.4489e-08 0)
(57.9095 4.50217e-08 0)
(57.9094 4.46975e-08 0)
(57.9094 4.54751e-08 0)
(57.9093 4.78725e-08 0)
(57.9093 3.59234e-08 0)
(57.9093 4.93456e-08 0)
(57.9092 4.55735e-08 0)
(57.9092 4.5366e-08 0)
(57.9092 4.69548e-08 0)
(57.9091 4.33632e-08 0)
(57.9091 4.47834e-08 0)
(57.9091 4.4541e-08 0)
(57.9091 4.24744e-08 0)
(57.9091 6.37831e-08 0)
(57.909 7.64206e-08 0)
(57.909 2.21574e-07 0)
(57.909 8.80133e-07 0)
(57.909 4.05072e-06 0)
(57.909 1.92565e-05 0)
(57.909 9.2308e-05 0)
(57.9091 0.000441267 0)
(57.9098 0.0020744 0)
(57.9126 0.00975196 0)
(57.9252 0.0459983 0)
(57.977 0.216637 0)
(58.1604 1.02371 0)
(58.8606 3.59416 0)
(57.9001 -0.000118902 0)
(57.9003 -0.000103117 0)
(57.9006 -0.000100129 0)
(57.9008 -0.000104071 0)
(57.901 -0.000106165 0)
(57.9012 -0.000107391 0)
(57.9014 -0.000108425 0)
(57.9016 -0.000109303 0)
(57.9017 -0.000110033 0)
(57.9019 -0.000110639 0)
(57.9021 -0.000111158 0)
(57.9023 -0.000111605 0)
(57.9025 -0.000111986 0)
(57.9026 -0.000112311 0)