/*--------------------------------*- C++ -*----------------------------------*\
| =========                 |                                                 |
| \\      /  F ield         | OpenFOAM: The Open Source CFD Toolbox           |
|  \\    /   O peration     | Version:  3.0.x                                 |
|   \\  /    A nd           | Web:      www.OpenFOAM.org                      |
|    \\/     M anipulation  |                                                 |
\*---------------------------------------------------------------------------*/
FoamFile
{
    version     2.0;
    format      ascii;
    class       volScalarField;
    location    "0.18";
    object      rho;
}
// * * * * * * * * * * * * * * * * * * * * * * * * * * * * * * * * * * * * * //

dimensions      [1 -3 0 0 0 0 0];

internalField   nonuniform List<scalar> 
13800
(
50.5607
50.5611
50.5617
50.5623
50.563
50.5637
50.5645
50.5654
50.5665
50.5678
50.5692
50.5706
50.5719
50.5731
50.5743
50.5754
50.5764
50.5773
50.5781
50.5788
50.5794
50.5799
50.5803
50.5804
50.5804
50.5803
50.58
50.5796
50.5793
50.5789
50.5785
50.578
50.5775
50.5769
50.5763
50.5757
50.575
50.5744
50.5737
50.5732
50.5727
50.5723
50.5719
50.5717
50.5715
50.5714
50.5714
50.5715
50.5716
50.5719
50.5722
50.5725
50.573
50.5734
50.5739
50.5745
50.575
50.5756
50.5761
50.5767
50.5772
50.5777
50.5781
50.5785
50.5789
50.5792
50.5794
50.5795
50.5796
50.5796
50.5795
50.5793
50.579
50.5786
50.5781
50.5776
50.5769
50.5762
50.5754
50.5745
50.5735
50.5725
50.5714
50.5703
50.5691
50.5679
50.5667
50.5655
50.5642
50.5629
50.5617
50.5604
50.5592
50.558
50.5568
50.5556
50.5545
50.5535
50.5524
50.5515
50.5506
50.5497
50.5489
50.5481
50.5474
50.5467
50.5461
50.5455
50.545
50.5445
50.544
50.5436
50.5433
50.5429
50.5426
50.5424
50.5421
50.5419
50.5417
50.5415
50.5414
50.5412
50.5411
50.541
50.5409
50.5409
50.5408
50.5408
50.5407
50.5407
50.5407
50.5406
50.5406
50.5406
50.5406
50.5407
50.5407
50.5407
50.5408
50.5408
50.5409
50.541
50.5411
50.5413
50.5414
50.5416
50.5418
50.5421
50.5424
50.5427
50.5431
50.5435
50.544
50.5445
50.5452
50.5458
50.5466
50.5474
50.5484
50.5493
50.5504
50.5516
50.5528
50.5541
50.5555
50.557
50.5585
50.56
50.5616
50.5632
50.5648
50.5664
50.5679
50.5694
50.5708
50.5722
50.5735
50.5746
50.5756
50.5765
50.5772
50.5778
50.5782
50.5785
50.5786
50.5786
50.5784
50.5781
50.5776
50.577
50.5764
50.5756
50.5747
50.5738
50.5729
50.572
50.5711
50.5702
50.5729
50.5633
50.5613
50.5617
50.5623
50.5629
50.5636
50.5643
50.565
50.566
50.5671
50.5683
50.5697
50.5711
50.5724
50.5737
50.5749
50.576
50.5769
50.5778
50.5786
50.5794
50.58
50.5804
50.5808
50.5809
50.5809
50.5808
50.5805
50.5801
50.5797
50.5793
50.5789
50.5785
50.578
50.5774
50.5768
50.5761
50.5755
50.5748
50.5742
50.5736
50.5731
50.5727
50.5723
50.5721
50.5719
50.5718
50.5718
50.5719
50.572
50.5722
50.5726
50.5729
50.5733
50.5738
50.5743
50.5748
50.5754
50.5759
50.5765
50.577
50.5776
50.5781
50.5785
50.5789
50.5793
50.5796
50.5798
50.5799
50.58
50.58
50.5799
50.5797
50.5794
50.579
50.5785
50.578
50.5773
50.5766
50.5758
50.5749
50.5739
50.5729
50.5718
50.5707
50.5695
50.5683
50.5671
50.5658
50.5646
50.5633
50.562
50.5608
50.5596
50.5584
50.5572
50.556
50.5549
50.5539
50.5528
50.5519
50.5509
50.5501
50.5492
50.5485
50.5478
50.5471
50.5465
50.5459
50.5453
50.5449
50.5444
50.544
50.5436
50.5433
50.543
50.5427
50.5425
50.5423
50.5421
50.5419
50.5418
50.5416
50.5415
50.5414
50.5413
50.5413
50.5412
50.5411
50.5411
50.5411
50.541
50.541
50.541
50.541
50.541
50.541
50.5411
50.5411
50.5412
50.5412
50.5413
50.5414
50.5415
50.5416
50.5418
50.542
50.5422
50.5425
50.5428
50.5431
50.5435
50.5439
50.5444
50.5449
50.5455
50.5462
50.547
50.5478
50.5487
50.5497
50.5508
50.552
50.5532
50.5545
50.5559
50.5574
50.5589
50.5604
50.562
50.5636
50.5652
50.5667
50.5683
50.5698
50.5712
50.5726
50.5738
50.575
50.576
50.5769
50.5776
50.5782
50.5786
50.5789
50.579
50.5789
50.5788
50.5785
50.578
50.5774
50.5768
50.576
50.5751
50.5742
50.5733
50.5723
50.5715
50.5705
50.5734
50.5603
50.5613
50.5617
50.5623
50.5629
50.5636
50.5643
50.565
50.5659
50.5671
50.5683
50.5697
50.5711
50.5724
50.5737
50.5749
50.576
50.5769
50.5778
50.5786
50.5794
50.58
50.5804
50.5808
50.5809
50.5809
50.5808
50.5805
50.5801
50.5797
50.5793
50.5789
50.5785
50.578
50.5774
50.5768
50.5761
50.5755
50.5748
50.5742
50.5736
50.5731
50.5727
50.5723
50.5721
50.5719
50.5718
50.5718
50.5719
50.572
50.5722
50.5726
50.5729
50.5733
50.5738
50.5743
50.5748
50.5754
50.5759
50.5765
50.577
50.5776
50.5781
50.5785
50.5789
50.5793
50.5796
50.5798
50.5799
50.58
50.58
50.5799
50.5797
50.5794
50.579
50.5785
50.578
50.5773
50.5766
50.5758
50.5749
50.5739
50.5729
50.5718
50.5707
50.5695
50.5683
50.5671
50.5658
50.5646
50.5633
50.562
50.5608
50.5596
50.5584
50.5572
50.556
50.5549
50.5539
50.5528
50.5519
50.5509
50.5501
50.5492
50.5485
50.5478
50.5471
50.5465
50.5459
50.5453
50.5449
50.5444
50.544
50.5436
50.5433
50.543
50.5427
50.5425
50.5423
50.5421
50.5419
50.5418
50.5416
50.5415
50.5414
50.5413
50.5413
50.5412
50.5411
50.5411
50.5411
50.541
50.541
50.541
50.541
50.541
50.541
50.5411
50.5411
50.5412
50.5412
50.5413
50.5414
50.5415
50.5416
50.5418
50.542
50.5422
50.5425
50.5428
50.5431
50.5435
50.5439
50.5444
50.5449
50.5455
50.5462
50.547
50.5478
50.5487
50.5497
50.5508
50.552
50.5532
50.5545
50.5559
50.5574
50.5589
50.5604
50.562
50.5636
50.5652
50.5667
50.5683
50.5698
50.5712
50.5726
50.5738
50.575
50.576
50.5769
50.5776
50.5782
50.5786
50.5789
50.579
50.5789
50.5788
50.5785
50.578
50.5774
50.5768
50.576
50.5751
50.5742
50.5733
50.5723
50.5715
50.5705
50.5733
50.5606
50.5613
50.5617
50.5622
50.5629
50.5636
50.5643
50.565
50.5659
50.5671
50.5683
50.5697
50.5711
50.5724
50.5737
50.5749
50.5759
50.5769
50.5778
50.5786
50.5793
50.58
50.5804
50.5808
50.5809
50.5809
50.5808
50.5805
50.5801
50.5797
50.5793
50.5789
50.5785
50.578
50.5774
50.5768
50.5761
50.5755
50.5748
50.5742
50.5736
50.5731
50.5727
50.5723
50.5721
50.5719
50.5718
50.5718
50.5719
50.572
50.5722
50.5726
50.5729
50.5733
50.5738
50.5743
50.5748
50.5754
50.5759
50.5765
50.577
50.5776
50.5781
50.5785
50.5789
50.5793
50.5796
50.5798
50.5799
50.58
50.58
50.5799
50.5797
50.5794
50.579
50.5785
50.578
50.5773
50.5766
50.5758
50.5749
50.5739
50.5729
50.5718
50.5707
50.5695
50.5683
50.5671
50.5658
50.5646
50.5633
50.562
50.5608
50.5596
50.5584
50.5572
50.556
50.5549
50.5539
50.5528
50.5519
50.5509
50.5501
50.5492
50.5485
50.5478
50.5471
50.5465
50.5459
50.5453
50.5449
50.5444
50.544
50.5436
50.5433
50.543
50.5427
50.5425
50.5423
50.5421
50.5419
50.5418
50.5416
50.5415
50.5414
50.5413
50.5413
50.5412
50.5411
50.5411
50.5411
50.541
50.541
50.541
50.541
50.541
50.541
50.5411
50.5411
50.5412
50.5412
50.5413
50.5414
50.5415
50.5416
50.5418
50.542
50.5422
50.5425
50.5428
50.5431
50.5435
50.5439
50.5444
50.5449
50.5455
50.5462
50.547
50.5478
50.5487
50.5497
50.5508
50.552
50.5532
50.5545
50.5559
50.5574
50.5589
50.5604
50.562
50.5636
50.5652
50.5667
50.5683
50.5698
50.5712
50.5726
50.5738
50.575
50.576
50.5769
50.5776
50.5782
50.5786
50.5789
50.579
50.5789
50.5788
50.5785
50.578
50.5774
50.5768
50.576
50.5751
50.5742
50.5733
50.5723
50.5714
50.5706
50.5727
50.5644
50.5613
50.5617
50.5622
50.5629
50.5636
50.5643
50.565
50.5659
50.567
50.5683
50.5697
50.5711
50.5724
50.5737
50.5748
50.5759
50.5769
50.5778
50.5786
50.5793
50.58
50.5804
50.5808
50.5809
50.5809
50.5808
50.5805
50.5801
50.5797
50.5793
50.5789
50.5785
50.578
50.5774
50.5768
50.5761
50.5755
50.5748
50.5742
50.5736
50.5731
50.5727
50.5723
50.5721
50.5719
50.5718
50.5718
50.5719
50.572
50.5722
50.5726
50.5729
50.5733
50.5738
50.5743
50.5748
50.5754
50.5759
50.5765
50.577
50.5776
50.5781
50.5785
50.5789
50.5793
50.5796
50.5798
50.5799
50.58
50.58
50.5799
50.5797
50.5794
50.579
50.5785
50.578
50.5773
50.5766
50.5758
50.5749
50.5739
50.5729
50.5718
50.5707
50.5695
50.5683
50.5671
50.5658
50.5646
50.5633
50.562
50.5608
50.5596
50.5584
50.5572
50.556
50.5549
50.5539
50.5528
50.5519
50.5509
50.5501
50.5492
50.5485
50.5478
50.5471
50.5465
50.5459
50.5453
50.5449
50.5444
50.544
50.5436
50.5433
50.543
50.5427
50.5425
50.5423
50.5421
50.5419
50.5418
50.5416
50.5415
50.5414
50.5413
50.5413
50.5412
50.5411
50.5411
50.5411
50.541
50.541
50.541
50.541
50.541
50.541
50.5411
50.5411
50.5412
50.5412
50.5413
50.5414
50.5415
50.5416
50.5418
50.542
50.5422
50.5425
50.5428
50.5431
50.5435
50.5439
50.5444
50.5449
50.5455
50.5462
50.547
50.5478
50.5487
50.5497
50.5508
50.552
50.5532
50.5545
50.5559
50.5574
50.5589
50.5604
50.562
50.5636
50.5652
50.5667
50.5683
50.5698
50.5712
50.5726
50.5738
50.575
50.576
50.5769
50.5776
50.5782
50.5786
50.5789
50.579
50.5789
50.5788
50.5785
50.578
50.5774
50.5768
50.576
50.5751
50.5742
50.5733
50.5723
50.5714
50.5704
50.5709
50.5624
50.5613
50.5617
50.5622
50.5629
50.5636
50.5643
50.565
50.5659
50.567
50.5683
50.5697
50.5711
50.5724
50.5737
50.5748
50.5759
50.5769
50.5778
50.5786
50.5793
50.58
50.5804
50.5808
50.5809
50.5809
50.5808
50.5805
50.5801
50.5797
50.5793
50.5789
50.5785
50.578
50.5774
50.5768
50.5761
50.5755
50.5748
50.5742
50.5736
50.5731
50.5727
50.5723
50.5721
50.5719
50.5718
50.5718
50.5719
50.572
50.5722
50.5726
50.5729
50.5733
50.5738
50.5743
50.5748
50.5754
50.5759
50.5765
50.577
50.5776
50.5781
50.5785
50.5789
50.5793
50.5796
50.5798
50.5799
50.58
50.58
50.5799
50.5797
50.5794
50.579
50.5785
50.578
50.5773
50.5766
50.5758
50.5749
50.5739
50.5729
50.5718
50.5707
50.5695
50.5683
50.5671
50.5658
50.5646
50.5633
50.562
50.5608
50.5596
50.5584
50.5572
50.556
50.5549
50.5539
50.5528
50.5519
50.5509
50.5501
50.5492
50.5485
50.5478
50.5471
50.5465
50.5459
50.5453
50.5449
50.5444
50.544
50.5436
50.5433
50.543
50.5427
50.5425
50.5423
50.5421
50.5419
50.5418
50.5416
50.5415
50.5414
50.5413
50.5413
50.5412
50.5411
50.5411
50.5411
50.541
50.541
50.541
50.541
50.541
50.541
50.5411
50.5411
50.5412
50.5412
50.5413
50.5414
50.5415
50.5416
50.5418
50.542
50.5422
50.5425
50.5428
50.5431
50.5435
50.5439
50.5444
50.5449
50.5455
50.5462
50.547
50.5478
50.5487
50.5497
50.5508
50.552
50.5532
50.5545
50.5559
50.5574
50.5589
50.5604
50.562
50.5636
50.5652
50.5667
50.5683
50.5698
50.5712
50.5726
50.5738
50.575
50.576
50.5769
50.5776
50.5782
50.5786
50.5789
50.579
50.5789
50.5788
50.5785
50.578
50.5774
50.5767
50.576
50.5751
50.5742
50.5733
50.5723
50.5712
50.5701
50.5683
50.5657
50.5613
50.5617
50.5622
50.5629
50.5636
50.5643
50.565
50.5659
50.5671
50.5683
50.5697
50.5711
50.5724
50.5737
50.5749
50.5759
50.5769
50.5778
50.5786
50.5793
50.58
50.5804
50.5808
50.5809
50.5809
50.5808
50.5805
50.5801
50.5797
50.5793
50.5789
50.5785
50.578
50.5774
50.5768
50.5761
50.5755
50.5748
50.5742
50.5736
50.5731
50.5727
50.5723
50.5721
50.5719
50.5718
50.5718
50.5719
50.572
50.5722
50.5726
50.5729
50.5733
50.5738
50.5743
50.5748
50.5754
50.5759
50.5765
50.577
50.5776
50.5781
50.5785
50.5789
50.5793
50.5796
50.5798
50.5799
50.58
50.58
50.5799
50.5797
50.5794
50.579
50.5785
50.578
50.5773
50.5766
50.5758
50.5749
50.5739
50.5729
50.5718
50.5707
50.5695
50.5683
50.5671
50.5658
50.5646
50.5633
50.562
50.5608
50.5596
50.5584
50.5572
50.556
50.5549
50.5539
50.5528
50.5519
50.5509
50.5501
50.5492
50.5485
50.5478
50.5471
50.5465
50.5459
50.5453
50.5449
50.5444
50.544
50.5436
50.5433
50.543
50.5427
50.5425
50.5423
50.5421
50.5419
50.5418
50.5416
50.5415
50.5414
50.5413
50.5413
50.5412
50.5411
50.5411
50.5411
50.541
50.541
50.541
50.541
50.541
50.541
50.5411
50.5411
50.5412
50.5412
50.5413
50.5414
50.5415
50.5416
50.5418
50.542
50.5422
50.5425
50.5428
50.5431
50.5435
50.5439
50.5444
50.5449
50.5455
50.5462
50.547
50.5478
50.5487
50.5497
50.5508
50.552
50.5532
50.5545
50.5559
50.5574
50.5589
50.5604
50.562
50.5636
50.5652
50.5667
50.5683
50.5698
50.5712
50.5726
50.5738
50.575
50.576
50.5769
50.5776
50.5782
50.5786
50.5789
50.579
50.5789
50.5788
50.5785
50.578
50.5774
50.5768
50.576
50.5751
50.5742
50.5732
50.5722
50.5711
50.5702
50.5653
50.576
50.5613
50.5617
50.5623
50.5629
50.5636
50.5643
50.565
50.5659
50.5671
50.5683
50.5697
50.5711
50.5724
50.5737
50.5749
50.576
50.5769
50.5778
50.5786
50.5794
50.58
50.5804
50.5808
50.5809
50.5809
50.5808
50.5805
50.5801
50.5797
50.5793
50.5789
50.5785
50.578
50.5774
50.5768
50.5761
50.5755
50.5748
50.5742
50.5736
50.5731
50.5727
50.5723
50.5721
50.5719
50.5718
50.5718
50.5719
50.572
50.5722
50.5726
50.5729
50.5733
50.5738
50.5743
50.5748
50.5754
50.5759
50.5765
50.577
50.5776
50.5781
50.5785
50.5789
50.5793
50.5796
50.5798
50.5799
50.58
50.58
50.5799
50.5797
50.5794
50.579
50.5785
50.578
50.5773
50.5766
50.5758
50.5749
50.5739
50.5729
50.5718
50.5707
50.5695
50.5683
50.5671
50.5658
50.5646
50.5633
50.562
50.5608
50.5596
50.5584
50.5572
50.556
50.5549
50.5539
50.5528
50.5519
50.5509
50.5501
50.5492
50.5485
50.5478
50.5471
50.5465
50.5459
50.5453
50.5449
50.5444
50.544
50.5436
50.5433
50.543
50.5427
50.5425
50.5423
50.5421
50.5419
50.5418
50.5416
50.5415
50.5414
50.5413
50.5413
50.5412
50.5411
50.5411
50.5411
50.541
50.541
50.541
50.541
50.541
50.541
50.5411
50.5411
50.5412
50.5412
50.5413
50.5414
50.5415
50.5416
50.5418
50.542
50.5422
50.5425
50.5428
50.5431
50.5435
50.5439
50.5444
50.5449
50.5455
50.5462
50.547
50.5478
50.5487
50.5497
50.5508
50.552
50.5532
50.5545
50.5559
50.5574
50.5589
50.5604
50.562
50.5636
50.5652
50.5667
50.5683
50.5698
50.5712
50.5726
50.5738
50.575
50.576
50.5769
50.5776
50.5782
50.5786
50.5789
50.579
50.5789
50.5788
50.5785
50.578
50.5774
50.5767
50.576
50.5751
50.5742
50.5732
50.5723
50.5711
50.5706
50.5624
50.6044
50.5613
50.5617
50.5623
50.5629
50.5636
50.5643
50.565
50.566
50.5671
50.5683
50.5697
50.5711
50.5724
50.5737
50.5749
50.576
50.5769
50.5778
50.5786
50.5794
50.58
50.5804
50.5808
50.5809
50.5809
50.5808
50.5805
50.5801
50.5797
50.5793
50.5789
50.5785
50.578
50.5774
50.5768
50.5761
50.5755
50.5748
50.5742
50.5736
50.5731
50.5727
50.5723
50.5721
50.5719
50.5718
50.5718
50.5719
50.572
50.5722
50.5726
50.5729
50.5733
50.5738
50.5743
50.5748
50.5754
50.5759
50.5765
50.577
50.5776
50.5781
50.5785
50.5789
50.5793
50.5796
50.5798
50.5799
50.58
50.58
50.5799
50.5797
50.5794
50.579
50.5785
50.578
50.5773
50.5766
50.5758
50.5749
50.5739
50.5729
50.5718
50.5707
50.5695
50.5683
50.5671
50.5658
50.5646
50.5633
50.562
50.5608
50.5596
50.5584
50.5572
50.556
50.5549
50.5539
50.5528
50.5519
50.5509
50.5501
50.5492
50.5485
50.5478
50.5471
50.5465
50.5459
50.5453
50.5449
50.5444
50.544
50.5436
50.5433
50.543
50.5427
50.5425
50.5423
50.5421
50.5419
50.5418
50.5416
50.5415
50.5414
50.5413
50.5413
50.5412
50.5411
50.5411
50.5411
50.541
50.541
50.541
50.541
50.541
50.541
50.5411
50.5411
50.5412
50.5412
50.5413
50.5414
50.5415
50.5416
50.5418
50.542
50.5422
50.5425
50.5428
50.5431
50.5435
50.5439
50.5444
50.5449
50.5455
50.5462
50.547
50.5478
50.5487
50.5497
50.5508
50.552
50.5532
50.5545
50.5559
50.5574
50.5589
50.5604
50.562
50.5636
50.5652
50.5667
50.5683
50.5698
50.5712
50.5726
50.5738
50.575
50.576
50.5769
50.5776
50.5782
50.5786
50.5789
50.579
50.5789
50.5788
50.5785
50.578
50.5774
50.5767
50.576
50.5751
50.5742
50.5732
50.5723
50.5711
50.5708
50.5606
50.6195
50.5607
50.5611
50.5617
50.5623
50.563
50.5637
50.5645
50.5654
50.5665
50.5678
50.5692
50.5706
50.5719
50.5731
50.5743
50.5754
50.5764
50.5773
50.5781
50.5788
50.5794
50.5799
50.5803
50.5804
50.5804
50.5803
50.58
50.5796
50.5793
50.5789
50.5785
50.578
50.5775
50.5769
50.5763
50.5757
50.575
50.5744
50.5737
50.5732
50.5727
50.5723
50.5719
50.5717
50.5715
50.5714
50.5714
50.5715
50.5716
50.5719
50.5722
50.5725
50.573
50.5734
50.5739
50.5745
50.575
50.5756
50.5761
50.5767
50.5772
50.5777
50.5781
50.5785
50.5789
50.5792
50.5794
50.5795
50.5796
50.5796
50.5795
50.5793
50.579
50.5786
50.5781
50.5776
50.5769
50.5762
50.5754
50.5745
50.5735
50.5725
50.5714
50.5703
50.5691
50.5679
50.5667
50.5655
50.5642
50.5629
50.5617
50.5604
50.5592
50.558
50.5568
50.5556
50.5545
50.5535
50.5524
50.5515
50.5506
50.5497
50.5489
50.5481
50.5474
50.5467
50.5461
50.5455
50.545
50.5445
50.544
50.5436
50.5433
50.5429
50.5426
50.5424
50.5421
50.5419
50.5417
50.5415
50.5414
50.5412
50.5411
50.541
50.5409
50.5409
50.5408
50.5408
50.5407
50.5407
50.5407
50.5406
50.5406
50.5406
50.5406
50.5407
50.5407
50.5407
50.5408
50.5408
50.5409
50.541
50.5411
50.5413
50.5414
50.5416
50.5418
50.5421
50.5424
50.5427
50.5431
50.5435
50.544
50.5445
50.5452
50.5458
50.5466
50.5474
50.5483
50.5493
50.5504
50.5516
50.5528
50.5541
50.5555
50.557
50.5585
50.56
50.5616
50.5632
50.5648
50.5664
50.5679
50.5694
50.5708
50.5722
50.5735
50.5746
50.5756
50.5765
50.5772
50.5778
50.5782
50.5785
50.5786
50.5786
50.5784
50.5781
50.5776
50.5771
50.5764
50.5756
50.5747
50.5738
50.5728
50.5719
50.5707
50.5706
50.5587
50.6327
50.6562
50.6946
50.7072
50.7087
50.708
50.7075
50.7067
50.7053
50.7036
50.7016
50.6996
50.6974
50.6951
50.6922
50.6889
50.6847
50.6792
50.6718
50.6615
50.6457
50.6506
50.6845
50.6977
50.6998
50.6995
50.6992
50.6987
50.6977
50.6961
50.6945
50.6926
50.6907
50.6884
50.6858
50.6825
50.6784
50.6728
50.6654
50.6548
50.639
50.6453
50.6795
50.6946
50.6976
50.6974
50.6972
50.6966
50.6954
50.6937
50.692
50.69
50.688
50.6856
50.683
50.6796
50.6755
50.6697
50.6618
50.6506
50.6334
50.6273
50.6463
50.6523
50.6515
50.65
50.6489
50.6477
50.6459
50.644
50.6419
50.6398
50.6375
50.6349
50.6317
50.6279
50.6234
50.6182
50.6108
50.6009
50.5871
50.5968
50.609
50.618
50.6244
50.6288
50.6316
50.6327
50.633
50.6326
50.6318
50.6305
50.6287
50.6259
50.6226
50.6186
50.6136
50.6069
50.5993
50.5905
50.58
50.5448
50.5352
50.5248
50.514
50.504
50.4957
50.4894
50.4842
50.4799
50.4762
50.4732
50.4709
50.4694
50.4681
50.4665
50.4652
50.4646
50.4652
50.4661
50.4698
50.4876
50.4667
50.4596
50.4603
50.4616
50.4623
50.4625
50.4631
50.4632
50.4636
50.4634
50.4633
50.4629
50.4627
50.4624
50.4632
50.4643
50.4674
50.473
50.4835
50.4193
50.3632
50.3206
50.2917
50.272
50.2567
50.2448
50.2362
50.2303
50.2267
50.2249
50.2248
50.2265
50.2305
50.2382
50.2481
50.2633
50.2806
50.306
50.3369
50.4049
50.3441
50.3061
50.2844
50.2698
50.2588
50.2499
50.244
50.2403
50.239
50.2391
50.2408
50.2439
50.2492
50.2572
50.2681
50.2825
50.2998
50.323
50.3523
50.3867
50.3019
50.2542
50.2262
50.2072
50.1913
50.1781
50.1683
50.1624
50.1572
50.1551
50.1539
50.1559
50.1593
50.1669
50.1779
50.1927
50.2122
50.2377
50.2726
50.5776
50.5382
50.527
50.5237
50.5223
50.5216
50.5211
50.5208
50.5206
50.5205
50.5203
50.5201
50.52
50.5199
50.5199
50.5199
50.5198
50.5197
50.5196
50.5195
50.5194
50.5194
50.5193
50.5193
50.5193
50.5193
50.5194
50.5194
50.5194
50.5195
50.5195
50.5195
50.5195
50.5195
50.5196
50.5196
50.5197
50.5199
50.52
50.5201
50.5203
50.5205
50.5207
50.5209
50.5212
50.5215
50.5218
50.5222
50.5227
50.5233
50.5242
50.5253
50.5265
50.5276
50.5284
50.5291
50.5298
50.5302
50.5295
50.5248
50.5051
50.4475
50.3756
50.313
50.2654
50.2349
50.2205
50.2177
50.2215
50.2448
50.314
50.3905
50.4509
50.4945
50.5234
50.5406
50.5496
50.5533
50.5544
50.5545
50.5528
50.5507
50.5492
50.5482
50.5476
50.5472
50.5468
50.5466
50.5464
50.5461
50.5458
50.5455
50.5452
50.5448
50.5444
50.5439
50.5434
50.5429
50.5423
50.5416
50.5409
50.5402
50.5394
50.5386
50.5377
50.5369
50.5359
50.535
50.5341
50.5331
50.5321
50.5311
50.5301
50.5291
50.5282
50.5272
50.5262
50.5252
50.5243
50.5234
50.5224
50.5216
50.5207
50.5199
50.5191
50.5183
50.5175
50.5168
50.5161
50.5155
50.5148
50.5142
50.5137
50.5131
50.5126
50.5122
50.5117
50.5113
50.5109
50.5106
50.5102
50.5099
50.5096
50.5094
50.5091
50.5089
50.5087
50.5085
50.5083
50.5082
50.508
50.5079
50.5078
50.5077
50.5076
50.5075
50.5075
50.5074
50.5073
50.5073
50.5073
50.5072
50.5072
50.5072
50.5071
50.5071
50.5071
50.5071
50.5071
50.5071
50.5071
50.507
50.507
50.507
50.507
50.507
50.507
50.507
50.507
50.507
50.507
50.507
50.507
50.507
50.507
50.507
50.507
50.507
50.507
50.507
50.507
50.507
50.507
50.507
50.507
50.5069
50.5065
50.5068
50.497
50.5504
50.5774
50.5404
50.5296
50.5265
50.5253
50.5246
50.5242
50.5239
50.5237
50.5236
50.5234
50.5232
50.5231
50.5229
50.5229
50.5229
50.5228
50.5228
50.5227
50.5226
50.5225
50.5224
50.5224
50.5224
50.5224
50.5224
50.5224
50.5225
50.5225
50.5226
50.5226
50.5226
50.5227
50.5227
50.5227
50.5228
50.5229
50.523
50.5231
50.5233
50.5235
50.5236
50.5238
50.524
50.5242
50.5245
50.5248
50.5252
50.5257
50.5262
50.5268
50.5274
50.528
50.5286
50.5294
50.5303
50.532
50.5353
50.5392
50.5434
50.5471
50.5499
50.5515
50.5524
50.5526
50.5501
50.5393
50.5228
50.5093
50.5002
50.4957
50.4949
50.4959
50.5002
50.5113
50.5225
50.5311
50.5372
50.5414
50.5441
50.5457
50.5466
50.5471
50.5473
50.5474
50.5472
50.5471
50.5469
50.5467
50.5465
50.5462
50.5459
50.5456
50.5452
50.5448
50.5443
50.5438
50.5433
50.5427
50.542
50.5413
50.5406
50.5398
50.539
50.5381
50.5372
50.5363
50.5354
50.5344
50.5335
50.5325
50.5315
50.5305
50.5295
50.5285
50.5275
50.5266
50.5256
50.5247
50.5237
50.5228
50.5219
50.5211
50.5202
50.5194
50.5187
50.5179
50.5172
50.5165
50.5158
50.5152
50.5146
50.5141
50.5135
50.513
50.5125
50.5121
50.5117
50.5113
50.5109
50.5106
50.5103
50.51
50.5097
50.5095
50.5093
50.5091
50.5089
50.5087
50.5086
50.5084
50.5083
50.5082
50.5081
50.508
50.5079
50.5078
50.5078
50.5077
50.5077
50.5076
50.5076
50.5076
50.5075
50.5075
50.5075
50.5075
50.5075
50.5075
50.5074
50.5074
50.5074
50.5074
50.5074
50.5074
50.5074
50.5074
50.5074
50.5074
50.5074
50.5074
50.5074
50.5074
50.5074
50.5074
50.5074
50.5074
50.5074
50.5074
50.5074
50.5074
50.5074
50.5074
50.5074
50.5074
50.5073
50.5069
50.5071
50.4985
50.541
50.5773
50.5414
50.53
50.5263
50.5249
50.5241
50.5236
50.5232
50.523
50.5229
50.5227
50.5225
50.5224
50.5222
50.5222
50.5222
50.5221
50.5221
50.522
50.5219
50.5219
50.5218
50.5217
50.5217
50.5217
50.5217
50.5217
50.5218
50.5218
50.5219
50.5219
50.522
50.522
50.522
50.522
50.5221
50.5222
50.5223
50.5224
50.5226
50.5227
50.5229
50.5231
50.5233
50.5235
50.5238
50.524
50.5243
50.5247
50.5252
50.5257
50.5264
50.5272
50.5279
50.5286
50.5292
50.5299
50.5308
50.5325
50.5371
50.5466
50.556
50.5638
50.5692
50.5721
50.5735
50.574
50.5727
50.5649
50.5503
50.5383
50.53
50.5255
50.5241
50.5245
50.526
50.5303
50.5355
50.5395
50.5424
50.5443
50.5456
50.5464
50.5467
50.5469
50.547
50.5469
50.5468
50.5466
50.5464
50.5462
50.5459
50.5455
50.5452
50.5448
50.5443
50.5438
50.5433
50.5427
50.542
50.5413
50.5406
50.5398
50.539
50.5381
50.5372
50.5363
50.5354
50.5344
50.5335
50.5325
50.5315
50.5305
50.5295
50.5285
50.5275
50.5266
50.5256
50.5247
50.5237
50.5228
50.5219
50.5211
50.5202
50.5194
50.5187
50.5179
50.5172
50.5165
50.5158
50.5152
50.5146
50.5141
50.5135
50.513
50.5125
50.5121
50.5117
50.5113
50.5109
50.5106
50.5103
50.51
50.5097
50.5095
50.5093
50.5091
50.5089
50.5087
50.5086
50.5084
50.5083
50.5082
50.5081
50.508
50.5079
50.5078
50.5078
50.5077
50.5077
50.5076
50.5076
50.5076
50.5075
50.5075
50.5075
50.5075
50.5075
50.5075
50.5074
50.5074
50.5074
50.5074
50.5074
50.5074
50.5074
50.5074
50.5074
50.5074
50.5074
50.5074
50.5074
50.5074
50.5074
50.5074
50.5074
50.5074
50.5074
50.5074
50.5074
50.5074
50.5074
50.5074
50.5074
50.5074
50.5073
50.5069
50.5069
50.4999
50.5274
50.5481
50.523
50.5163
50.5158
50.516
50.516
50.5159
50.5158
50.5157
50.5156
50.5155
50.5154
50.5152
50.5151
50.515
50.5149
50.5149
50.5149
50.5148
50.5148
50.5147
50.5146
50.5146
50.5146
50.5146
50.5146
50.5146
50.5146
50.5147
50.5147
50.5147
50.5148
50.5148
50.5148
50.5149
50.5149
50.515
50.5152
50.5153
50.5154
50.5156
50.5158
50.516
50.5162
50.5165
50.5168
50.5171
50.5176
50.5181
50.5188
50.5195
50.5204
50.5212
50.5219
50.5226
50.5233
50.5241
50.5252
50.5277
50.5325
50.5376
50.5422
50.5459
50.5484
50.5499
50.5507
50.5511
50.55
50.5459
50.5417
50.5388
50.5371
50.5365
50.5366
50.5372
50.5382
50.54
50.5419
50.5433
50.5443
50.5451
50.5456
50.5459
50.5461
50.5463
50.5463
50.5463
50.5463
50.5462
50.5461
50.5459
50.5457
50.5454
50.5451
50.5447
50.5443
50.5438
50.5432
50.5426
50.542
50.5413
50.5406
50.5398
50.539
50.5381
50.5372
50.5363
50.5354
50.5344
50.5335
50.5325
50.5315
50.5305
50.5295
50.5285
50.5275
50.5266
50.5256
50.5247
50.5237
50.5228
50.5219
50.5211
50.5202
50.5194
50.5187
50.5179
50.5172
50.5165
50.5158
50.5152
50.5146
50.5141
50.5135
50.513
50.5125
50.5121
50.5117
50.5113
50.5109
50.5106
50.5103
50.51
50.5097
50.5095
50.5093
50.5091
50.5089
50.5087
50.5086
50.5084
50.5083
50.5082
50.5081
50.508
50.5079
50.5078
50.5078
50.5077
50.5077
50.5076
50.5076
50.5076
50.5075
50.5075
50.5075
50.5075
50.5075
50.5075
50.5074
50.5074
50.5074
50.5074
50.5074
50.5074
50.5074
50.5074
50.5074
50.5074
50.5074
50.5074
50.5074
50.5074
50.5074
50.5074
50.5074
50.5074
50.5074
50.5074
50.5074
50.5074
50.5074
50.5074
50.5074
50.5074
50.5073
50.507
50.5062
50.5019
50.5043
50.5553
50.5449
50.5386
50.5327
50.5288
50.5269
50.526
50.5253
50.5248
50.5245
50.5243
50.5242
50.5241
50.524
50.5238
50.5237
50.5237
50.5236
50.5236
50.5236
50.5235
50.5235
50.5234
50.5234
50.5234
50.5234
50.5234
50.5234
50.5234
50.5235
50.5235
50.5235
50.5236
50.5236
50.5237
50.5237
50.5238
50.5239
50.524
50.5242
50.5243
50.5244
50.5246
50.5248
50.5249
50.5251
50.5254
50.5256
50.5257
50.5259
50.5263
50.5267
50.5272
50.5277
50.5282
50.5285
50.5288
50.529
50.5294
50.53
50.5308
50.5319
50.5339
50.5361
50.5378
50.5389
50.5397
50.5404
50.5408
50.5407
50.5407
50.5409
50.5412
50.5416
50.5421
50.5427
50.5433
50.5438
50.5443
50.5447
50.5451
50.5454
50.5456
50.5458
50.5459
50.546
50.5461
50.5461
50.5461
50.546
50.5458
50.5456
50.5454
50.545
50.5447
50.5442
50.5437
50.5432
50.5426
50.542
50.5413
50.5406
50.5398
50.539
50.5381
50.5372
50.5363
50.5354
50.5344
50.5335
50.5325
50.5315
50.5305
50.5295
50.5285
50.5275
50.5266
50.5256
50.5247
50.5237
50.5228
50.5219
50.5211
50.5202
50.5194
50.5187
50.5179
50.5172
50.5165
50.5158
50.5152
50.5146
50.5141
50.5135
50.513
50.5125
50.5121
50.5117
50.5113
50.5109
50.5106
50.5103
50.51
50.5097
50.5095
50.5093
50.5091
50.5089
50.5087
50.5086
50.5084
50.5083
50.5082
50.5081
50.508
50.5079
50.5078
50.5078
50.5077
50.5077
50.5076
50.5076
50.5076
50.5075
50.5075
50.5075
50.5075
50.5075
50.5075
50.5074
50.5074
50.5074
50.5074
50.5074
50.5074
50.5074
50.5074
50.5074
50.5074
50.5074
50.5074
50.5074
50.5074
50.5074
50.5074
50.5074
50.5074
50.5074
50.5074
50.5074
50.5074
50.5074
50.5074
50.5074
50.5074
50.5074
50.5073
50.5069
50.5058
50.5021
50.4771
50.4868
50.4922
50.4965
50.4991
50.5004
50.5008
50.5009
50.5009
50.5008
50.5007
50.5006
50.5005
50.5004
50.5003
50.5002
50.5001
50.5
50.5
50.5
50.5
50.5
50.5
50.5
50.5
50.4999
50.4999
50.4999
50.4999
50.4999
50.5
50.5
50.5001
50.5002
50.5004
50.5006
50.5007
50.5009
50.5012
50.5014
50.5017
50.5021
50.5026
50.5031
50.5036
50.5041
50.5047
50.5055
50.5065
50.5074
50.5085
50.5095
50.5105
50.5113
50.5121
50.5128
50.5137
50.5152
50.518
50.5222
50.5263
50.5302
50.5337
50.5368
50.5393
50.5409
50.542
50.5427
50.5433
50.5431
50.5425
50.5419
50.5416
50.5415
50.5416
50.5419
50.5422
50.5425
50.5429
50.5433
50.5437
50.5441
50.5445
50.5449
50.5451
50.5454
50.5456
50.5457
50.5457
50.5457
50.5456
50.5455
50.5452
50.5449
50.5446
50.5442
50.5437
50.5432
50.5426
50.542
50.5413
50.5405
50.5398
50.539
50.5381
50.5372
50.5363
50.5354
50.5344
50.5335
50.5325
50.5315
50.5305
50.5295
50.5285
50.5275
50.5266
50.5256
50.5247
50.5237
50.5228
50.5219
50.5211
50.5202
50.5194
50.5187
50.5179
50.5172
50.5165
50.5158
50.5152
50.5146
50.5141
50.5135
50.513
50.5125
50.5121
50.5117
50.5113
50.5109
50.5106
50.5103
50.51
50.5097
50.5095
50.5093
50.5091
50.5089
50.5087
50.5086
50.5084
50.5083
50.5082
50.5081
50.508
50.5079
50.5078
50.5078
50.5077
50.5077
50.5076
50.5076
50.5076
50.5075
50.5075
50.5075
50.5075
50.5075
50.5075
50.5074
50.5074
50.5074
50.5074
50.5074
50.5074
50.5074
50.5074
50.5074
50.5074
50.5074
50.5074
50.5074
50.5074
50.5074
50.5074
50.5074
50.5074
50.5074
50.5074
50.5074
50.5074
50.5074
50.5074
50.5074
50.5074
50.5074
50.5075
50.5077
50.5096
50.5057
50.519
50.54
50.5427
50.5403
50.5384
50.5372
50.5364
50.5358
50.5355
50.5354
50.5353
50.5352
50.535
50.5349
50.5347
50.5346
50.5345
50.5344
50.5343
50.5343
50.5342
50.5342
50.5342
50.5342
50.5342
50.5342
50.5343
50.5343
50.5344
50.5344
50.5344
50.5345
50.5345
50.5345
50.5345
50.5345
50.5346
50.5348
50.5349
50.5351
50.5353
50.5354
50.5357
50.5359
50.5362
50.5364
50.5365
50.5367
50.5369
50.5373
50.5376
50.5378
50.538
50.5382
50.5384
50.5388
50.5392
50.5394
50.539
50.5385
50.538
50.538
50.5385
50.5393
50.5408
50.5441
50.5478
50.5502
50.5515
50.5522
50.5525
50.5513
50.5488
50.5468
50.5454
50.5444
50.5438
50.5436
50.5436
50.5437
50.5439
50.5441
50.5444
50.5447
50.545
50.5453
50.5455
50.5456
50.5457
50.5456
50.5456
50.5454
50.5452
50.5449
50.5446
50.5442
50.5437
50.5432
50.5426
50.542
50.5413
50.5405
50.5398
50.539
50.5381
50.5372
50.5363
50.5354
50.5344
50.5335
50.5325
50.5315
50.5305
50.5295
50.5285
50.5275
50.5266
50.5256
50.5247
50.5237
50.5228
50.5219
50.5211
50.5202
50.5194
50.5187
50.5179
50.5172
50.5165
50.5158
50.5152
50.5146
50.5141
50.5135
50.513
50.5125
50.5121
50.5117
50.5113
50.5109
50.5106
50.5103
50.51
50.5097
50.5095
50.5093
50.5091
50.5089
50.5087
50.5086
50.5084
50.5083
50.5082
50.5081
50.508
50.5079
50.5078
50.5078
50.5077
50.5077
50.5076
50.5076
50.5076
50.5075
50.5075
50.5075
50.5075
50.5075
50.5075
50.5074
50.5074
50.5074
50.5074
50.5074
50.5074
50.5074
50.5074
50.5074
50.5074
50.5074
50.5074
50.5074
50.5074
50.5074
50.5074
50.5074
50.5074
50.5074
50.5074
50.5074
50.5074
50.5074
50.5074
50.5074
50.5074
50.5075
50.5077
50.5085
50.5124
50.5119
50.4438
50.4882
50.4995
50.5026
50.503
50.5026
50.5022
50.5018
50.5015
50.5014
50.5013
50.5012
50.5011
50.501
50.5009
50.5008
50.5007
50.5006
50.5005
50.5005
50.5006
50.5006
50.5008
50.5008
50.5008
50.5008
50.5008
50.5007
50.5006
50.5006
50.5007
50.5007
50.5009
50.5011
50.5012
50.5013
50.5014
50.5015
50.5016
50.5015
50.5016
50.5017
50.5019
50.5021
50.5025
50.5029
50.5037
50.5046
50.5054
50.506
50.5067
50.5073
50.5079
50.5084
50.509
50.5097
50.5106
50.5121
50.5158
50.5216
50.5271
50.532
50.5363
50.54
50.543
50.545
50.5462
50.547
50.5476
50.5475
50.5461
50.5446
50.5434
50.5425
50.542
50.5418
50.5418
50.542
50.5422
50.5425
50.543
50.5434
50.5439
50.5443
50.5447
50.545
50.5452
50.5454
50.5455
50.5455
50.5455
50.5453
50.5451
50.5449
50.5445
50.5441
50.5437
50.5432
50.5426
50.542
50.5413
50.5405