/*--------------------------------*- C++ -*----------------------------------*\
| =========                 |                                                 |
| \\      /  F ield         | OpenFOAM: The Open Source CFD Toolbox           |
|  \\    /   O peration     | Version:  3.0.x                                 |
|   \\  /    A nd           | Web:      www.OpenFOAM.org                      |
|    \\/     M anipulation  |                                                 |
\*---------------------------------------------------------------------------*/
FoamFile
{
    version     2.0;
    format      ascii;
    class       volVectorField;
    location    "0.250075";
    object      U;
}
// * * * * * * * * * * * * * * * * * * * * * * * * * * * * * * * * * * * * * //

dimensions      [0 1 -1 0 0 0 0];

internalField   nonuniform List<vector> 
13800
(
(57.8957 0.000142457 0)
(57.8894 0.000124147 0)
(57.8816 0.000122609 0)
(57.8745 0.000124849 0)
(57.8684 0.000126664 0)
(57.8626 0.000128165 0)
(57.8568 0.000129417 0)
(57.8511 0.000130447 0)
(57.8455 0.000131296 0)
(57.8401 0.000132 0)
(57.8347 0.00013259 0)
(57.8294 0.000133089 0)
(57.8241 0.000133511 0)
(57.8189 0.000133874 0)
(57.8136 0.000134185 0)
(57.8082 0.000134458 0)
(57.8028 0.000134696 0)
(57.7973 0.000134906 0)
(57.7917 0.000135091 0)
(57.7859 0.000135255 0)
(57.7801 0.0001354 0)
(57.7741 0.000135527 0)
(57.768 0.000135641 0)
(57.7617 0.000135742 0)
(57.7553 0.000135832 0)
(57.7488 0.000135911 0)
(57.7422 0.000135981 0)
(57.7354 0.000136043 0)
(57.7286 0.000136096 0)
(57.7218 0.000136141 0)
(57.7149 0.000136178 0)
(57.7079 0.000136206 0)
(57.701 0.000136223 0)
(57.694 0.000136228 0)
(57.6871 0.000136215 0)
(57.6802 0.000136178 0)
(57.6734 0.000136107 0)
(57.6667 0.000135987 0)
(57.6601 0.000135798 0)
(57.6536 0.000135517 0)
(57.6472 0.00013511 0)
(57.641 0.000134537 0)
(57.6349 0.000133754 0)
(57.629 0.000132708 0)
(57.6233 0.000131344 0)
(57.6178 0.000129602 0)
(57.6124 0.000127428 0)
(57.6073 0.000124769 0)
(57.6024 0.000121583 0)
(57.5977 0.000117841 0)
(57.5933 0.000113531 0)
(57.5891 0.000108658 0)
(57.5852 0.000103253 0)
(57.5816 9.73638e-05 0)
(57.5782 9.10615e-05 0)
(57.5751 8.4434e-05 0)
(57.5723 7.75833e-05 0)
(57.5698 7.06203e-05 0)
(57.5675 6.36592e-05 0)
(57.5655 5.68125e-05 0)
(57.5637 5.01849e-05 0)
(57.5622 4.38693e-05 0)
(57.5609 3.79434e-05 0)
(57.5598 3.24669e-05 0)
(57.5589 2.74807e-05 0)
(57.5581 2.30071e-05 0)
(57.5575 1.9051e-05 0)
(57.557 1.5602e-05 0)
(57.5566 1.26369e-05 0)
(57.5563 1.01231e-05 0)
(57.556 8.02021e-06 0)
(57.5559 6.28471e-06 0)
(57.5558 4.8712e-06 0)
(57.5557 3.7348e-06 0)
(57.5557 2.83281e-06 0)
(57.5557 2.12602e-06 0)
(57.5557 1.5781e-06 0)
(57.5557 1.15929e-06 0)
(57.5558 8.42263e-07 0)
(57.5558 6.05269e-07 0)
(57.5559 4.30423e-07 0)
(57.556 3.03296e-07 0)
(57.556 2.12273e-07 0)
(57.5561 1.48068e-07 0)
(57.5562 1.03408e-07 0)
(57.5563 7.25278e-08 0)
(57.5564 5.15736e-08 0)
(57.5565 3.8137e-08 0)
(57.5566 2.8924e-08 0)
(57.5567 2.29854e-08 0)
(57.5568 1.95753e-08 0)
(57.5569 1.84147e-08 0)
(57.557 1.74063e-08 0)
(57.5572 1.62144e-08 0)
(57.5573 1.4971e-08 0)
(57.5574 1.44905e-08 0)
(57.5576 1.40763e-08 0)
(57.5577 1.45404e-08 0)
(57.5579 1.53073e-08 0)
(57.5581 1.65775e-08 0)
(57.5582 1.74716e-08 0)
(57.5584 1.82922e-08 0)
(57.5586 1.86941e-08 0)
(57.5588 1.93116e-08 0)
(57.559 1.97929e-08 0)
(57.5592 2.02839e-08 0)
(57.5594 2.07914e-08 0)
(57.5597 2.13052e-08 0)
(57.5599 2.1813e-08 0)
(57.5602 2.23147e-08 0)
(57.5604 2.27634e-08 0)
(57.5607 2.31872e-08 0)
(57.561 2.359e-08 0)
(57.5613 2.39679e-08 0)
(57.5616 2.4329e-08 0)
(57.5619 2.46755e-08 0)
(57.5623 2.50196e-08 0)
(57.5626 2.53711e-08 0)
(57.563 2.57393e-08 0)
(57.5633 2.61337e-08 0)
(57.5637 2.65536e-08 0)
(57.5641 2.69998e-08 0)
(57.5645 2.74675e-08 0)
(57.565 2.79435e-08 0)
(57.5654 2.84281e-08 0)
(57.5658 2.89218e-08 0)
(57.5663 2.9428e-08 0)
(57.5667 2.99488e-08 0)
(57.5672 3.04855e-08 0)
(57.5677 3.10524e-08 0)
(57.5682 3.16561e-08 0)
(57.5688 3.23248e-08 0)
(57.5693 3.30798e-08 0)
(57.5699 3.38841e-08 0)
(57.5705 3.46479e-08 0)
(57.5711 3.53475e-08 0)
(57.5718 3.60565e-08 0)
(57.5725 3.69007e-08 0)
(57.5733 3.79663e-08 0)
(57.5741 3.92537e-08 0)
(57.575 4.07184e-08 0)
(57.576 4.23085e-08 0)
(57.577 4.40127e-08 0)
(57.5781 4.58584e-08 0)
(57.5794 4.7868e-08 0)
(57.5807 5.00455e-08 0)
(57.5821 5.23543e-08 0)
(57.5837 5.47424e-08 0)
(57.5853 5.7158e-08 0)
(57.5871 5.95667e-08 0)
(57.5891 6.19597e-08 0)
(57.5912 6.43277e-08 0)
(57.5935 6.66642e-08 0)
(57.5959 6.89525e-08 0)
(57.5985 7.11996e-08 0)
(57.6013 7.33846e-08 0)
(57.6043 7.54884e-08 0)
(57.6075 7.75358e-08 0)
(57.6108 7.94839e-08 0)
(57.6144 8.13097e-08 0)
(57.6181 8.30368e-08 0)
(57.622 8.45653e-08 0)
(57.6261 8.59215e-08 0)
(57.6304 8.70003e-08 0)
(57.6348 8.78569e-08 0)
(57.6393 8.83803e-08 0)
(57.644 8.87084e-08 0)
(57.6488 8.8212e-08 0)
(57.6537 8.72645e-08 0)
(57.6586 8.60558e-08 0)
(57.6636 8.45985e-08 0)
(57.6686 8.22808e-08 0)
(57.6736 7.95812e-08 0)
(57.6785 7.61069e-08 0)
(57.6833 7.23729e-08 0)
(57.688 6.78605e-08 0)
(57.6926 6.2998e-08 0)
(57.6969 5.74956e-08 0)
(57.7011 5.18616e-08 0)
(57.705 4.56001e-08 0)
(57.7086 3.86557e-08 0)
(57.7119 3.11233e-08 0)
(57.7148 2.43715e-08 0)
(57.7174 1.53998e-08 0)
(57.7195 1.15027e-08 0)
(57.7212 -1.09831e-09 0)
(57.7225 -9.47849e-09 0)
(57.7233 -2.46227e-08 0)
(57.7236 -4.92875e-08 0)
(57.7234 -1.23892e-09 0)
(57.7226 4.01896e-08 0)
(57.7213 5.10768e-07 0)
(57.7193 2.78318e-06 0)
(57.7166 1.37427e-05 0)
(57.7118 6.62013e-05 0)
(57.6993 0.000319195 0)
(57.6527 0.00152619 0)
(57.4546 0.00723041 0)
(56.8246 0.0365568 0)
(50.8865 0.144321 0)
(57.8996 0.000222414 0)
(57.8972 0.00016239 0)
(57.8933 0.000149248 0)
(57.8901 0.000147617 0)
(57.8878 0.000145874 0)
(57.886 0.000144451 0)
(57.8841 0.000143377 0)
(57.8823 0.000142506 0)
(57.8806 0.000141776 0)
(57.8791 0.000141159 0)
(57.8776 0.000140634 0)
(57.8762 0.000140185 0)
(57.8748 0.000139796 0)
(57.8735 0.000139462 0)
(57.8721 0.000139172 0)
(57.8706 0.000138924 0)
(57.8691 0.00013871 0)
(57.8675 0.000138527 0)
(57.8658 0.000138369 0)
(57.8639 0.000138233 0)
(57.862 0.000138116 0)
(57.8599 0.000138014 0)
(57.8576 0.000137927 0)
(57.8553 0.000137852 0)
(57.8528 0.000137789 0)
(57.8501 0.000137734 0)
(57.8474 0.000137688 0)
(57.8446 0.000137648 0)
(57.8417 0.000137613 0)
(57.8387 0.000137582 0)
(57.8357 0.000137554 0)
(57.8326 0.000137525 0)
(57.8296 0.000137495 0)
(57.8265 0.000137459 0)
(57.8235 0.000137411 0)
(57.8205 0.000137344 0)
(57.8176 0.000137247 0)
(57.8148 0.000137104 0)
(57.812 0.000136894 0)
(57.8094 0.000136592 0)
(57.8069 0.000136163 0)
(57.8045 0.000135566 0)
(57.8023 0.000134754 0)
(57.8002 0.000133674 0)
(57.7982 0.000132268 0)
(57.7964 0.000130476 0)
(57.7947 0.000128242 0)
(57.7932 0.000125514 0)
(57.7918 0.000122249 0)
(57.7906 0.000118418 0)
(57.7895 0.000114012 0)
(57.7885 0.000109039 0)
(57.7876 0.000103529 0)
(57.7868 9.75364e-05 0)
(57.7861 9.11334e-05 0)
(57.7856 8.44114e-05 0)
(57.7851 7.74752e-05 0)
(57.7847 7.04378e-05 0)
(57.7843 6.34153e-05 0)
(57.784 5.65209e-05 0)
(57.7838 4.98599e-05 0)
(57.7836 4.35246e-05 0)
(57.7834 3.75916e-05 0)
(57.7833 3.21191e-05 0)
(57.7832 2.71463e-05 0)
(57.7832 2.26933e-05 0)
(57.7831 1.87632e-05 0)
(57.7831 1.53435e-05 0)
(57.7831 1.24092e-05 0)
(57.7831 9.92631e-06 0)
(57.7832 7.85327e-06 0)
(57.7832 6.14559e-06 0)
(57.7833 4.75747e-06 0)
(57.7833 3.64371e-06 0)
(57.7834 2.76162e-06 0)
(57.7834 2.07237e-06 0)
(57.7835 1.53928e-06 0)
(57.7835 1.13428e-06 0)
(57.7836 8.2948e-07 0)
(57.7837 6.03072e-07 0)
(57.7838 4.36635e-07 0)
(57.7838 3.15346e-07 0)
(57.7839 2.27681e-07 0)
(57.784 1.6488e-07 0)
(57.7841 1.20346e-07 0)
(57.7842 8.88137e-08 0)
(57.7843 6.7056e-08 0)
(57.7844 5.31078e-08 0)
(57.7845 4.29802e-08 0)
(57.7846 3.62497e-08 0)
(57.7847 3.20638e-08 0)
(57.7848 3.05965e-08 0)
(57.7849 2.86819e-08 0)
(57.785 2.66062e-08 0)
(57.7851 2.42508e-08 0)
(57.7853 2.31807e-08 0)
(57.7854 2.19907e-08 0)
(57.7855 2.22397e-08 0)
(57.7857 2.22987e-08 0)
(57.7859 2.3346e-08 0)
(57.786 2.38534e-08 0)
(57.7862 2.44222e-08 0)
(57.7864 2.42914e-08 0)
(57.7866 2.46853e-08 0)
(57.7868 2.48804e-08 0)
(57.787 2.51106e-08 0)
(57.7872 2.53734e-08 0)
(57.7874 2.5664e-08 0)
(57.7877 2.59616e-08 0)
(57.7879 2.62456e-08 0)
(57.7882 2.6511e-08 0)
(57.7885 2.67519e-08 0)
(57.7887 2.69732e-08 0)
(57.789 2.71784e-08 0)
(57.7893 2.73694e-08 0)
(57.7897 2.75464e-08 0)
(57.79 2.77158e-08 0)
(57.7903 2.78812e-08 0)
(57.7907 2.80697e-08 0)
(57.791 2.82747e-08 0)
(57.7914 2.85033e-08 0)
(57.7918 2.87504e-08 0)
(57.7922 2.9013e-08 0)
(57.7926 2.92982e-08 0)
(57.7931 2.95938e-08 0)
(57.7935 2.99017e-08 0)
(57.7939 3.02261e-08 0)
(57.7944 3.05583e-08 0)
(57.7949 3.09177e-08 0)
(57.7954 3.13179e-08 0)
(57.7959 3.17667e-08 0)
(57.7964 3.23024e-08 0)
(57.7969 3.29482e-08 0)
(57.7975 3.36668e-08 0)
(57.7981 3.43612e-08 0)
(57.7987 3.5036e-08 0)
(57.7994 3.57997e-08 0)
(57.8001 3.67873e-08 0)
(57.8009 3.80943e-08 0)
(57.8017 3.97401e-08 0)
(57.8026 4.16718e-08 0)
(57.8036 4.38719e-08 0)
(57.8046 4.63194e-08 0)
(57.8057 4.90478e-08 0)
(57.8069 5.20805e-08 0)
(57.8082 5.54198e-08 0)
(57.8097 5.9028e-08 0)
(57.8112 6.285e-08 0)
(57.8129 6.68307e-08 0)
(57.8147 7.09371e-08 0)
(57.8166 7.51529e-08 0)
(57.8187 7.94951e-08 0)
(57.821 8.39731e-08 0)
(57.8234 8.85784e-08 0)
(57.826 9.32953e-08 0)
(57.8288 9.80435e-08 0)
(57.8318 1.02796e-07 0)
(57.835 1.07594e-07 0)
(57.8383 1.12318e-07 0)
(57.8419 1.16898e-07 0)
(57.8456 1.21463e-07 0)
(57.8495 1.25915e-07 0)
(57.8536 1.30075e-07 0)
(57.8578 1.33854e-07 0)
(57.8622 1.3717e-07 0)
(57.8668 1.39494e-07 0)
(57.8715 1.43986e-07 0)
(57.8763 1.46708e-07 0)
(57.8811 1.47151e-07 0)
(57.8861 1.48155e-07 0)
(57.891 1.47591e-07 0)
(57.896 1.47609e-07 0)
(57.901 1.45522e-07 0)
(57.9059 1.43832e-07 0)
(57.9107 1.39857e-07 0)
(57.9154 1.36737e-07 0)
(57.92 1.31425e-07 0)
(57.9243 1.25597e-07 0)
(57.9285 1.19563e-07 0)
(57.9324 1.1104e-07 0)
(57.936 1.0175e-07 0)
(57.9393 9.55673e-08 0)
(57.9422 8.22671e-08 0)
(57.9447 7.52394e-08 0)
(57.9469 5.88774e-08 0)
(57.9486 5.1806e-08 0)
(57.9498 4.58625e-08 0)
(57.9506 3.16712e-08 0)
(57.9509 9.53373e-09 0)
(57.9507 8.90566e-08 0)
(57.9499 4.08315e-07 0)
(57.9486 1.98038e-06 0)
(57.9466 9.71347e-06 0)
(57.9439 4.70334e-05 0)
(57.9391 0.000225843 0)
(57.9267 0.0010873 0)
(57.8802 0.00519904 0)
(57.683 0.0245845 0)
(57.0543 0.121742 0)
(51.4392 0.454249 0)
(57.8995 0.00016321 0)
(57.8972 0.000114079 0)
(57.8933 0.000106781 0)
(57.8901 0.000110547 0)
(57.8878 0.000111672 0)
(57.886 0.000112122 0)
(57.8841 0.000112518 0)
(57.8823 0.00011284 0)
(57.8806 0.000113095 0)
(57.8791 0.000113305 0)
(57.8776 0.000113482 0)
(57.8762 0.000113632 0)
(57.8749 0.000113762 0)
(57.8735 0.000113876 0)
(57.8721 0.000113978 0)
(57.8706 0.000114071 0)
(57.8691 0.000114155 0)
(57.8675 0.000114234 0)
(57.8658 0.000114307 0)
(57.864 0.000114374 0)
(57.862 0.000114437 0)
(57.8599 0.000114495 0)
(57.8577 0.000114549 0)
(57.8553 0.0001146 0)
(57.8528 0.000114648 0)
(57.8502 0.000114693 0)
(57.8475 0.000114736 0)
(57.8447 0.000114775 0)
(57.8418 0.00011481 0)
(57.8388 0.000114843 0)
(57.8358 0.000114872 0)
(57.8327 0.000114895 0)
(57.8297 0.000114912 0)
(57.8266 0.00011492 0)
(57.8236 0.000114914 0)
(57.8207 0.000114888 0)
(57.8178 0.000114834 0)
(57.8149 0.000114738 0)
(57.8122 0.000114583 0)
(57.8096 0.000114347 0)
(57.8071 0.000114001 0)
(57.8047 0.000113511 0)
(57.8025 0.000112837 0)
(57.8004 0.000111935 0)
(57.7985 0.000110756 0)
(57.7967 0.00010925 0)
(57.795 0.00010737 0)
(57.7935 0.000105072 0)
(57.7921 0.000102322 0)
(57.7909 9.90953e-05 0)
(57.7897 9.53846e-05 0)
(57.7887 9.11979e-05 0)
(57.7879 8.65622e-05 0)
(57.7871 8.15227e-05 0)
(57.7864 7.61418e-05 0)
(57.7858 7.04968e-05 0)
(57.7853 6.4676e-05 0)
(57.7849 5.87746e-05 0)
(57.7845 5.28901e-05 0)
(57.7842 4.71174e-05 0)
(57.784 4.15441e-05 0)
(57.7838 3.62473e-05 0)
(57.7836 3.12904e-05 0)
(57.7835 2.67216e-05 0)
(57.7834 2.25728e-05 0)
(57.7834 1.88602e-05 0)
(57.7833 1.55857e-05 0)
(57.7833 1.27381e-05 0)
(57.7833 1.02965e-05 0)
(57.7833 8.23153e-06 0)
(57.7833 6.50856e-06 0)
(57.7834 5.09005e-06 0)
(57.7834 3.93762e-06 0)
(57.7834 3.01336e-06 0)
(57.7835 2.2815e-06 0)
(57.7836 1.70949e-06 0)
(57.7836 1.26648e-06 0)
(57.7837 9.29099e-07 0)
(57.7837 6.74059e-07 0)
(57.7838 4.83671e-07 0)
(57.7839 3.43393e-07 0)
(57.784 2.41442e-07 0)
(57.784 1.68347e-07 0)
(57.7841 1.16618e-07 0)
(57.7842 8.04412e-08 0)
(57.7843 5.52169e-08 0)
(57.7844 3.80689e-08 0)
(57.7845 2.71365e-08 0)
(57.7846 1.9265e-08 0)
(57.7847 1.40613e-08 0)
(57.7848 1.09126e-08 0)
(57.7849 1.00426e-08 0)
(57.785 8.85983e-09 0)
(57.7851 7.87671e-09 0)
(57.7853 6.40719e-09 0)
(57.7854 5.91498e-09 0)
(57.7855 5.31172e-09 0)
(57.7857 5.94668e-09 0)
(57.7858 6.07172e-09 0)
(57.786 7.13302e-09 0)
(57.7862 7.78268e-09 0)
(57.7863 8.48911e-09 0)
(57.7865 8.52748e-09 0)
(57.7867 9.04641e-09 0)
(57.7869 9.37555e-09 0)
(57.7871 9.70457e-09 0)
(57.7873 1.00507e-08 0)
(57.7876 1.04062e-08 0)
(57.7878 1.07604e-08 0)
(57.7881 1.10961e-08 0)
(57.7883 1.1403e-08 0)
(57.7886 1.16825e-08 0)
(57.7889 1.19382e-08 0)
(57.7892 1.21765e-08 0)
(57.7895 1.23973e-08 0)
(57.7898 1.25957e-08 0)
(57.7901 1.27836e-08 0)
(57.7905 1.29703e-08 0)
(57.7908 1.31619e-08 0)
(57.7912 1.33645e-08 0)
(57.7916 1.35752e-08 0)
(57.7919 1.37906e-08 0)
(57.7923 1.40116e-08 0)
(57.7928 1.4229e-08 0)
(57.7932 1.44373e-08 0)
(57.7936 1.46348e-08 0)
(57.7941 1.48222e-08 0)
(57.7945 1.49912e-08 0)
(57.795 1.51521e-08 0)
(57.7955 1.53034e-08 0)
(57.796 1.54572e-08 0)
(57.7965 1.56329e-08 0)
(57.7971 1.58393e-08 0)
(57.7976 1.60688e-08 0)
(57.7982 1.62659e-08 0)
(57.7989 1.64221e-08 0)
(57.7996 1.66174e-08 0)
(57.8003 1.69498e-08 0)
(57.801 1.74884e-08 0)
(57.8019 1.82448e-08 0)
(57.8027 1.91987e-08 0)
(57.8037 2.03122e-08 0)
(57.8047 2.15842e-08 0)
(57.8058 2.30283e-08 0)
(57.8071 2.46698e-08 0)
(57.8084 2.65119e-08 0)
(57.8098 2.8529e-08 0)
(57.8113 3.06834e-08 0)
(57.813 3.29582e-08 0)
(57.8148 3.534e-08 0)
(57.8168 3.78324e-08 0)
(57.8189 4.04668e-08 0)
(57.8211 4.32274e-08 0)
(57.8236 4.61427e-08 0)
(57.8262 4.92096e-08 0)
(57.829 5.23547e-08 0)
(57.8319 5.55875e-08 0)
(57.8351 5.89409e-08 0)
(57.8384 6.22605e-08 0)
(57.842 6.54269e-08 0)
(57.8457 6.86688e-08 0)
(57.8496 7.1762e-08 0)
(57.8537 7.45288e-08 0)
(57.858 7.69812e-08 0)
(57.8624 7.90684e-08 0)
(57.8669 7.95645e-08 0)
(57.8716 8.45816e-08 0)
(57.8764 8.68243e-08 0)
(57.8813 8.58361e-08 0)
(57.8862 8.64637e-08 0)
(57.8912 8.60048e-08 0)
(57.8962 8.61257e-08 0)
(57.9011 8.42583e-08 0)
(57.906 8.29911e-08 0)
(57.9109 7.98758e-08 0)
(57.9156 7.7614e-08 0)
(57.9201 7.3324e-08 0)
(57.9245 6.87574e-08 0)
(57.9286 6.45044e-08 0)
(57.9325 5.79731e-08 0)
(57.9361 5.02423e-08 0)
(57.9394 4.57436e-08 0)
(57.9423 3.64316e-08 0)
(57.9449 2.9087e-08 0)
(57.947 2.87898e-08 0)
(57.9487 4.27249e-09 0)
(57.95 4.28844e-08 0)
(57.9508 -6.47e-08 0)
(57.9511 6.78974e-08 0)
(57.9508 2.77791e-08 0)
(57.9501 9.10947e-07 0)
(57.9487 3.97997e-06 0)
(57.9468 1.93371e-05 0)
(57.944 9.3384e-05 0)
(57.9393 0.000448369 0)
(57.9271 0.00215712 0)
(57.8817 0.0103199 0)
(57.6896 0.0487974 0)
(57.0801 0.240549 0)
(51.772 0.878125 0)
(57.8995 0.000118949 0)
(57.8971 0.000104085 0)
(57.8933 9.92853e-05 0)
(57.89 0.000103983 0)
(57.8878 0.000106272 0)
(57.8859 0.000107498 0)
(57.884 0.000108529 0)
(57.8822 0.000109402 0)
(57.8806 0.000110122 0)
(57.879 0.000110723 0)
(57.8776 0.000111229 0)
(57.8762 0.000111659 0)
(57.8748 0.000112027 0)
(57.8735 0.000112346 0)
(57.8721 0.000112623 0)
(57.8706 0.000112868 0)
(57.8691 0.000113084 0)
(57.8675 0.000113278 0)
(57.8658 0.00011345 0)
(57.8639 0.000113605 0)
(57.862 0.000113745 0)
(57.8599 0.00011387 0)
(57.8576 0.000113983 0)
(57.8553 0.000114085 0)
(57.8528 0.000114178 0)
(57.8502 0.000114263 0)
(57.8475 0.000114339 0)
(57.8446 0.000114409 0)
(57.8417 0.00011447 0)
(57.8388 0.000114525 0)
(57.8358 0.000114574 0)
(57.8327 0.000114614 0)
(57.8297 0.000114645 0)
(57.8266 0.000114666 0)
(57.8236 0.000114672 0)
(57.8206 0.000114657 0)
(57.8177 0.000114614 0)
(57.8149 0.000114531 0)
(57.8122 0.00011439 0)
(57.8096 0.000114172 0)
(57.8071 0.000113848 0)
(57.8047 0.000113385 0)
(57.8025 0.000112746 0)
(57.8004 0.000111886 0)
(57.7984 0.000110758 0)
(57.7966 0.000109313 0)
(57.795 0.000107504 0)
(57.7934 0.000105286 0)
(57.7921 0.000102625 0)
(57.7908 9.94935e-05 0)
(57.7897 9.58821e-05 0)
(57.7887 9.17958e-05 0)
(57.7878 8.7258e-05 0)
(57.7871 8.23102e-05 0)
(57.7864 7.70114e-05 0)
(57.7858 7.14354e-05 0)
(57.7853 6.56678e-05 0)
(57.7849 5.98019e-05 0)
(57.7845 5.39342e-05 0)
(57.7842 4.81594e-05 0)
(57.784 4.25661e-05 0)
(57.7838 3.7233e-05 0)
(57.7836 3.22259e-05 0)
(57.7835 2.75957e-05 0)
(57.7834 2.33775e-05 0)
(57.7834 1.95904e-05 0)
(57.7833 1.62394e-05 0)
(57.7833 1.33159e-05 0)
(57.7833 1.0801e-05 0)
(57.7833 8.66728e-06 0)
(57.7833 6.88104e-06 0)
(57.7834 5.40582e-06 0)
(57.7834 4.20334e-06 0)
(57.7834 3.23572e-06 0)
(57.7835 2.46692e-06 0)
(57.7836 1.86388e-06 0)
(57.7836 1.39571e-06 0)
(57.7837 1.0376e-06 0)
(57.7837 7.66123e-07 0)
(57.7838 5.62944e-07 0)
(57.7839 4.13106e-07 0)
(57.784 3.04238e-07 0)
(57.784 2.26242e-07 0)
(57.7841 1.71139e-07 0)
(57.7842 1.32718e-07 0)
(57.7843 1.06114e-07 0)
(57.7844 8.80434e-08 0)
(57.7845 7.63435e-08 0)
(57.7846 6.82888e-08 0)
(57.7847 6.29664e-08 0)
(57.7848 5.99256e-08 0)
(57.7849 5.89251e-08 0)
(57.785 5.8026e-08 0)
(57.7851 5.72576e-08 0)
(57.7853 5.61506e-08 0)
(57.7854 5.57186e-08 0)
(57.7855 5.5418e-08 0)
(57.7857 5.59662e-08 0)
(57.7858 5.64363e-08 0)
(57.786 5.74939e-08 0)
(57.7862 5.82474e-08 0)
(57.7863 5.89865e-08 0)
(57.7865 5.9236e-08 0)
(57.7867 5.97831e-08 0)
(57.7869 6.01963e-08 0)
(57.7871 6.06128e-08 0)
(57.7873 6.10378e-08 0)
(57.7876 6.14737e-08 0)
(57.7878 6.19066e-08 0)
(57.7881 6.2323e-08 0)
(57.7883 6.27154e-08 0)
(57.7886 6.30822e-08 0)
(57.7889 6.34315e-08 0)
(57.7892 6.3764e-08 0)
(57.7895 6.40889e-08 0)
(57.7898 6.44035e-08 0)
(57.7901 6.47191e-08 0)
(57.7905 6.5041e-08 0)
(57.7908 6.53885e-08 0)
(57.7912 6.57587e-08 0)
(57.7916 6.61522e-08 0)
(57.7919 6.65713e-08 0)
(57.7923 6.70048e-08 0)
(57.7928 6.74444e-08 0)
(57.7932 6.78874e-08 0)
(57.7936 6.83274e-08 0)
(57.7941 6.87605e-08 0)
(57.7945 6.9183e-08 0)
(57.795 6.96023e-08 0)
(57.7955 7.00215e-08 0)
(57.796 7.04475e-08 0)
(57.7965 7.08988e-08 0)
(57.7971 7.13918e-08 0)
(57.7976 7.1903e-08 0)
(57.7982 7.23773e-08 0)
(57.7989 7.27939e-08 0)
(57.7996 7.32157e-08 0)
(57.8003 7.37426e-08 0)
(57.801 7.44377e-08 0)
(57.8019 7.53029e-08 0)
(57.8027 7.6305e-08 0)
(57.8037 7.74074e-08 0)
(57.8047 7.85981e-08 0)
(57.8058 7.9899e-08 0)
(57.8071 8.13379e-08 0)
(57.8084 8.29202e-08 0)
(57.8098 8.46251e-08 0)
(57.8113 8.64179e-08 0)
(57.813 8.82749e-08 0)
(57.8148 9.0173e-08 0)
(57.8168 9.21149e-08 0)
(57.8189 9.41361e-08 0)
(57.8211 9.62377e-08 0)
(57.8236 9.84128e-08 0)
(57.8262 1.00699e-07 0)
(57.829 1.02814e-07 0)
(57.8319 1.04958e-07 0)
(57.8351 1.0723e-07 0)
(57.8384 1.09566e-07 0)
(57.842 1.11218e-07 0)
(57.8457 1.13463e-07 0)
(57.8496 1.15317e-07 0)
(57.8537 1.16934e-07 0)
(57.858 1.17688e-07 0)
(57.8624 1.18473e-07 0)
(57.8669 1.18061e-07 0)
(57.8716 1.25142e-07 0)
(57.8764 1.25455e-07 0)
(57.8813 1.21423e-07 0)
(57.8862 1.21769e-07 0)
(57.8912 1.20018e-07 0)
(57.8962 1.19818e-07 0)
(57.9011 1.16928e-07 0)
(57.906 1.14566e-07 0)
(57.9109 1.10587e-07 0)
(57.9156 1.09703e-07 0)
(57.9201 1.05745e-07 0)
(57.9245 1.00118e-07 0)
(57.9286 1.01402e-07 0)
(57.9325 9.1553e-08 0)
(57.9361 8.32036e-08 0)
(57.9394 8.51649e-08 0)
(57.9423 6.95233e-08 0)
(57.9449 6.68779e-08 0)
(57.947 6.71556e-08 0)
(57.9487 3.89479e-08 0)
(57.95 5.9137e-08 0)
(57.9508 2.75315e-07 0)
(57.9511 -3.03142e-07 0)
(57.9508 3.8369e-07 0)
(57.9501 2.56803e-06 0)
(57.9487 1.01658e-05 0)
(57.9468 4.91333e-05 0)
(57.9441 0.000236931 0)
(57.9395 0.00113739 0)
(57.9283 0.00546545 0)
(57.8877 0.0260492 0)
(57.7195 0.121962 0)
(57.1911 0.55251 0)
(53.1698 1.98038 0)
(57.8995 3.56921e-05 0)
(57.8971 2.82191e-05 0)
(57.8932 1.90884e-05 0)
(57.89 1.6129e-05 0)
(57.8878 1.37184e-05 0)
(57.8859 1.15582e-05 0)
(57.884 9.85581e-06 0)
(57.8822 8.49446e-06 0)
(57.8805 7.3709e-06 0)
(57.879 6.43051e-06 0)
(57.8776 5.63565e-06 0)
(57.8762 4.95825e-06 0)
(57.8748 4.37634e-06 0)
(57.8734 3.87381e-06 0)
(57.872 3.43731e-06 0)
(57.8706 3.0567e-06 0)
(57.8691 2.72336e-06 0)
(57.8675 2.43069e-06 0)
(57.8657 2.17289e-06 0)
(57.8639 1.94534e-06 0)
(57.8619 1.74431e-06 0)
(57.8599 1.56617e-06 0)
(57.8576 1.40823e-06 0)
(57.8553 1.268e-06 0)
(57.8528 1.14363e-06 0)
(57.8502 1.03304e-06 0)
(57.8474 9.34869e-07 0)
(57.8446 8.47639e-07 0)
(57.8417 7.70107e-07 0)
(57.8387 7.01299e-07 0)
(57.8357 6.40466e-07 0)
(57.8327 5.86334e-07 0)
(57.8296 5.38317e-07 0)
(57.8266 4.95688e-07 0)
(57.8236 4.57776e-07 0)
(57.8206 4.2392e-07 0)
(57.8177 3.93426e-07 0)
(57.8149 3.65667e-07 0)
(57.8122 3.40075e-07 0)
(57.8096 3.1596e-07 0)
(57.8071 2.92636e-07 0)
(57.8047 2.69363e-07 0)
(57.8025 2.45377e-07 0)
(57.8004 2.19903e-07 0)
(57.7984 1.92195e-07 0)
(57.7966 1.61645e-07 0)
(57.7949 1.27807e-07 0)
(57.7934 9.0388e-08 0)
(57.792 4.93923e-08 0)
(57.7908 5.16469e-09 0)
(57.7897 -4.16305e-08 0)
(57.7887 -9.00334e-08 0)
(57.7878 -1.388e-07 0)
(57.787 -1.86482e-07 0)
(57.7864 -2.31538e-07 0)
(57.7858 -2.72434e-07 0)
(57.7853 -3.07794e-07 0)
(57.7849 -3.36467e-07 0)
(57.7845 -3.57663e-07 0)
(57.7842 -3.70949e-07 0)
(57.784 -3.76307e-07 0)
(57.7838 -3.74101e-07 0)
(57.7836 -3.65037e-07 0)
(57.7835 -3.50096e-07 0)
(57.7834 -3.3041e-07 0)
(57.7833 -3.07287e-07 0)
(57.7833 -2.81891e-07 0)
(57.7833 -2.55449e-07 0)
(57.7833 -2.2901e-07 0)
(57.7833 -2.03368e-07 0)
(57.7833 -1.79453e-07 0)
(57.7834 -1.57529e-07 0)
(57.7834 -1.37966e-07 0)
(57.7834 -1.20847e-07 0)
(57.7835 -1.06037e-07 0)
(57.7835 -9.31366e-08 0)
(57.7836 -8.19458e-08 0)
(57.7837 -7.15743e-08 0)
(57.7837 -6.20967e-08 0)
(57.7838 -5.36007e-08 0)
(57.7839 -4.64943e-08 0)
(57.784 -4.12823e-08 0)
(57.784 -3.80956e-08 0)
(57.7841 -3.65594e-08 0)
(57.7842 -3.61179e-08 0)
(57.7843 -3.63086e-08 0)
(57.7844 -3.67275e-08 0)
(57.7845 -3.70745e-08 0)
(57.7846 -3.75225e-08 0)
(57.7847 -3.79936e-08 0)
(57.7848 -3.83597e-08 0)
(57.7849 -3.8609e-08 0)
(57.785 -3.91221e-08 0)
(57.7851 -3.97256e-08 0)
(57.7853 -4.04207e-08 0)
(57.7854 -4.0903e-08 0)
(57.7855 -4.13305e-08 0)
(57.7857 -4.16033e-08 0)
(57.7858 -4.19458e-08 0)
(57.786 -4.21614e-08 0)
(57.7862 -4.24418e-08 0)
(57.7863 -4.26738e-08 0)
(57.7865 -4.30101e-08 0)
(57.7867 -4.32121e-08 0)
(57.7869 -4.34266e-08 0)
(57.7871 -4.36231e-08 0)
(57.7873 -4.38016e-08 0)
(57.7876 -4.39658e-08 0)
(57.7878 -4.41173e-08 0)
(57.7881 -4.42581e-08 0)
(57.7883 -4.43902e-08 0)
(57.7886 -4.45134e-08 0)
(57.7889 -4.46253e-08 0)
(57.7892 -4.47287e-08 0)
(57.7895 -4.48235e-08 0)
(57.7898 -4.49122e-08 0)
(57.7901 -4.49942e-08 0)
(57.7905 -4.50689e-08 0)
(57.7908 -4.51339e-08 0)
(57.7912 -4.51912e-08 0)
(57.7916 -4.52396e-08 0)
(57.7919 -4.5278e-08 0)
(57.7923 -4.5306e-08 0)
(57.7928 -4.53233e-08 0)
(57.7932 -4.53316e-08 0)
(57.7936 -4.53318e-08 0)
(57.7941 -4.53243e-08 0)
(57.7945 -4.53085e-08 0)
(57.795 -4.52821e-08 0)
(57.7955 -4.52398e-08 0)
(57.796 -4.51775e-08 0)
(57.7965 -4.50878e-08 0)
(57.7971 -4.49737e-08 0)
(57.7976 -4.48388e-08 0)
(57.7982 -4.46939e-08 0)
(57.7989 -4.45248e-08 0)
(57.7996 -4.4318e-08 0)
(57.8003 -4.40519e-08 0)
(57.801 -4.37242e-08 0)
(57.8019 -4.33346e-08 0)
(57.8027 -4.28862e-08 0)
(57.8037 -4.23769e-08 0)
(57.8047 -4.18116e-08 0)
(57.8058 -4.11848e-08 0)
(57.8071 -4.04973e-08 0)
(57.8084 -3.97394e-08 0)
(57.8098 -3.89131e-08 0)
(57.8113 -3.80192e-08 0)
(57.813 -3.70682e-08 0)
(57.8148 -3.60532e-08 0)
(57.8168 -3.50085e-08 0)
(57.8189 -3.38611e-08 0)
(57.8211 -3.26941e-08 0)
(57.8236 -3.14658e-08 0)
(57.8262 -3.00824e-08 0)
(57.829 -2.89754e-08 0)
(57.8319 -2.76632e-08 0)
(57.8351 -2.6116e-08 0)
(57.8384 -2.43257e-08 0)
(57.842 -2.38726e-08 0)
(57.8457 -2.1672e-08 0)
(57.8496 -2.03407e-08 0)
(57.8537 -1.92612e-08 0)
(57.858 -1.94008e-08 0)
(57.8624 -2.01814e-08 0)
(57.8669 -3.13822e-08 0)
(57.8716 -4.63363e-09 0)
(57.8764 -2.86947e-09 0)
(57.8813 -1.32812e-08 0)
(57.8862 -1.20966e-08 0)
(57.8912 -1.35066e-08 0)
(57.8962 -1.00997e-08 0)
(57.9011 -1.34551e-08 0)
(57.906 -9.78343e-09 0)
(57.9109 -1.48925e-08 0)
(57.9156 -9.46887e-09 0)
(57.9201 -1.09168e-08 0)
(57.9245 -1.39736e-08 0)
(57.9286 -8.96145e-09 0)
(57.9325 -1.44666e-08 0)
(57.9361 -2.30441e-08 0)
(57.9394 -1.21872e-08 0)
(57.9423 -2.3558e-08 0)
(57.9449 -2.09189e-08 0)
(57.947 -1.64505e-08 0)
(57.9487 -4.05605e-08 0)
(57.95 2.75421e-08 0)
(57.9508 -1.8754e-08 0)
(57.9511 3.69222e-07 0)
(57.9508 -8.90527e-07 0)
(57.9501 4.69925e-06 0)
(57.9487 1.67769e-05 0)
(57.9469 8.15375e-05 0)
(57.9443 0.000392755 0)
(57.9408 0.00189246 0)
(57.9343 0.00909509 0)
(57.9156 0.0434161 0)
(57.8412 0.203226 0)
(57.6075 0.901066 0)
(55.1974 3.19516 0)
(57.8995 -3.56921e-05 0)
(57.8971 -2.82191e-05 0)
(57.8932 -1.90884e-05 0)
(57.89 -1.6129e-05 0)
(57.8878 -1.37184e-05 0)
(57.8859 -1.15582e-05 0)
(57.884 -9.85581e-06 0)
(57.8822 -8.49446e-06 0)
(57.8805 -7.3709e-06 0)
(57.879 -6.43051e-06 0)
(57.8776 -5.63565e-06 0)
(57.8762 -4.95825e-06 0)
(57.8748 -4.37634e-06 0)
(57.8734 -3.87381e-06 0)
(57.872 -3.43731e-06 0)
(57.8706 -3.05671e-06 0)
(57.8691 -2.72336e-06 0)
(57.8675 -2.43069e-06 0)
(57.8657 -2.17289e-06 0)
(57.8639 -1.94534e-06 0)
(57.8619 -1.74431e-06 0)
(57.8599 -1.56617e-06 0)
(57.8576 -1.40822e-06 0)
(57.8553 -1.26799e-06 0)
(57.8528 -1.14363e-06 0)
(57.8502 -1.03304e-06 0)
(57.8474 -9.34869e-07 0)
(57.8446 -8.4764e-07 0)
(57.8417 -7.70108e-07 0)
(57.8387 -7.013e-07 0)
(57.8357 -6.40465e-07 0)
(57.8327 -5.86332e-07 0)
(57.8296 -5.38315e-07 0)
(57.8266 -4.95688e-07 0)
(57.8236 -4.57775e-07 0)
(57.8206 -4.2392e-07 0)
(57.8177 -3.93424e-07 0)
(57.8149 -3.65666e-07 0)
(57.8122 -3.40076e-07 0)
(57.8096 -3.15961e-07 0)
(57.8071 -2.92637e-07 0)
(57.8047 -2.69364e-07 0)
(57.8025 -2.45376e-07 0)
(57.8004 -2.19904e-07 0)
(57.7984 -1.92196e-07 0)
(57.7966 -1.61644e-07 0)
(57.7949 -1.27806e-07 0)
(57.7934 -9.03888e-08 0)
(57.792 -4.93934e-08 0)
(57.7908 -5.16484e-09 0)
(57.7897 4.16299e-08 0)
(57.7887 9.0033e-08 0)
(57.7878 1.388e-07 0)
(57.787 1.86483e-07 0)
(57.7864 2.31539e-07 0)
(57.7858 2.72434e-07 0)
(57.7853 3.07795e-07 0)
(57.7849 3.36467e-07 0)
(57.7845 3.57663e-07 0)
(57.7842 3.70949e-07 0)
(57.784 3.76308e-07 0)
(57.7838 3.74101e-07 0)
(57.7836 3.65037e-07 0)
(57.7835 3.50096e-07 0)
(57.7834 3.3041e-07 0)
(57.7833 3.07286e-07 0)
(57.7833 2.8189e-07 0)
(57.7833 2.5545e-07 0)
(57.7833 2.29011e-07 0)
(57.7833 2.03369e-07 0)
(57.7833 1.79455e-07 0)
(57.7834 1.57529e-07 0)
(57.7834 1.37965e-07 0)
(57.7834 1.20848e-07 0)
(57.7835 1.06037e-07 0)
(57.7835 9.3138e-08 0)
(57.7836 8.1946e-08 0)
(57.7837 7.15744e-08 0)
(57.7837 6.20958e-08 0)
(57.7838 5.36018e-08 0)
(57.7839 4.64936e-08 0)
(57.784 4.12816e-08 0)
(57.784 3.80947e-08 0)
(57.7841 3.65603e-08 0)
(57.7842 3.61181e-08 0)
(57.7843 3.63083e-08 0)
(57.7844 3.67267e-08 0)
(57.7845 3.70748e-08 0)
(57.7846 3.75213e-08 0)
(57.7847 3.79936e-08 0)
(57.7848 3.83599e-08 0)
(57.7849 3.86089e-08 0)
(57.785 3.91214e-08 0)
(57.7851 3.97253e-08 0)
(57.7853 4.04203e-08 0)
(57.7854 4.09044e-08 0)
(57.7855 4.13318e-08 0)
(57.7857 4.16036e-08 0)
(57.7858 4.19448e-08 0)
(57.786 4.21604e-08 0)
(57.7862 4.24418e-08 0)
(57.7863 4.26745e-08 0)
(57.7865 4.30104e-08 0)
(57.7867 4.32115e-08 0)
(57.7869 4.34267e-08 0)
(57.7871 4.36235e-08 0)
(57.7873 4.38014e-08 0)
(57.7876 4.3965e-08 0)
(57.7878 4.41163e-08 0)
(57.7881 4.42581e-08 0)
(57.7883 4.43911e-08 0)
(57.7886 4.45135e-08 0)
(57.7889 4.46261e-08 0)
(57.7892 4.47294e-08 0)
(57.7895 4.48248e-08 0)
(57.7898 4.49123e-08 0)
(57.7901 4.49948e-08 0)
(57.7905 4.50683e-08 0)
(57.7908 4.51338e-08 0)
(57.7912 4.51913e-08 0)
(57.7916 4.52396e-08 0)
(57.7919 4.52782e-08 0)
(57.7923 4.53049e-08 0)
(57.7928 4.53225e-08 0)
(57.7932 4.53311e-08 0)
(57.7936 4.53324e-08 0)
(57.7941 4.53249e-08 0)
(57.7945 4.5309e-08 0)
(57.795 4.52828e-08 0)
(57.7955 4.5239e-08 0)
(57.796 4.51765e-08 0)
(57.7965 4.50891e-08 0)
(57.7971 4.49737e-08 0)
(57.7976 4.48387e-08 0)
(57.7982 4.4692e-08 0)
(57.7989 4.45236e-08 0)
(57.7996 4.43172e-08 0)
(57.8003 4.40523e-08 0)
(57.801 4.37238e-08 0)
(57.8019 4.33348e-08 0)
(57.8027 4.28854e-08 0)
(57.8037 4.2378e-08 0)
(57.8047 4.18102e-08 0)
(57.8058 4.11841e-08 0)
(57.8071 4.04944e-08 0)
(57.8084 3.97382e-08 0)
(57.8098 3.89112e-08 0)
(57.8113 3.80223e-08 0)
(57.813 3.70629e-08 0)
(57.8148 3.60564e-08 0)
(57.8168 3.49663e-08 0)
(57.8189 3.38916e-08 0)
(57.8211 3.27417e-08 0)
(57.8236 3.15202e-08 0)
(57.8262 3.05036e-08 0)
(57.829 2.87128e-08 0)
(57.8319 2.72439e-08 0)
(57.8351 2.61661e-08 0)
(57.8384 2.51942e-08 0)
(57.842 2.28719e-08 0)
(57.8457 2.23299e-08 0)
(57.8496 2.06736e-08 0)
(57.8537 1.95764e-08 0)
(57.858 1.64829e-08 0)
(57.8624 1.37406e-08 0)
(57.8669 5.07012e-11 0)
(57.8716 2.50687e-08 0)
(57.8764 2.48635e-08 0)
(57.8813 1.3301e-08 0)
(57.8862 1.20442e-08 0)
(57.8912 1.10908e-08 0)
(57.8962 1.38585e-08 0)
(57.9011 9.12251e-09 0)
(57.906 1.48586e-08 0)
(57.9109 8.16715e-09 0)
(57.9156 1.37515e-08 0)
(57.9201 1.24028e-08 0)
(57.9245 1.11577e-08 0)
(57.9286 1.64726e-08 0)
(57.9325 1.50637e-08 0)
(57.9361 1.12992e-08 0)
(57.9394 1.85634e-08 0)
(57.9423 1.97035e-08 0)
(57.9449 2.81403e-08 0)
(57.947 2.71925e-08 0)
(57.9487 2.06418e-08 0)
(57.95 4.15171e-08 0)
(57.9508 -3.24729e-08 0)
(57.9511 6.75314e-07 0)
(57.9508 -8.3712e-07 0)
(57.9501 4.60855e-06 0)
(57.9488 1.69334e-05 0)
(57.9469 8.18117e-05 0)
(57.9447 0.000393388 0)
(57.9424 0.00190555 0)
(57.9418 0.00921975 0)
(57.9507 0.0447282 0)
(57.9997 0.215885 0)
(58.1812 1.02364 0)
(58.8746 3.5915 0)
(57.8995 -0.000118949 0)
(57.8971 -0.000104085 0)
(57.8933 -9.92853e-05 0)
(57.89 -0.000103983 0)
(57.8878 -0.000106272 0)
(57.8859 -0.000107498 0)
(57.884 -0.000108529 0)
(57.8822 -0.000109402 0)
(57.8806 -0.000110122 0)
(57.879 -0.000110723 0)
(57.8776 -0.000111229 0)
(57.8762 -0.000111659 0)
(57.8748 -0.000112027 0)
(57.8735 -0.000112346 0)
(57.8721 -0.000112623 0)
(57.8706 -0.000112868 0)
(57.8691 -0.000113084 0)
(57.8675 -0.000113278 0)
(57.8658 -0.00011345 0)