/*--------------------------------*- C++ -*----------------------------------*\
| =========                 |                                                 |
| \\      /  F ield         | OpenFOAM: The Open Source CFD Toolbox           |
|  \\    /   O peration     | Version:  3.0.x                                 |
|   \\  /    A nd           | Web:      www.OpenFOAM.org                      |
|    \\/     M anipulation  |                                                 |
\*---------------------------------------------------------------------------*/
FoamFile
{
    version     2.0;
    format      ascii;
    class       volScalarField;
    location    "0.45";
    object      p;
}
// * * * * * * * * * * * * * * * * * * * * * * * * * * * * * * * * * * * * * //

dimensions      [1 -1 -2 0 0 0 0];

internalField   nonuniform List<scalar> 
13800
(
1.80184e+07
1.80184e+07
1.80184e+07
1.80184e+07
1.80184e+07
1.80184e+07
1.80184e+07
1.80184e+07
1.80184e+07
1.80184e+07
1.80184e+07
1.80184e+07
1.80184e+07
1.80184e+07
1.80184e+07
1.80184e+07
1.80184e+07
1.80184e+07
1.80184e+07
1.80184e+07
1.80184e+07
1.80184e+07
1.80184e+07
1.80184e+07
1.80184e+07
1.80184e+07
1.80184e+07
1.80184e+07
1.80184e+07
1.80184e+07
1.80184e+07
1.80184e+07
1.80184e+07
1.80184e+07
1.80184e+07
1.80184e+07
1.80184e+07
1.80184e+07
1.80184e+07
1.80184e+07
1.80184e+07
1.80184e+07
1.80184e+07
1.80184e+07
1.80184e+07
1.80184e+07
1.80184e+07
1.80185e+07
1.80185e+07
1.80185e+07
1.80185e+07
1.80185e+07
1.80185e+07
1.80185e+07
1.80185e+07
1.80186e+07
1.80186e+07
1.80186e+07
1.80186e+07
1.80186e+07
1.80187e+07
1.80187e+07
1.80187e+07
1.80188e+07
1.80188e+07
1.80188e+07
1.80189e+07
1.80189e+07
1.8019e+07
1.8019e+07
1.80191e+07
1.80191e+07
1.80192e+07
1.80192e+07
1.80193e+07
1.80194e+07
1.80195e+07
1.80195e+07
1.80196e+07
1.80197e+07
1.80198e+07
1.80199e+07
1.802e+07
1.80202e+07
1.80203e+07
1.80204e+07
1.80206e+07
1.80207e+07
1.80209e+07
1.8021e+07
1.80212e+07
1.80214e+07
1.80216e+07
1.80218e+07
1.8022e+07
1.80222e+07
1.80224e+07
1.80227e+07
1.80229e+07
1.80232e+07
1.80235e+07
1.80238e+07
1.80241e+07
1.80244e+07
1.80248e+07
1.80251e+07
1.80255e+07
1.80259e+07
1.80262e+07
1.80267e+07
1.80271e+07
1.80275e+07
1.8028e+07
1.80285e+07
1.8029e+07
1.80295e+07
1.803e+07
1.80306e+07
1.80311e+07
1.80317e+07
1.80323e+07
1.80329e+07
1.80336e+07
1.80343e+07
1.80349e+07
1.80357e+07
1.80364e+07
1.80371e+07
1.80379e+07
1.80387e+07
1.80395e+07
1.80404e+07
1.80412e+07
1.80421e+07
1.8043e+07
1.8044e+07
1.80449e+07
1.80459e+07
1.80469e+07
1.8048e+07
1.8049e+07
1.80501e+07
1.80512e+07
1.80524e+07
1.80535e+07
1.80547e+07
1.80559e+07
1.80571e+07
1.80584e+07
1.80597e+07
1.8061e+07
1.80624e+07
1.80637e+07
1.80651e+07
1.80666e+07
1.8068e+07
1.80695e+07
1.8071e+07
1.80726e+07
1.80741e+07
1.80757e+07
1.80773e+07
1.8079e+07
1.80807e+07
1.80824e+07
1.80841e+07
1.80859e+07
1.80877e+07
1.80895e+07
1.80914e+07
1.80932e+07
1.80952e+07
1.80971e+07
1.80991e+07
1.81011e+07
1.81031e+07
1.81052e+07
1.81073e+07
1.81094e+07
1.81115e+07
1.81137e+07
1.81159e+07
1.81182e+07
1.81205e+07
1.81228e+07
1.81251e+07
1.81275e+07
1.81299e+07
1.81323e+07
1.81348e+07
1.81373e+07
1.81398e+07
1.81424e+07
1.8145e+07
1.81476e+07
1.81502e+07
1.81529e+07
1.81557e+07
1.81589e+07
1.81628e+07
1.80184e+07
1.80184e+07
1.80184e+07
1.80184e+07
1.80184e+07
1.80184e+07
1.80184e+07
1.80184e+07
1.80184e+07
1.80184e+07
1.80184e+07
1.80184e+07
1.80184e+07
1.80184e+07
1.80184e+07
1.80184e+07
1.80184e+07
1.80184e+07
1.80184e+07
1.80184e+07
1.80184e+07
1.80184e+07
1.80184e+07
1.80184e+07
1.80184e+07
1.80184e+07
1.80184e+07
1.80184e+07
1.80184e+07
1.80184e+07
1.80184e+07
1.80184e+07
1.80184e+07
1.80184e+07
1.80184e+07
1.80184e+07
1.80184e+07
1.80184e+07
1.80184e+07
1.80184e+07
1.80184e+07
1.80184e+07
1.80184e+07
1.80184e+07
1.80184e+07
1.80184e+07
1.80184e+07
1.80185e+07
1.80185e+07
1.80185e+07
1.80185e+07
1.80185e+07
1.80185e+07
1.80185e+07
1.80185e+07
1.80186e+07
1.80186e+07
1.80186e+07
1.80186e+07
1.80186e+07
1.80187e+07
1.80187e+07
1.80187e+07
1.80188e+07
1.80188e+07
1.80188e+07
1.80189e+07
1.80189e+07
1.8019e+07
1.8019e+07
1.80191e+07
1.80191e+07
1.80192e+07
1.80192e+07
1.80193e+07
1.80194e+07
1.80195e+07
1.80195e+07
1.80196e+07
1.80197e+07
1.80198e+07
1.80199e+07
1.802e+07
1.80202e+07
1.80203e+07
1.80204e+07
1.80206e+07
1.80207e+07
1.80209e+07
1.8021e+07
1.80212e+07
1.80214e+07
1.80216e+07
1.80218e+07
1.8022e+07
1.80222e+07
1.80224e+07
1.80227e+07
1.80229e+07
1.80232e+07
1.80235e+07
1.80238e+07
1.80241e+07
1.80244e+07
1.80248e+07
1.80251e+07
1.80255e+07
1.80259e+07
1.80262e+07
1.80267e+07
1.80271e+07
1.80275e+07
1.8028e+07
1.80285e+07
1.8029e+07
1.80295e+07
1.803e+07
1.80306e+07
1.80311e+07
1.80317e+07
1.80323e+07
1.80329e+07
1.80336e+07
1.80343e+07
1.80349e+07
1.80357e+07
1.80364e+07
1.80371e+07
1.80379e+07
1.80387e+07
1.80395e+07
1.80404e+07
1.80412e+07
1.80421e+07
1.8043e+07
1.8044e+07
1.80449e+07
1.80459e+07
1.80469e+07
1.8048e+07
1.8049e+07
1.80501e+07
1.80512e+07
1.80524e+07
1.80535e+07
1.80547e+07
1.80559e+07
1.80571e+07
1.80584e+07
1.80597e+07
1.8061e+07
1.80624e+07
1.80637e+07
1.80651e+07
1.80666e+07
1.8068e+07
1.80695e+07
1.8071e+07
1.80726e+07
1.80741e+07
1.80757e+07
1.80773e+07
1.8079e+07
1.80807e+07
1.80824e+07
1.80841e+07
1.80859e+07
1.80877e+07
1.80895e+07
1.80914e+07
1.80932e+07
1.80952e+07
1.80971e+07
1.80991e+07
1.81011e+07
1.81031e+07
1.81052e+07
1.81073e+07
1.81094e+07
1.81115e+07
1.81137e+07
1.81159e+07
1.81182e+07
1.81205e+07
1.81228e+07
1.81251e+07
1.81275e+07
1.81299e+07
1.81323e+07
1.81348e+07
1.81373e+07
1.81398e+07
1.81424e+07
1.8145e+07
1.81476e+07
1.81502e+07
1.81529e+07
1.81557e+07
1.81589e+07
1.81628e+07
1.80184e+07
1.80184e+07
1.80184e+07
1.80184e+07
1.80184e+07
1.80184e+07
1.80184e+07
1.80184e+07
1.80184e+07
1.80184e+07
1.80184e+07
1.80184e+07
1.80184e+07
1.80184e+07
1.80184e+07
1.80184e+07
1.80184e+07
1.80184e+07
1.80184e+07
1.80184e+07
1.80184e+07
1.80184e+07
1.80184e+07
1.80184e+07
1.80184e+07
1.80184e+07
1.80184e+07
1.80184e+07
1.80184e+07
1.80184e+07
1.80184e+07
1.80184e+07
1.80184e+07
1.80184e+07
1.80184e+07
1.80184e+07
1.80184e+07
1.80184e+07
1.80184e+07
1.80184e+07
1.80184e+07
1.80184e+07
1.80184e+07
1.80184e+07
1.80184e+07
1.80184e+07
1.80184e+07
1.80185e+07
1.80185e+07
1.80185e+07
1.80185e+07
1.80185e+07
1.80185e+07
1.80185e+07
1.80185e+07
1.80186e+07
1.80186e+07
1.80186e+07
1.80186e+07
1.80186e+07
1.80187e+07
1.80187e+07
1.80187e+07
1.80188e+07
1.80188e+07
1.80188e+07
1.80189e+07
1.80189e+07
1.8019e+07
1.8019e+07
1.80191e+07
1.80191e+07
1.80192e+07
1.80192e+07
1.80193e+07
1.80194e+07
1.80195e+07
1.80195e+07
1.80196e+07
1.80197e+07
1.80198e+07
1.80199e+07
1.802e+07
1.80202e+07
1.80203e+07
1.80204e+07
1.80206e+07
1.80207e+07
1.80209e+07
1.8021e+07
1.80212e+07
1.80214e+07
1.80216e+07
1.80218e+07
1.8022e+07
1.80222e+07
1.80224e+07
1.80227e+07
1.80229e+07
1.80232e+07
1.80235e+07
1.80238e+07
1.80241e+07
1.80244e+07
1.80248e+07
1.80251e+07
1.80255e+07
1.80259e+07
1.80262e+07
1.80267e+07
1.80271e+07
1.80275e+07
1.8028e+07
1.80285e+07
1.8029e+07
1.80295e+07
1.803e+07
1.80306e+07
1.80311e+07
1.80317e+07
1.80323e+07
1.80329e+07
1.80336e+07
1.80343e+07
1.80349e+07
1.80357e+07
1.80364e+07
1.80371e+07
1.80379e+07
1.80387e+07
1.80395e+07
1.80404e+07
1.80412e+07
1.80421e+07
1.8043e+07
1.8044e+07
1.80449e+07
1.80459e+07
1.80469e+07
1.8048e+07
1.8049e+07
1.80501e+07
1.80512e+07
1.80524e+07
1.80535e+07
1.80547e+07
1.80559e+07
1.80571e+07
1.80584e+07
1.80597e+07
1.8061e+07
1.80624e+07
1.80637e+07
1.80651e+07
1.80666e+07
1.8068e+07
1.80695e+07
1.8071e+07
1.80726e+07
1.80741e+07
1.80757e+07
1.80773e+07
1.8079e+07
1.80807e+07
1.80824e+07
1.80841e+07
1.80859e+07
1.80877e+07
1.80895e+07
1.80914e+07
1.80932e+07
1.80952e+07
1.80971e+07
1.80991e+07
1.81011e+07
1.81031e+07
1.81052e+07
1.81073e+07
1.81094e+07
1.81115e+07
1.81137e+07
1.81159e+07
1.81182e+07
1.81205e+07
1.81228e+07
1.81251e+07
1.81275e+07
1.81299e+07
1.81323e+07
1.81348e+07
1.81373e+07
1.81398e+07
1.81424e+07
1.8145e+07
1.81476e+07
1.81502e+07
1.81529e+07
1.81557e+07
1.81589e+07
1.81627e+07
1.80184e+07
1.80184e+07
1.80184e+07
1.80184e+07
1.80184e+07
1.80184e+07
1.80184e+07
1.80184e+07
1.80184e+07
1.80184e+07
1.80184e+07
1.80184e+07
1.80184e+07
1.80184e+07
1.80184e+07
1.80184e+07
1.80184e+07
1.80184e+07
1.80184e+07
1.80184e+07
1.80184e+07
1.80184e+07
1.80184e+07
1.80184e+07
1.80184e+07
1.80184e+07
1.80184e+07
1.80184e+07
1.80184e+07
1.80184e+07
1.80184e+07
1.80184e+07
1.80184e+07
1.80184e+07
1.80184e+07
1.80184e+07
1.80184e+07
1.80184e+07
1.80184e+07
1.80184e+07
1.80184e+07
1.80184e+07
1.80184e+07
1.80184e+07
1.80184e+07
1.80184e+07
1.80184e+07
1.80185e+07
1.80185e+07
1.80185e+07
1.80185e+07
1.80185e+07
1.80185e+07
1.80185e+07
1.80185e+07
1.80186e+07
1.80186e+07
1.80186e+07
1.80186e+07
1.80186e+07
1.80187e+07
1.80187e+07
1.80187e+07
1.80188e+07
1.80188e+07
1.80188e+07
1.80189e+07
1.80189e+07
1.8019e+07
1.8019e+07
1.80191e+07
1.80191e+07
1.80192e+07
1.80192e+07
1.80193e+07
1.80194e+07
1.80195e+07
1.80195e+07
1.80196e+07
1.80197e+07
1.80198e+07
1.80199e+07
1.802e+07
1.80202e+07
1.80203e+07
1.80204e+07
1.80206e+07
1.80207e+07
1.80209e+07
1.8021e+07
1.80212e+07
1.80214e+07
1.80216e+07
1.80218e+07
1.8022e+07
1.80222e+07
1.80224e+07
1.80227e+07
1.80229e+07
1.80232e+07
1.80235e+07
1.80238e+07
1.80241e+07
1.80244e+07
1.80248e+07
1.80251e+07
1.80255e+07
1.80259e+07
1.80262e+07
1.80267e+07
1.80271e+07
1.80275e+07
1.8028e+07
1.80285e+07
1.8029e+07
1.80295e+07
1.803e+07
1.80306e+07
1.80311e+07
1.80317e+07
1.80323e+07
1.80329e+07
1.80336e+07
1.80343e+07
1.80349e+07
1.80357e+07
1.80364e+07
1.80371e+07
1.80379e+07
1.80387e+07
1.80395e+07
1.80404e+07
1.80412e+07
1.80421e+07
1.8043e+07
1.8044e+07
1.80449e+07
1.80459e+07
1.80469e+07
1.8048e+07
1.8049e+07
1.80501e+07
1.80512e+07
1.80524e+07
1.80535e+07
1.80547e+07
1.80559e+07
1.80571e+07
1.80584e+07
1.80597e+07
1.8061e+07
1.80624e+07
1.80637e+07
1.80651e+07
1.80666e+07
1.8068e+07
1.80695e+07
1.8071e+07
1.80726e+07
1.80741e+07
1.80757e+07
1.80773e+07
1.8079e+07
1.80807e+07
1.80824e+07
1.80841e+07
1.80859e+07
1.80877e+07
1.80895e+07
1.80914e+07
1.80932e+07
1.80952e+07
1.80971e+07
1.80991e+07
1.81011e+07
1.81031e+07
1.81052e+07
1.81073e+07
1.81094e+07
1.81115e+07
1.81137e+07
1.81159e+07
1.81182e+07
1.81205e+07
1.81228e+07
1.81251e+07
1.81275e+07
1.81299e+07
1.81323e+07
1.81348e+07
1.81373e+07
1.81398e+07
1.81424e+07
1.8145e+07
1.81476e+07
1.81502e+07
1.81529e+07
1.81557e+07
1.81588e+07
1.81625e+07
1.80184e+07
1.80184e+07
1.80184e+07
1.80184e+07
1.80184e+07
1.80184e+07
1.80184e+07
1.80184e+07
1.80184e+07
1.80184e+07
1.80184e+07
1.80184e+07
1.80184e+07
1.80184e+07
1.80184e+07
1.80184e+07
1.80184e+07
1.80184e+07
1.80184e+07
1.80184e+07
1.80184e+07
1.80184e+07
1.80184e+07
1.80184e+07
1.80184e+07
1.80184e+07
1.80184e+07
1.80184e+07
1.80184e+07
1.80184e+07
1.80184e+07
1.80184e+07
1.80184e+07
1.80184e+07
1.80184e+07
1.80184e+07
1.80184e+07
1.80184e+07
1.80184e+07
1.80184e+07
1.80184e+07
1.80184e+07
1.80184e+07
1.80184e+07
1.80184e+07
1.80184e+07
1.80184e+07
1.80185e+07
1.80185e+07
1.80185e+07
1.80185e+07
1.80185e+07
1.80185e+07
1.80185e+07
1.80185e+07
1.80186e+07
1.80186e+07
1.80186e+07
1.80186e+07
1.80186e+07
1.80187e+07
1.80187e+07
1.80187e+07
1.80188e+07
1.80188e+07
1.80188e+07
1.80189e+07
1.80189e+07
1.8019e+07
1.8019e+07
1.80191e+07
1.80191e+07
1.80192e+07
1.80192e+07
1.80193e+07
1.80194e+07
1.80195e+07
1.80195e+07
1.80196e+07
1.80197e+07
1.80198e+07
1.80199e+07
1.802e+07
1.80202e+07
1.80203e+07
1.80204e+07
1.80206e+07
1.80207e+07
1.80209e+07
1.8021e+07
1.80212e+07
1.80214e+07
1.80216e+07
1.80218e+07
1.8022e+07
1.80222e+07
1.80224e+07
1.80227e+07
1.80229e+07
1.80232e+07
1.80235e+07
1.80238e+07
1.80241e+07
1.80244e+07
1.80248e+07
1.80251e+07
1.80255e+07
1.80259e+07
1.80262e+07
1.80267e+07
1.80271e+07
1.80275e+07
1.8028e+07
1.80285e+07
1.8029e+07
1.80295e+07
1.803e+07
1.80306e+07
1.80311e+07
1.80317e+07
1.80323e+07
1.80329e+07
1.80336e+07
1.80343e+07
1.80349e+07
1.80357e+07
1.80364e+07
1.80371e+07
1.80379e+07
1.80387e+07
1.80395e+07
1.80404e+07
1.80412e+07
1.80421e+07
1.8043e+07
1.8044e+07
1.80449e+07
1.80459e+07
1.80469e+07
1.8048e+07
1.8049e+07
1.80501e+07
1.80512e+07
1.80524e+07
1.80535e+07
1.80547e+07
1.80559e+07
1.80571e+07
1.80584e+07
1.80597e+07
1.8061e+07
1.80624e+07
1.80637e+07
1.80651e+07
1.80666e+07
1.8068e+07
1.80695e+07
1.8071e+07
1.80726e+07
1.80741e+07
1.80757e+07
1.80773e+07
1.8079e+07
1.80807e+07
1.80824e+07
1.80841e+07
1.80859e+07
1.80877e+07
1.80895e+07
1.80914e+07
1.80932e+07
1.80952e+07
1.80971e+07
1.80991e+07
1.81011e+07
1.81031e+07
1.81052e+07
1.81073e+07
1.81094e+07
1.81115e+07
1.81137e+07
1.81159e+07
1.81182e+07
1.81205e+07
1.81228e+07
1.81251e+07
1.81275e+07
1.81299e+07
1.81323e+07
1.81348e+07
1.81373e+07
1.81398e+07
1.81424e+07
1.8145e+07
1.81476e+07
1.81502e+07
1.81529e+07
1.81557e+07
1.81586e+07
1.81617e+07
1.80184e+07
1.80184e+07
1.80184e+07
1.80184e+07
1.80184e+07
1.80184e+07
1.80184e+07
1.80184e+07
1.80184e+07
1.80184e+07
1.80184e+07
1.80184e+07
1.80184e+07
1.80184e+07
1.80184e+07
1.80184e+07
1.80184e+07
1.80184e+07
1.80184e+07
1.80184e+07
1.80184e+07
1.80184e+07
1.80184e+07
1.80184e+07
1.80184e+07
1.80184e+07
1.80184e+07
1.80184e+07
1.80184e+07
1.80184e+07
1.80184e+07
1.80184e+07
1.80184e+07
1.80184e+07
1.80184e+07
1.80184e+07
1.80184e+07
1.80184e+07
1.80184e+07
1.80184e+07
1.80184e+07
1.80184e+07
1.80184e+07
1.80184e+07
1.80184e+07
1.80184e+07
1.80184e+07
1.80185e+07
1.80185e+07
1.80185e+07
1.80185e+07
1.80185e+07
1.80185e+07
1.80185e+07
1.80185e+07
1.80186e+07
1.80186e+07
1.80186e+07
1.80186e+07
1.80186e+07
1.80187e+07
1.80187e+07
1.80187e+07
1.80188e+07
1.80188e+07
1.80188e+07
1.80189e+07
1.80189e+07
1.8019e+07
1.8019e+07
1.80191e+07
1.80191e+07
1.80192e+07
1.80192e+07
1.80193e+07
1.80194e+07
1.80195e+07
1.80195e+07
1.80196e+07
1.80197e+07
1.80198e+07
1.80199e+07
1.802e+07
1.80202e+07
1.80203e+07
1.80204e+07
1.80206e+07
1.80207e+07
1.80209e+07
1.8021e+07
1.80212e+07
1.80214e+07
1.80216e+07
1.80218e+07
1.8022e+07
1.80222e+07
1.80224e+07
1.80227e+07
1.80229e+07
1.80232e+07
1.80235e+07
1.80238e+07
1.80241e+07
1.80244e+07
1.80248e+07
1.80251e+07
1.80255e+07
1.80259e+07
1.80262e+07
1.80267e+07
1.80271e+07
1.80275e+07
1.8028e+07
1.80285e+07
1.8029e+07
1.80295e+07
1.803e+07
1.80306e+07
1.80311e+07
1.80317e+07
1.80323e+07
1.80329e+07
1.80336e+07
1.80343e+07
1.80349e+07
1.80357e+07
1.80364e+07
1.80371e+07
1.80379e+07
1.80387e+07
1.80395e+07
1.80404e+07
1.80412e+07
1.80421e+07
1.8043e+07
1.8044e+07
1.80449e+07
1.80459e+07
1.80469e+07
1.8048e+07
1.8049e+07
1.80501e+07
1.80512e+07
1.80524e+07
1.80535e+07
1.80547e+07
1.80559e+07
1.80571e+07
1.80584e+07
1.80597e+07
1.8061e+07
1.80624e+07
1.80637e+07
1.80651e+07
1.80666e+07
1.8068e+07
1.80695e+07
1.8071e+07
1.80726e+07
1.80741e+07
1.80757e+07
1.80773e+07
1.8079e+07
1.80807e+07
1.80824e+07
1.80841e+07
1.80859e+07
1.80877e+07
1.80895e+07
1.80914e+07
1.80932e+07
1.80952e+07
1.80971e+07
1.80991e+07
1.81011e+07
1.81031e+07
1.81052e+07
1.81073e+07
1.81094e+07
1.81115e+07
1.81137e+07
1.81159e+07
1.81182e+07
1.81205e+07
1.81228e+07
1.81251e+07
1.81275e+07
1.81299e+07
1.81323e+07
1.81348e+07
1.81373e+07
1.81398e+07
1.81424e+07
1.8145e+07
1.81476e+07
1.81502e+07
1.81529e+07
1.81556e+07
1.81582e+07
1.81606e+07
1.80184e+07
1.80184e+07
1.80184e+07
1.80184e+07
1.80184e+07
1.80184e+07
1.80184e+07
1.80184e+07
1.80184e+07
1.80184e+07
1.80184e+07
1.80184e+07
1.80184e+07
1.80184e+07
1.80184e+07
1.80184e+07
1.80184e+07
1.80184e+07
1.80184e+07
1.80184e+07
1.80184e+07
1.80184e+07
1.80184e+07
1.80184e+07
1.80184e+07
1.80184e+07
1.80184e+07
1.80184e+07
1.80184e+07
1.80184e+07
1.80184e+07
1.80184e+07
1.80184e+07
1.80184e+07
1.80184e+07
1.80184e+07
1.80184e+07
1.80184e+07
1.80184e+07
1.80184e+07
1.80184e+07
1.80184e+07
1.80184e+07
1.80184e+07
1.80184e+07
1.80184e+07
1.80184e+07
1.80185e+07
1.80185e+07
1.80185e+07
1.80185e+07
1.80185e+07
1.80185e+07
1.80185e+07
1.80185e+07
1.80186e+07
1.80186e+07
1.80186e+07
1.80186e+07
1.80186e+07
1.80187e+07
1.80187e+07
1.80187e+07
1.80188e+07
1.80188e+07
1.80188e+07
1.80189e+07
1.80189e+07
1.8019e+07
1.8019e+07
1.80191e+07
1.80191e+07
1.80192e+07
1.80192e+07
1.80193e+07
1.80194e+07
1.80195e+07
1.80195e+07
1.80196e+07
1.80197e+07
1.80198e+07
1.80199e+07
1.802e+07
1.80202e+07
1.80203e+07
1.80204e+07
1.80206e+07
1.80207e+07
1.80209e+07
1.8021e+07
1.80212e+07
1.80214e+07
1.80216e+07
1.80218e+07
1.8022e+07
1.80222e+07
1.80224e+07
1.80227e+07
1.80229e+07
1.80232e+07
1.80235e+07
1.80238e+07
1.80241e+07
1.80244e+07
1.80248e+07
1.80251e+07
1.80255e+07
1.80259e+07
1.80262e+07
1.80267e+07
1.80271e+07
1.80275e+07
1.8028e+07
1.80285e+07
1.8029e+07
1.80295e+07
1.803e+07
1.80306e+07
1.80311e+07
1.80317e+07
1.80323e+07
1.80329e+07
1.80336e+07
1.80343e+07
1.80349e+07
1.80357e+07
1.80364e+07
1.80371e+07
1.80379e+07
1.80387e+07
1.80395e+07
1.80404e+07
1.80412e+07
1.80421e+07
1.8043e+07
1.8044e+07
1.80449e+07
1.80459e+07
1.80469e+07
1.8048e+07
1.8049e+07
1.80501e+07
1.80512e+07
1.80524e+07
1.80535e+07
1.80547e+07
1.80559e+07
1.80571e+07
1.80584e+07
1.80597e+07
1.8061e+07
1.80624e+07
1.80637e+07
1.80651e+07
1.80666e+07
1.8068e+07
1.80695e+07
1.8071e+07
1.80726e+07
1.80741e+07
1.80757e+07
1.80773e+07
1.8079e+07
1.80807e+07
1.80824e+07
1.80841e+07
1.80859e+07
1.80877e+07
1.80895e+07
1.80914e+07
1.80932e+07
1.80952e+07
1.80971e+07
1.80991e+07
1.81011e+07
1.81031e+07
1.81052e+07
1.81073e+07
1.81094e+07
1.81115e+07
1.81137e+07
1.81159e+07
1.81182e+07
1.81205e+07
1.81228e+07
1.81251e+07
1.81275e+07
1.81299e+07
1.81323e+07
1.81348e+07
1.81373e+07
1.81398e+07
1.81424e+07
1.8145e+07
1.81476e+07
1.81502e+07
1.81529e+07
1.81555e+07
1.81579e+07
1.81596e+07
1.80184e+07
1.80184e+07
1.80184e+07
1.80184e+07
1.80184e+07
1.80184e+07
1.80184e+07
1.80184e+07
1.80184e+07
1.80184e+07
1.80184e+07
1.80184e+07
1.80184e+07
1.80184e+07
1.80184e+07
1.80184e+07
1.80184e+07
1.80184e+07
1.80184e+07
1.80184e+07
1.80184e+07
1.80184e+07
1.80184e+07
1.80184e+07
1.80184e+07
1.80184e+07
1.80184e+07
1.80184e+07
1.80184e+07
1.80184e+07
1.80184e+07
1.80184e+07
1.80184e+07
1.80184e+07
1.80184e+07
1.80184e+07
1.80184e+07
1.80184e+07
1.80184e+07
1.80184e+07
1.80184e+07
1.80184e+07
1.80184e+07
1.80184e+07
1.80184e+07
1.80184e+07
1.80184e+07
1.80185e+07
1.80185e+07
1.80185e+07
1.80185e+07
1.80185e+07
1.80185e+07
1.80185e+07
1.80185e+07
1.80186e+07
1.80186e+07
1.80186e+07
1.80186e+07
1.80186e+07
1.80187e+07
1.80187e+07
1.80187e+07
1.80188e+07
1.80188e+07
1.80188e+07
1.80189e+07
1.80189e+07
1.8019e+07
1.8019e+07
1.80191e+07
1.80191e+07
1.80192e+07
1.80192e+07
1.80193e+07
1.80194e+07
1.80195e+07
1.80195e+07
1.80196e+07
1.80197e+07
1.80198e+07
1.80199e+07
1.802e+07
1.80202e+07
1.80203e+07
1.80204e+07
1.80206e+07
1.80207e+07
1.80209e+07
1.8021e+07
1.80212e+07
1.80214e+07
1.80216e+07
1.80218e+07
1.8022e+07
1.80222e+07
1.80224e+07
1.80227e+07
1.80229e+07
1.80232e+07
1.80235e+07
1.80238e+07
1.80241e+07
1.80244e+07
1.80248e+07
1.80251e+07
1.80255e+07
1.80259e+07
1.80262e+07
1.80267e+07
1.80271e+07
1.80275e+07
1.8028e+07
1.80285e+07
1.8029e+07
1.80295e+07
1.803e+07
1.80306e+07
1.80311e+07
1.80317e+07
1.80323e+07
1.80329e+07
1.80336e+07
1.80343e+07
1.80349e+07
1.80357e+07
1.80364e+07
1.80371e+07
1.80379e+07
1.80387e+07
1.80395e+07
1.80404e+07
1.80412e+07
1.80421e+07
1.8043e+07
1.8044e+07
1.80449e+07
1.80459e+07
1.80469e+07
1.8048e+07
1.8049e+07
1.80501e+07
1.80512e+07
1.80524e+07
1.80535e+07
1.80547e+07
1.80559e+07
1.80571e+07
1.80584e+07
1.80597e+07
1.8061e+07
1.80624e+07
1.80637e+07
1.80651e+07
1.80666e+07
1.8068e+07
1.80695e+07
1.8071e+07
1.80726e+07
1.80741e+07
1.80757e+07
1.80773e+07
1.8079e+07
1.80807e+07
1.80824e+07
1.80841e+07
1.80859e+07
1.80877e+07
1.80895e+07
1.80914e+07
1.80932e+07
1.80952e+07
1.80971e+07
1.80991e+07
1.81011e+07
1.81031e+07
1.81052e+07
1.81073e+07
1.81094e+07
1.81115e+07
1.81137e+07
1.81159e+07
1.81182e+07
1.81205e+07
1.81228e+07
1.81251e+07
1.81275e+07
1.81299e+07
1.81323e+07
1.81348e+07
1.81373e+07
1.81398e+07
1.81424e+07
1.8145e+07
1.81476e+07
1.81502e+07
1.81529e+07
1.81555e+07
1.81578e+07
1.81594e+07
1.80184e+07
1.80184e+07
1.80184e+07
1.80184e+07
1.80184e+07
1.80184e+07
1.80184e+07
1.80184e+07
1.80184e+07
1.80184e+07
1.80184e+07
1.80184e+07
1.80184e+07
1.80184e+07
1.80184e+07
1.80184e+07
1.80184e+07
1.80184e+07
1.80184e+07
1.80184e+07
1.80184e+07
1.80184e+07
1.80184e+07
1.80184e+07
1.80184e+07
1.80184e+07
1.80184e+07
1.80184e+07
1.80184e+07
1.80184e+07
1.80184e+07
1.80184e+07
1.80184e+07
1.80184e+07
1.80184e+07
1.80184e+07
1.80184e+07
1.80184e+07
1.80184e+07
1.80184e+07
1.80184e+07
1.80184e+07
1.80184e+07
1.80184e+07
1.80184e+07
1.80184e+07
1.80184e+07
1.80185e+07
1.80185e+07
1.80185e+07
1.80185e+07
1.80185e+07
1.80185e+07
1.80185e+07
1.80185e+07
1.80186e+07
1.80186e+07
1.80186e+07
1.80186e+07
1.80186e+07
1.80187e+07
1.80187e+07
1.80187e+07
1.80188e+07
1.80188e+07
1.80188e+07
1.80189e+07
1.80189e+07
1.8019e+07
1.8019e+07
1.80191e+07
1.80191e+07
1.80192e+07
1.80192e+07
1.80193e+07
1.80194e+07
1.80195e+07
1.80195e+07
1.80196e+07
1.80197e+07
1.80198e+07
1.80199e+07
1.802e+07
1.80202e+07
1.80203e+07
1.80204e+07
1.80206e+07
1.80207e+07
1.80209e+07
1.8021e+07
1.80212e+07
1.80214e+07
1.80216e+07
1.80218e+07
1.8022e+07
1.80222e+07
1.80224e+07
1.80227e+07
1.80229e+07
1.80232e+07
1.80235e+07
1.80238e+07
1.80241e+07
1.80244e+07
1.80248e+07
1.80251e+07
1.80255e+07
1.80259e+07
1.80262e+07
1.80267e+07
1.80271e+07
1.80275e+07
1.8028e+07
1.80285e+07
1.8029e+07
1.80295e+07
1.803e+07
1.80306e+07
1.80311e+07
1.80317e+07
1.80323e+07
1.80329e+07
1.80336e+07
1.80343e+07
1.80349e+07
1.80357e+07
1.80364e+07
1.80371e+07
1.80379e+07
1.80387e+07
1.80395e+07
1.80404e+07
1.80412e+07
1.80421e+07
1.8043e+07
1.8044e+07
1.80449e+07
1.80459e+07
1.80469e+07
1.8048e+07
1.8049e+07
1.80501e+07
1.80512e+07
1.80524e+07
1.80535e+07
1.80547e+07
1.80559e+07
1.80571e+07
1.80584e+07
1.80597e+07
1.8061e+07
1.80624e+07
1.80637e+07
1.80651e+07
1.80666e+07
1.8068e+07
1.80695e+07
1.8071e+07
1.80726e+07
1.80741e+07
1.80757e+07
1.80773e+07
1.8079e+07
1.80807e+07
1.80824e+07
1.80841e+07
1.80859e+07
1.80877e+07
1.80895e+07
1.80914e+07
1.80932e+07
1.80952e+07
1.80971e+07
1.80991e+07
1.81011e+07
1.81031e+07
1.81052e+07
1.81073e+07
1.81094e+07
1.81115e+07
1.81137e+07
1.81159e+07
1.81182e+07
1.81205e+07
1.81228e+07
1.81251e+07
1.81275e+07
1.81299e+07
1.81323e+07
1.81348e+07
1.81373e+07
1.81398e+07
1.81424e+07
1.8145e+07
1.81476e+07
1.81502e+07
1.81529e+07
1.81555e+07
1.81578e+07
1.81594e+07
1.80184e+07
1.80184e+07
1.80184e+07
1.80184e+07
1.80184e+07
1.80184e+07
1.80184e+07
1.80184e+07
1.80184e+07
1.80184e+07
1.80184e+07
1.80184e+07
1.80184e+07
1.80184e+07
1.80184e+07
1.80184e+07
1.80184e+07
1.80184e+07
1.80184e+07
1.80184e+07
1.80184e+07
1.80184e+07
1.80184e+07
1.80184e+07
1.80184e+07
1.80184e+07
1.80184e+07
1.80184e+07
1.80184e+07
1.80184e+07
1.80184e+07
1.80184e+07
1.80184e+07
1.80184e+07
1.80184e+07
1.80184e+07
1.80184e+07
1.80184e+07
1.80184e+07
1.80184e+07
1.80184e+07
1.80184e+07
1.80184e+07
1.80184e+07
1.80184e+07
1.80184e+07
1.80184e+07
1.80185e+07
1.80185e+07
1.80185e+07
1.80185e+07
1.80185e+07
1.80185e+07
1.80185e+07
1.80185e+07
1.80186e+07
1.80186e+07
1.80186e+07
1.80186e+07
1.80186e+07
1.80187e+07
1.80187e+07
1.80187e+07
1.80188e+07
1.80188e+07
1.80188e+07
1.80189e+07
1.80189e+07
1.8019e+07
1.8019e+07
1.80191e+07
1.80191e+07
1.80192e+07
1.80192e+07
1.80193e+07
1.80194e+07
1.80195e+07
1.80195e+07
1.80196e+07
1.80197e+07
1.80198e+07
1.80199e+07
1.802e+07
1.80202e+07
1.80203e+07
1.80204e+07
1.80206e+07
1.80207e+07
1.80209e+07
1.8021e+07
1.80212e+07
1.80214e+07
1.80216e+07
1.80218e+07
1.8022e+07
1.80222e+07
1.80224e+07
1.80227e+07
1.80229e+07
1.80232e+07
1.80235e+07
1.80238e+07
1.80241e+07
1.80244e+07
1.80248e+07
1.80251e+07
1.80255e+07
1.80259e+07
1.80262e+07
1.80267e+07
1.80271e+07
1.80275e+07
1.8028e+07
1.80285e+07
1.8029e+07
1.80295e+07
1.803e+07
1.80306e+07
1.80311e+07
1.80317e+07
1.80323e+07
1.80329e+07
1.80336e+07
1.80343e+07
1.80349e+07
1.80357e+07
1.80364e+07
1.80371e+07
1.80379e+07
1.80387e+07
1.80395e+07
1.80404e+07
1.80412e+07
1.80421e+07
1.8043e+07
1.8044e+07
1.80449e+07
1.80459e+07
1.80469e+07
1.8048e+07
1.8049e+07
1.80501e+07
1.80512e+07
1.80524e+07
1.80535e+07
1.80547e+07
1.80559e+07
1.80571e+07
1.80584e+07
1.80597e+07
1.8061e+07
1.80624e+07
1.80637e+07
1.80651e+07
1.80666e+07
1.8068e+07
1.80695e+07
1.8071e+07
1.80726e+07
1.80741e+07
1.80757e+07
1.80773e+07
1.8079e+07
1.80807e+07
1.80824e+07
1.80841e+07
1.80859e+07
1.80877e+07
1.80895e+07
1.80914e+07
1.80932e+07
1.80952e+07
1.80971e+07
1.80991e+07
1.81011e+07
1.81031e+07
1.81052e+07
1.81073e+07
1.81094e+07
1.81115e+07
1.81137e+07
1.81159e+07
1.81182e+07
1.81205e+07
1.81228e+07
1.81251e+07
1.81275e+07
1.81299e+07
1.81323e+07
1.81348e+07
1.81373e+07
1.81398e+07
1.81424e+07
1.8145e+07
1.81476e+07
1.81502e+07
1.81529e+07
1.81555e+07
1.81578e+07
1.81594e+07
1.81729e+07
1.81773e+07
1.81792e+07
1.818e+07
1.81805e+07
1.81811e+07
1.81816e+07
1.8182e+07
1.81824e+07
1.81828e+07
1.81832e+07
1.81835e+07
1.81838e+07
1.81841e+07
1.81843e+07
1.81844e+07
1.81844e+07
1.81841e+07
1.81835e+07
1.81822e+07
1.81723e+07
1.81762e+07
1.8178e+07
1.81788e+07
1.81794e+07
1.81799e+07
1.81804e+07
1.81809e+07
1.81813e+07
1.81817e+07
1.81821e+07
1.81824e+07
1.81827e+07
1.8183e+07
1.81832e+07
1.81833e+07
1.81833e+07
1.8183e+07
1.81824e+07
1.81811e+07
1.81718e+07
1.81757e+07
1.81778e+07
1.81787e+07
1.81793e+07
1.81798e+07
1.81803e+07
1.81808e+07
1.81812e+07
1.81816e+07
1.81819e+07
1.81823e+07
1.81826e+07
1.81828e+07
1.8183e+07
1.81831e+07
1.8183e+07
1.81827e+07
1.8182e+07
1.81806e+07
1.81697e+07
1.8172e+07
1.8173e+07
1.81735e+07
1.8174e+07
1.81745e+07
1.81749e+07
1.81753e+07
1.81757e+07
1.81762e+07
1.81766e+07
1.81769e+07
1.81773e+07
1.81776e+07
1.81778e+07
1.81779e+07
1.8178e+07
1.81777e+07
1.81772e+07
1.81763e+07
1.81665e+07
1.81684e+07
1.81699e+07
1.81712e+07
1.81723e+07
1.81731e+07
1.81738e+07
1.81743e+07
1.81748e+07
1.81752e+07
1.81755e+07
1.81758e+07
1.81759e+07
1.8176e+07
1.8176e+07
1.81759e+07
1.81757e+07
1.81754e+07
1.81751e+07
1.81746e+07
1.81604e+07
1.81599e+07
1.81592e+07
1.81586e+07
1.81581e+07
1.81578e+07
1.81578e+07
1.81579e+07
1.81581e+07
1.81584e+07
1.81588e+07
1.81593e+07
1.816e+07
1.81606e+07
1.81612e+07
1.81618e+07
1.81625e+07
1.81633e+07
1.81641e+07
1.8165e+07
1.8154e+07
1.81528e+07
1.81529e+07
1.81536e+07
1.81543e+07
1.81548e+07
1.81553e+07
1.81558e+07
1.81562e+07
1.81566e+07
1.8157e+07
1.81573e+07
1.81575e+07
1.81578e+07
1.81582e+07
1.81586e+07
1.81592e+07
1.81601e+07
1.81613e+07
1.81629e+07
1.81456e+07
1.81408e+07
1.8137e+07
1.81345e+07
1.8133e+07
1.8132e+07
1.81315e+07
1.81313e+07
1.81314e+07
1.81318e+07
1.81323e+07
1.81332e+07
1.81342e+07
1.81355e+07
1.81372e+07
1.81391e+07
1.81413e+07
1.81441e+07
1.81474e+07
1.81512e+07
1.81431e+07
1.81381e+07
1.81348e+07
1.81328e+07
1.81317e+07
1.8131e+07
1.81306e+07
1.81305e+07
1.81306e+07
1.8131e+07
1.81316e+07
1.81324e+07
1.81333e+07
1.81346e+07
1.81361e+07
1.81379e+07
1.814e+07
1.81426e+07
1.81459e+07
1.81498e+07
1.81408e+07
1.81332e+07
1.81287e+07
1.81262e+07
1.81247e+07
1.81237e+07
1.81232e+07
1.8123e+07
1.81231e+07
1.81235e+07
1.81242e+07
1.8125e+07
1.81262e+07
1.81276e+07
1.81293e+07
1.81314e+07
1.81338e+07
1.81368e+07
1.81405e+07
1.81451e+07
1.8176e+07
1.81743e+07
1.81755e+07
1.81775e+07
1.81798e+07
1.81822e+07
1.81846e+07
1.8187e+07
1.81895e+07
1.8192e+07
1.81945e+07
1.8197e+07
1.81995e+07
1.82021e+07
1.82047e+07
1.82073e+07
1.82099e+07
1.82125e+07
1.82152e+07
1.82179e+07
1.82206e+07
1.82233e+07
1.82261e+07
1.82288e+07
1.82316e+07
1.82344e+07
1.82372e+07
1.82401e+07
1.82429e+07
1.82458e+07
1.82487e+07
1.82516e+07
1.82546e+07
1.82575e+07
1.82605e+07
1.82635e+07
1.82665e+07
1.82695e+07
1.82726e+07
1.82757e+07
1.82788e+07
1.82819e+07
1.8285e+07
1.82882e+07
1.82913e+07
1.82945e+07
1.82977e+07
1.8301e+07
1.83042e+07
1.83075e+07
1.83108e+07
1.83141e+07
1.83174e+07
1.83207e+07
1.83241e+07
1.83275e+07
1.83309e+07
1.83343e+07
1.83377e+07
1.83412e+07
1.83446e+07
1.83481e+07
1.83516e+07
1.83551e+07
1.83587e+07
1.83622e+07
1.83658e+07
1.83694e+07
1.8373e+07
1.83766e+07
1.83803e+07
1.8384e+07
1.83876e+07
1.83913e+07
1.83951e+07
1.83988e+07
1.84025e+07
1.84063e+07
1.84101e+07
1.84139e+07
1.84177e+07
1.84215e+07
1.84254e+07
1.84293e+07
1.84331e+07
1.8437e+07
1.84409e+07
1.84449e+07
1.84488e+07
1.84527e+07
1.84567e+07
1.84607e+07
1.84647e+07
1.84687e+07
1.84727e+07
1.84767e+07
1.84807e+07
1.84847e+07
1.84888e+07
1.84929e+07
1.84969e+07
1.8501e+07
1.85051e+07
1.85092e+07
1.85134e+07
1.85175e+07
1.85216e+07
1.85258e+07
1.853e+07
1.85341e+07
1.85383e+07
1.85425e+07
1.85467e+07
1.8551e+07
1.85552e+07
1.85594e+07
1.85637e+07
1.85679e+07
1.85722e+07
1.85765e+07
1.85807e+07
1.8585e+07
1.85893e+07
1.85936e+07
1.8598e+07
1.86023e+07
1.86066e+07
1.86109e+07
1.86153e+07
1.86196e+07
1.8624e+07
1.86284e+07
1.86327e+07
1.86371e+07
1.86415e+07
1.86459e+07
1.86503e+07
1.86547e+07
1.86591e+07
1.86635e+07
1.86679e+07
1.86723e+07
1.86767e+07
1.86811e+07
1.86856e+07
1.869e+07
1.86944e+07
1.86989e+07
1.87033e+07
1.87077e+07
1.87122e+07
1.87166e+07
1.87211e+07
1.87255e+07
1.873e+07
1.87344e+07
1.87389e+07
1.87433e+07
1.87478e+07
1.87522e+07
1.87567e+07
1.87611e+07
1.87656e+07
1.877e+07
1.87745e+07
1.87789e+07
1.87834e+07
1.87878e+07
1.87922e+07
1.87967e+07
1.88011e+07
1.88056e+07
1.881e+07
1.88144e+07
1.88189e+07
1.88233e+07
1.88277e+07
1.88321e+07
1.88365e+07
1.88409e+07
1.88453e+07
1.88497e+07
1.88541e+07
1.88585e+07
1.88629e+07
1.88673e+07
1.88716e+07
1.8876e+07
1.88804e+07
1.88847e+07
1.88891e+07
1.88934e+07
1.88977e+07
1.89021e+07
1.89064e+07
1.89107e+07
1.8915e+07
1.89193e+07
1.89234e+07
1.89276e+07
1.81757e+07
1.81742e+07
1.81754e+07
1.81775e+07
1.81798e+07
1.81822e+07
1.81846e+07
1.8187e+07
1.81895e+07
1.8192e+07
1.81945e+07
1.8197e+07
1.81995e+07
1.82021e+07
1.82047e+07
1.82073e+07
1.82099e+07
1.82125e+07
1.82152e+07
1.82179e+07
1.82206e+07
1.82233e+07
1.82261e+07
1.82288e+07
1.82316e+07
1.82344e+07
1.82372e+07
1.82401e+07
1.82429e+07
1.82458e+07
1.82487e+07
1.82516e+07
1.82546e+07
1.82575e+07
1.82605e+07
1.82635e+07
1.82665e+07
1.82695e+07
1.82726e+07
1.82757e+07
1.82788e+07
1.82819e+07
1.8285e+07
1.82882e+07
1.82913e+07
1.82945e+07
1.82977e+07
1.8301e+07
1.83042e+07