/*--------------------------------*- C++ -*----------------------------------*\
| =========                 |                                                 |
| \\      /  F ield         | OpenFOAM: The Open Source CFD Toolbox           |
|  \\    /   O peration     | Version:  3.0.x                                 |
|   \\  /    A nd           | Web:      www.OpenFOAM.org                      |
|    \\/     M anipulation  |                                                 |
\*---------------------------------------------------------------------------*/
FoamFile
{
    version     2.0;
    format      ascii;
    class       volScalarField;
    location    "0.45";
    object      rho;
}
// * * * * * * * * * * * * * * * * * * * * * * * * * * * * * * * * * * * * * //

dimensions      [1 -3 0 0 0 0 0];

internalField   nonuniform List<scalar> 
13800
(
50.5097
50.5097
50.5097
50.5097
50.5097
50.5097
50.5097
50.5097
50.5097
50.5097
50.5097
50.5097
50.5097
50.5097
50.5097
50.5097
50.5097
50.5097
50.5097
50.5097
50.5097
50.5097
50.5097
50.5097
50.5097
50.5097
50.5097
50.5097
50.5097
50.5097
50.5097
50.5097
50.5097
50.5097
50.5097
50.5097
50.5097
50.5098
50.5098
50.5099
50.5099
50.5099
50.5099
50.5099
50.51
50.51
50.51
50.51
50.51
50.5101
50.5101
50.5102
50.5102
50.5103
50.5104
50.5105
50.5105
50.5106
50.5106
50.5107
50.5107
50.5108
50.5109
50.511
50.5111
50.5112
50.5113
50.5114
50.5116
50.5117
50.5118
50.512
50.5121
50.5123
50.5124
50.5126
50.5128
50.513
50.5132
50.5134
50.5136
50.5139
50.5142
50.5144
50.5147
50.515
50.5154
50.5157
50.5161
50.5165
50.5169
50.5173
50.5177
50.5182
50.5187
50.5192
50.5198
50.5203
50.521
50.5216
50.5222
50.5229
50.5236
50.5244
50.5252
50.526
50.5268
50.5277
50.5287
50.5296
50.5306
50.5316
50.5327
50.5338
50.535
50.5362
50.5374
50.5387
50.54
50.5414
50.5428
50.5443
50.5458
50.5474
50.549
50.5506
50.5523
50.5541
50.5559
50.5578
50.5597
50.5616
50.5637
50.5657
50.5679
50.57
50.5723
50.5746
50.5769
50.5794
50.5818
50.5844
50.5869
50.5896
50.5923
50.5951
50.5979
50.6008
50.6037
50.6068
50.6098
50.613
50.6162
50.6194
50.6228
50.6262
50.6296
50.6332
50.6367
50.6404
50.6441
50.6479
50.6518
50.6557
50.6597
50.6637
50.6678
50.672
50.6763
50.6806
50.685
50.6895
50.694
50.6986
50.7033
50.708
50.7129
50.7177
50.7227
50.7277
50.7328
50.738
50.7432
50.7486
50.7539
50.7594
50.7649
50.7705
50.7762
50.7819
50.7878
50.7936
50.7997
50.8056
50.8119
50.8178
50.8245
50.8304
50.8383
50.8416
50.5102
50.5101
50.5101
50.5101
50.5101
50.5101
50.5101
50.5101
50.5101
50.5101
50.5101
50.5101
50.5101
50.5101
50.5101
50.5101
50.5101
50.5101
50.5101
50.5101
50.5101
50.5101
50.5102
50.5102
50.5102
50.5102
50.5102
50.5102
50.5102
50.5102
50.5102
50.5101
50.5101
50.5101
50.5101
50.5101
50.5101
50.5102
50.5102
50.5103
50.5103
50.5103
50.5103
50.5103
50.5103
50.5103
50.5104
50.5104
50.5104
50.5104
50.5105
50.5105
50.5106
50.5107
50.5107
50.5108
50.5109
50.5109
50.511
50.511
50.5111
50.5111
50.5112
50.5113
50.5114
50.5115
50.5116
50.5118
50.5119
50.512
50.5121
50.5123
50.5124
50.5126
50.5127
50.5129
50.5131
50.5133
50.5135
50.5137
50.5139
50.5142
50.5144
50.5147
50.515
50.5153
50.5157
50.516
50.5164
50.5168
50.5172
50.5176
50.518
50.5185
50.519
50.5195
50.5201
50.5207
50.5213
50.5219
50.5225
50.5232
50.5239
50.5247
50.5255
50.5263
50.5272
50.528
50.529
50.5299
50.5309
50.5319
50.533
50.5341
50.5353
50.5365
50.5377
50.539
50.5403
50.5417
50.5431
50.5446
50.5461
50.5477
50.5493
50.5509
50.5526
50.5544
50.5562
50.5581
50.56
50.5619
50.564
50.566
50.5682
50.5704
50.5726
50.5749
50.5772
50.5797
50.5821
50.5847
50.5872
50.5899
50.5926
50.5954
50.5982
50.6011
50.604
50.6071
50.6101
50.6133
50.6165
50.6197
50.6231
50.6265
50.6299
50.6335
50.637
50.6407
50.6444
50.6482
50.6521
50.656
50.66
50.664
50.6682
50.6723
50.6766
50.6809
50.6853
50.6898
50.6943
50.6989
50.7036
50.7084
50.7132
50.7181
50.723
50.728
50.7331
50.7383
50.7435
50.7489
50.7542
50.7597
50.7652
50.7708
50.7765
50.7822
50.7881
50.7939
50.8
50.8059
50.8122
50.8181
50.8248
50.8307
50.8386
50.8409
50.5102
50.5102
50.5101
50.5101
50.5101
50.5101
50.5101
50.5101
50.5101
50.5101
50.5101
50.5101
50.5101
50.5101
50.5101
50.5101
50.5101
50.5101
50.5101
50.5101
50.5101
50.5101
50.5102
50.5102
50.5102
50.5102
50.5102
50.5102
50.5102
50.5102
50.5102
50.5101
50.5101
50.5101
50.5101
50.5101
50.5101
50.5102
50.5102
50.5103
50.5103
50.5103
50.5103
50.5103
50.5103
50.5103
50.5104
50.5104
50.5104
50.5104
50.5105
50.5105
50.5106
50.5107
50.5107
50.5108
50.5109
50.5109
50.511
50.511
50.5111
50.5111
50.5112
50.5113
50.5114
50.5115
50.5116
50.5118
50.5119
50.512
50.5121
50.5123
50.5124
50.5126
50.5127
50.5129
50.5131
50.5133
50.5135
50.5137
50.5139
50.5142
50.5144
50.5147
50.515
50.5153
50.5157
50.516
50.5164
50.5168
50.5172
50.5176
50.518
50.5185
50.519
50.5195
50.5201
50.5207
50.5213
50.5219
50.5225
50.5232
50.5239
50.5247
50.5255
50.5263
50.5272
50.528
50.529
50.5299
50.5309
50.5319
50.533
50.5341
50.5353
50.5365
50.5377
50.539
50.5403
50.5417
50.5431
50.5446
50.5461
50.5477
50.5493
50.5509
50.5526
50.5544
50.5562
50.5581
50.56
50.5619
50.564
50.566
50.5682
50.5704
50.5726
50.5749
50.5772
50.5797
50.5821
50.5847
50.5872
50.5899
50.5926
50.5954
50.5982
50.6011
50.604
50.6071
50.6101
50.6133
50.6165
50.6197
50.6231
50.6265
50.6299
50.6335
50.637
50.6407
50.6444
50.6482
50.6521
50.656
50.66
50.664
50.6682
50.6723
50.6766
50.6809
50.6853
50.6898
50.6943
50.6989
50.7036
50.7084
50.7132
50.7181
50.723
50.728
50.7331
50.7383
50.7435
50.7489
50.7542
50.7597
50.7652
50.7708
50.7765
50.7822
50.7881
50.7939
50.8
50.8059
50.8122
50.8181
50.8248
50.8307
50.8386
50.841
50.5101
50.5101
50.5101
50.5101
50.5101
50.5101
50.5101
50.5101
50.5101
50.5101
50.5101
50.5101
50.5101
50.5101
50.5101
50.5101
50.5101
50.5101
50.5101
50.5101
50.5101
50.5101
50.5101
50.5101
50.5102
50.5102
50.5102
50.5102
50.5102
50.5102
50.5102
50.5101
50.5101
50.5101
50.5101
50.5101
50.5101
50.5102
50.5102
50.5103
50.5103
50.5103
50.5103
50.5103
50.5103
50.5103
50.5104
50.5104
50.5104
50.5104
50.5105
50.5105
50.5106
50.5107
50.5107
50.5108
50.5109
50.5109
50.511
50.511
50.5111
50.5111
50.5112
50.5113
50.5114
50.5115
50.5116
50.5118
50.5119
50.512
50.5121
50.5123
50.5124
50.5126
50.5127
50.5129
50.5131
50.5133
50.5135
50.5137
50.5139
50.5142
50.5144
50.5147
50.515
50.5153
50.5157
50.516
50.5164
50.5168
50.5172
50.5176
50.518
50.5185
50.519
50.5195
50.5201
50.5207
50.5213
50.5219
50.5225
50.5232
50.5239
50.5247
50.5255
50.5263
50.5272
50.528
50.529
50.5299
50.5309
50.5319
50.533
50.5341
50.5353
50.5365
50.5377
50.539
50.5403
50.5417
50.5431
50.5446
50.5461
50.5477
50.5493
50.5509
50.5526
50.5544
50.5562
50.5581
50.56
50.5619
50.564
50.566
50.5682
50.5704
50.5726
50.5749
50.5772
50.5797
50.5821
50.5847
50.5872
50.5899
50.5926
50.5954
50.5982
50.6011
50.604
50.6071
50.6101
50.6133
50.6165
50.6197
50.6231
50.6265
50.6299
50.6335
50.637
50.6407
50.6444
50.6482
50.6521
50.656
50.66
50.664
50.6682
50.6723
50.6766
50.6809
50.6853
50.6898
50.6943
50.6989
50.7036
50.7084
50.7132
50.7181
50.723
50.728
50.7331
50.7383
50.7435
50.7489
50.7542
50.7597
50.7652
50.7708
50.7765
50.7822
50.7881
50.7939
50.8
50.8059
50.8122
50.8181
50.8248
50.8307
50.8384
50.8422
50.5101
50.5101
50.5101
50.5101
50.5101
50.5101
50.5101
50.5101
50.5101
50.5101
50.5101
50.5101
50.5101
50.5101
50.5101
50.5101
50.5101
50.5101
50.5101
50.5101
50.5101
50.5101
50.5101
50.5101
50.5101
50.5102
50.5102
50.5102
50.5102
50.5102
50.5102
50.5101
50.5101
50.5101
50.5101
50.5101
50.5101
50.5102
50.5102
50.5103
50.5103
50.5103
50.5103
50.5103
50.5103
50.5103
50.5104
50.5104
50.5104
50.5104
50.5105
50.5105
50.5106
50.5107
50.5107
50.5108
50.5109
50.5109
50.511
50.511
50.5111
50.5111
50.5112
50.5113
50.5114
50.5115
50.5116
50.5118
50.5119
50.512
50.5121
50.5123
50.5124
50.5126
50.5127
50.5129
50.5131
50.5133
50.5135
50.5137
50.5139
50.5142
50.5144
50.5147
50.515
50.5153
50.5157
50.516
50.5164
50.5168
50.5172
50.5176
50.518
50.5185
50.519
50.5195
50.5201
50.5207
50.5213
50.5219
50.5225
50.5232
50.5239
50.5247
50.5255
50.5263
50.5272
50.528
50.529
50.5299
50.5309
50.5319
50.533
50.5341
50.5353
50.5365
50.5377
50.539
50.5403
50.5417
50.5431
50.5446
50.5461
50.5477
50.5493
50.5509
50.5526
50.5544
50.5562
50.5581
50.56
50.5619
50.564
50.566
50.5682
50.5704
50.5726
50.5749
50.5772
50.5797
50.5821
50.5847
50.5872
50.5899
50.5926
50.5954
50.5982
50.6011
50.604
50.6071
50.6101
50.6133
50.6165
50.6197
50.6231
50.6265
50.6299
50.6335
50.637
50.6407
50.6444
50.6482
50.6521
50.656
50.66
50.664
50.6682
50.6723
50.6766
50.6809
50.6853
50.6898
50.6943
50.6989
50.7036
50.7084
50.7132
50.7181
50.723
50.728
50.7331
50.7383
50.7435
50.7489
50.7542
50.7597
50.7652
50.7708
50.7765
50.7822
50.7881
50.7939
50.8
50.8059
50.8122
50.8181
50.8248
50.8307
50.8379
50.8419
50.5101
50.5101
50.5101
50.5101
50.5101
50.5101
50.5101
50.5101
50.5101
50.5101
50.5101
50.5101
50.5101
50.5101
50.5101
50.5101
50.5101
50.5101
50.5101
50.5101
50.5101
50.5101
50.5101
50.5101
50.5101
50.5102
50.5102
50.5102
50.5102
50.5102
50.5102
50.5101
50.5101
50.5101
50.5101
50.5101
50.5101
50.5102
50.5102
50.5103
50.5103
50.5103
50.5103
50.5103
50.5103
50.5103
50.5104
50.5104
50.5104
50.5104
50.5105
50.5105
50.5106
50.5107
50.5107
50.5108
50.5109
50.5109
50.511
50.511
50.5111
50.5111
50.5112
50.5113
50.5114
50.5115
50.5116
50.5118
50.5119
50.512
50.5121
50.5123
50.5124
50.5126
50.5127
50.5129
50.5131
50.5133
50.5135
50.5137
50.5139
50.5142
50.5144
50.5147
50.515
50.5153
50.5157
50.516
50.5164
50.5168
50.5172
50.5176
50.518
50.5185
50.519
50.5195
50.5201
50.5207
50.5213
50.5219
50.5225
50.5232
50.5239
50.5247
50.5255
50.5263
50.5272
50.528
50.529
50.5299
50.5309
50.5319
50.533
50.5341
50.5353
50.5365
50.5377
50.539
50.5403
50.5417
50.5431
50.5446
50.5461
50.5477
50.5493
50.5509
50.5526
50.5544
50.5562
50.5581
50.56
50.5619
50.564
50.566
50.5682
50.5704
50.5726
50.5749
50.5772
50.5797
50.5821
50.5847
50.5872
50.5899
50.5926
50.5954
50.5982
50.6011
50.604
50.6071
50.6101
50.6133
50.6165
50.6197
50.6231
50.6265
50.6299
50.6335
50.637
50.6407
50.6444
50.6482
50.6521
50.656
50.66
50.664
50.6682
50.6723
50.6766
50.6809
50.6853
50.6898
50.6943
50.6989
50.7036
50.7084
50.7132
50.7181
50.723
50.728
50.7331
50.7383
50.7435
50.7489
50.7542
50.7597
50.7652
50.7708
50.7765
50.7823
50.7881
50.794
50.7999
50.8059
50.8121
50.8183
50.8244
50.8311
50.8368
50.8427
50.5101
50.5101
50.5101
50.5101
50.5101
50.5101
50.5101
50.5101
50.5101
50.5101
50.5101
50.5101
50.5101
50.5101
50.5101
50.5101
50.5101
50.5101
50.5101
50.5101
50.5101
50.5101
50.5101
50.5101
50.5102
50.5102
50.5102
50.5102
50.5102
50.5102
50.5102
50.5101
50.5101
50.5101
50.5101
50.5101
50.5101
50.5102
50.5102
50.5103
50.5103
50.5103
50.5103
50.5103
50.5103
50.5103
50.5104
50.5104
50.5104
50.5104
50.5105
50.5105
50.5106
50.5107
50.5107
50.5108
50.5109
50.5109
50.511
50.511
50.5111
50.5111
50.5112
50.5113
50.5114
50.5115
50.5116
50.5118
50.5119
50.512
50.5121
50.5123
50.5124
50.5126
50.5127
50.5129
50.5131
50.5133
50.5135
50.5137
50.5139
50.5142
50.5144
50.5147
50.515
50.5153
50.5157
50.516
50.5164
50.5168
50.5172
50.5176
50.518
50.5185
50.519
50.5195
50.5201
50.5207
50.5213
50.5219
50.5225
50.5232
50.5239
50.5247
50.5255
50.5263
50.5272
50.528
50.529
50.5299
50.5309
50.5319
50.533
50.5341
50.5353
50.5365
50.5377
50.539
50.5403
50.5417
50.5431
50.5446
50.5461
50.5477
50.5493
50.5509
50.5526
50.5544
50.5562
50.5581
50.56
50.5619
50.564
50.566
50.5682
50.5704
50.5726
50.5749
50.5772
50.5797
50.5821
50.5847
50.5872
50.5899
50.5926
50.5954
50.5982
50.6011
50.604
50.6071
50.6101
50.6133
50.6165
50.6197
50.6231
50.6265
50.6299
50.6335
50.637
50.6407
50.6444
50.6482
50.6521
50.656
50.66
50.664
50.6682
50.6723
50.6766
50.6809
50.6853
50.6898
50.6943
50.6989
50.7036
50.7084
50.7132
50.7181
50.723
50.728
50.7331
50.7383
50.7435
50.7489
50.7542
50.7597
50.7652
50.7708
50.7765
50.7823
50.788
50.794
50.7998
50.8061
50.8119
50.8184
50.8243
50.8309
50.8357
50.8457
50.5102
50.5102
50.5101
50.5101
50.5101
50.5101
50.5101
50.5101
50.5101
50.5101
50.5101
50.5101
50.5101
50.5101
50.5101
50.5101
50.5101
50.5101
50.5101
50.5101
50.5101
50.5101
50.5102
50.5102
50.5102
50.5102
50.5102
50.5102
50.5102
50.5102
50.5102
50.5101
50.5101
50.5101
50.5101
50.5101
50.5101
50.5102
50.5102
50.5103
50.5103
50.5103
50.5103
50.5103
50.5103
50.5103
50.5104
50.5104
50.5104
50.5104
50.5105
50.5105
50.5106
50.5107
50.5107
50.5108
50.5109
50.5109
50.511
50.511
50.5111
50.5111
50.5112
50.5113
50.5114
50.5115
50.5116
50.5118
50.5119
50.512
50.5121
50.5123
50.5124
50.5126
50.5127
50.5129
50.5131
50.5133
50.5135
50.5137
50.5139
50.5142
50.5144
50.5147
50.515
50.5153
50.5157
50.516
50.5164
50.5168
50.5172
50.5176
50.518
50.5185
50.519
50.5195
50.5201
50.5207
50.5213
50.5219
50.5225
50.5232
50.5239
50.5247
50.5255
50.5263
50.5272
50.528
50.529
50.5299
50.5309
50.5319
50.533
50.5341
50.5353
50.5365
50.5377
50.539
50.5403
50.5417
50.5431
50.5446
50.5461
50.5477
50.5493
50.5509
50.5526
50.5544
50.5562
50.5581
50.56
50.5619
50.564
50.566
50.5682
50.5704
50.5726
50.5749
50.5772
50.5797
50.5821
50.5847
50.5872
50.5899
50.5926
50.5954
50.5982
50.6011
50.604
50.6071
50.6101
50.6133
50.6165
50.6197
50.6231
50.6265
50.6299
50.6335
50.637
50.6407
50.6444
50.6482
50.6521
50.656
50.66
50.664
50.6682
50.6723
50.6766
50.6809
50.6853
50.6898
50.6943
50.6989
50.7036
50.7084
50.7132
50.7181
50.723
50.728
50.7331
50.7383
50.7435
50.7489
50.7542
50.7597
50.7652
50.7708
50.7765
50.7823
50.788
50.794
50.7998
50.8061
50.8119
50.8185
50.8242
50.8309
50.8347
50.8539
50.5102
50.5101
50.5101
50.5101
50.5101
50.5101
50.5101
50.5101
50.5101
50.5101
50.5101
50.5101
50.5101
50.5101
50.5101
50.5101
50.5101
50.5101
50.5101
50.5101
50.5101
50.5101
50.5102
50.5102
50.5102
50.5102
50.5102
50.5102
50.5102
50.5102
50.5102
50.5101
50.5101
50.5101
50.5101
50.5101
50.5101
50.5102
50.5102
50.5103
50.5103
50.5103
50.5103
50.5103
50.5103
50.5103
50.5104
50.5104
50.5104
50.5104
50.5105
50.5105
50.5106
50.5107
50.5107
50.5108
50.5109
50.5109
50.511
50.511
50.5111
50.5111
50.5112
50.5113
50.5114
50.5115
50.5116
50.5118
50.5119
50.512
50.5121
50.5123
50.5124
50.5126
50.5127
50.5129
50.5131
50.5133
50.5135
50.5137
50.5139
50.5142
50.5144
50.5147
50.515
50.5153
50.5157
50.516
50.5164
50.5168
50.5172
50.5176
50.518
50.5185
50.519
50.5195
50.5201
50.5207
50.5213
50.5219
50.5225
50.5232
50.5239
50.5247
50.5255
50.5263
50.5272
50.528
50.529
50.5299
50.5309
50.5319
50.533
50.5341
50.5353
50.5365
50.5377
50.539
50.5403
50.5417
50.5431
50.5446
50.5461
50.5477
50.5493
50.5509
50.5526
50.5544
50.5562
50.5581
50.56
50.5619
50.564
50.566
50.5682
50.5704
50.5726
50.5749
50.5772
50.5797
50.5821
50.5847
50.5872
50.5899
50.5926
50.5954
50.5982
50.6011
50.604
50.6071
50.6101
50.6133
50.6165
50.6197
50.6231
50.6265
50.6299
50.6335
50.637
50.6407
50.6444
50.6482
50.6521
50.656
50.66
50.664
50.6682
50.6723
50.6766
50.6809
50.6853
50.6898
50.6943
50.6989
50.7036
50.7084
50.7132
50.7181
50.723
50.728
50.7331
50.7383
50.7435
50.7489
50.7542
50.7597
50.7652
50.7708
50.7765
50.7823
50.788
50.794
50.7998
50.8061
50.8119
50.8185
50.8242
50.8309
50.8342
50.8581
50.5097
50.5097
50.5097
50.5097
50.5097
50.5097
50.5097
50.5097
50.5097
50.5097
50.5097
50.5097
50.5097
50.5097
50.5097
50.5097
50.5097
50.5097
50.5097
50.5097
50.5097
50.5097
50.5097
50.5097
50.5097
50.5097
50.5097
50.5097
50.5097
50.5097
50.5097
50.5097
50.5097
50.5097
50.5097
50.5097
50.5097
50.5098
50.5098
50.5099
50.5099
50.5099
50.5099
50.5099
50.51
50.51
50.51
50.51
50.51
50.5101
50.5101
50.5102
50.5102
50.5103
50.5104
50.5105
50.5105
50.5106
50.5106
50.5107
50.5107
50.5108
50.5109
50.511
50.5111
50.5112
50.5113
50.5114
50.5116
50.5117
50.5118
50.512
50.5121
50.5123
50.5124
50.5126
50.5128
50.513
50.5132
50.5134
50.5136
50.5139
50.5142
50.5144
50.5147
50.515
50.5154
50.5157
50.5161
50.5165
50.5169
50.5173
50.5177
50.5182
50.5187
50.5192
50.5198
50.5203
50.521
50.5216
50.5222
50.5229
50.5236
50.5244
50.5252
50.526
50.5268
50.5277
50.5287
50.5296
50.5306
50.5316
50.5327
50.5338
50.535
50.5362
50.5374
50.5387
50.54
50.5414
50.5428
50.5443
50.5458
50.5474
50.549
50.5506
50.5523
50.5541
50.5559
50.5578
50.5597
50.5616
50.5637
50.5657
50.5679
50.57
50.5723
50.5746
50.5769
50.5794
50.5818
50.5844
50.5869
50.5896
50.5923
50.5951
50.5979
50.6008
50.6037
50.6068
50.6098
50.613
50.6162
50.6194
50.6228
50.6262
50.6296
50.6332
50.6367
50.6404
50.6441
50.6479
50.6518
50.6557
50.6597
50.6637
50.6678
50.672
50.6763
50.6806
50.685
50.6895
50.694
50.6986
50.7033
50.708
50.7129
50.7177
50.7227
50.7277
50.7328
50.738
50.7432
50.7486
50.7539
50.7594
50.7649
50.7705
50.7762
50.782
50.7877
50.7937
50.7995
50.8058
50.8116
50.8182
50.8239
50.8306
50.8334
50.8621
50.87
50.881
50.8853
50.8871
50.8882
50.8894
50.8904
50.8913
50.892
50.8928
50.8935
50.8943
50.895
50.8956
50.8961
50.8964
50.8963
50.8956
50.8944
50.8918
50.8687
50.8785
50.883
50.8849
50.8861
50.8873
50.8884
50.8894
50.8902
50.8911
50.892
50.8928
50.8935
50.8941
50.8947
50.8949
50.8948
50.8942
50.8929
50.8902
50.8673
50.8773
50.8824
50.8844
50.8858
50.887
50.8881
50.889
50.8898
50.8906
50.8914
50.8922
50.8929
50.8935
50.8941
50.8943
50.8941
50.8934
50.8919
50.8888
50.8626
50.8686
50.8711
50.8722
50.8732
50.8742
50.8752
50.8761
50.8768
50.8776
50.8784
50.8791
50.8796
50.8801
50.8804
50.8805
50.8804
50.8798
50.8785
50.8764
50.8553
50.8599
50.8636
50.8667
50.8691
50.8712
50.8727
50.874
50.8751
50.8762
50.877
50.8781
50.8784
50.879
50.8792
50.8793
50.8788
50.8782
50.8772
50.8759
50.8414
50.8402
50.8385
50.8367
50.8353
50.8343
50.834
50.8341
50.8343
50.8347
50.8353
50.836
50.837
50.838
50.8388
50.8397
50.8408
50.8423
50.8438
50.846
50.8277
50.8243
50.8242
50.8258
50.8274
50.8289
50.8302
50.8316
50.8329
50.8342
50.8355
50.8366
50.8378
50.8389
50.8401
50.8415
50.843
50.8452
50.8482
50.8519
50.8093
50.797
50.7872
50.7807
50.7765
50.7738
50.7721
50.7712
50.771
50.7714
50.7723
50.7738
50.7758
50.7785
50.7817
50.7861
50.7906
50.7971
50.8043
50.8135
50.8057
50.7926
50.7845
50.7798
50.7771
50.7754
50.7745
50.7743
50.7747
50.7756
50.777
50.7789
50.7812
50.7842
50.7877
50.792
50.7969
50.8027
50.8099
50.8185
50.8009
50.7816
50.7707
50.7646
50.7606
50.7577
50.7557
50.7549
50.7544
50.7546
50.7554
50.7566
50.7585
50.7612
50.7646
50.7688
50.7738
50.7801
50.788
50.7981
50.8777
50.8725
50.8755
50.8803
50.8856
50.8912
50.8969
50.9026
50.9083
50.9141
50.92
50.9258
50.9318
50.9377
50.9437
50.9498
50.9559
50.962
50.9683
50.9745
50.9808
50.9872
50.9936
51
51.0065
51.013
51.0196
51.0262
51.0329
51.0396
51.0463
51.0531
51.06
51.0669
51.0738
51.0808
51.0878
51.0949
51.102
51.1092
51.1164
51.1236
51.1309
51.1383
51.1457
51.1531
51.1606
51.1681
51.1756
51.1832
51.1909
51.1986
51.2063
51.2141
51.2219
51.2297
51.2376
51.2456
51.2536
51.2616
51.2697
51.2778
51.286
51.2942
51.3024
51.3107
51.319
51.3274
51.3358
51.3443
51.3528
51.3613
51.3698
51.3785
51.3872
51.396
51.4049
51.4139
51.4228
51.4317
51.4406
51.4496
51.459
51.4685
51.4779
51.4859
51.49
51.4801
51.441
51.3957
51.3555
51.3247
51.3057
51.2989
51.3026
51.3129
51.3292
51.3687
51.4442
51.5139
51.5702
51.6127
51.6431
51.664
51.6788
51.6907
51.701
51.7075
51.7124
51.7187
51.7261
51.7342
51.7429
51.7521
51.7615
51.771
51.7807
51.7905
51.8003
51.8102
51.8201
51.8301
51.84
51.85
51.86
51.87
51.8801
51.8902
51.9002
51.9103
51.9204
51.9306
51.9407
51.9509
51.961
51.9712
51.9814
51.9916
52.0019
52.0121
52.0223
52.0326
52.0428
52.0531
52.0634
52.0736
52.0839
52.0942
52.1045
52.1148
52.1251
52.1354
52.1458
52.1561
52.1664
52.1767
52.187
52.1974
52.2077
52.218
52.2283
52.2387
52.249
52.2593
52.2696
52.2799
52.2902
52.3006
52.3109
52.3212
52.3314
52.3417
52.352
52.3623
52.3725
52.3828
52.393
52.4033
52.4135
52.4237
52.4339
52.4442
52.4542
52.4646
52.4745
52.4849
52.4947
52.5052
52.5149
52.5254
52.535
52.5456
52.555
52.5657
52.575
52.5857
52.5949
52.6056
52.6137
52.6271
50.8778
50.8733
50.8763
50.8812
50.8866
50.8922
50.8979
50.9036
50.9093
50.9151
50.9209
50.9268
50.9328
50.9387
50.9447
50.9508
50.9569
50.963
50.9693
50.9755
50.9818
50.9882
50.9946
51.001
51.0075
51.0141
51.0206
51.0272
51.0339
51.0406
51.0473
51.0542
51.061
51.0679
51.0748
51.0818
51.0888
51.0959
51.103
51.1102
51.1174
51.1247
51.132
51.1393
51.1467
51.1541
51.1616
51.1692
51.1767
51.1843
51.192
51.1996
51.2074
51.2151
51.2229
51.2308
51.2387
51.2467
51.2546
51.2627
51.2708
51.2789
51.287
51.2952
51.3035
51.3117
51.3201
51.3284
51.3368
51.3453
51.3538
51.3623
51.3709
51.3795
51.3882
51.3969
51.4057
51.4145
51.4233
51.4322
51.441
51.4501
51.4594
51.4691
51.479
51.4891
51.4992
51.5094
51.5197
51.5299
51.5396
51.5474
51.5503
51.5507
51.5515
51.5537
51.5583
51.5655
51.5752
51.5866
51.6
51.618
51.6354
51.6501
51.6628
51.6744
51.6858
51.6962
51.7053
51.7143
51.7235
51.7328
51.7422
51.7518
51.7614
51.7712
51.7809
51.7908
51.8006
51.8105
51.8204
51.8304
51.8403
51.8503
51.8603
51.8703
51.8804
51.8904
51.9005
51.9106
51.9207
51.9309
51.941
51.9512
51.9613
51.9715
51.9817
51.9919
52.0021
52.0124
52.0226
52.0329
52.0431
52.0534
52.0637
52.0739
52.0842
52.0945
52.1048
52.1151
52.1254
52.1357
52.146
52.1564
52.1667
52.177
52.1873
52.1977
52.208
52.2183
52.2286
52.239
52.2493
52.2596
52.2699
52.2802
52.2905
52.3008
52.3111
52.3214
52.3317
52.342
52.3523
52.3626
52.3728
52.3831
52.3933
52.4036
52.4138
52.424
52.4342
52.4444
52.4545
52.4649
52.4747
52.4852
52.495
52.5055
52.5152
52.5257
52.5353
52.5459
52.5553
52.566
52.5753
52.586
52.5952
52.6059
52.6141
52.6264
50.8778
50.8736
50.8765
50.8812
50.8865
50.8921
50.8977
50.9034
50.9091
50.9149
50.9207
50.9266
50.9326
50.9385
50.9446
50.9506
50.9567
50.9629
50.9691
50.9753
50.9816
50.988
50.9944
51.0008
51.0073
51.0139
51.0204
51.0271
51.0337
51.0404
51.0472
51.054
51.0608
51.0677
51.0746
51.0816
51.0887
51.0957
51.1028
51.11
51.1172
51.1245
51.1318
51.1391
51.1465
51.1539
51.1614
51.169
51.1765
51.1841
51.1918
51.1994
51.2072
51.2149
51.2228
51.2306
51.2385
51.2465
51.2545
51.2625
51.2706
51.2787
51.2868
51.295
51.3033
51.3116
51.3199
51.3282
51.3366
51.3451
51.3536
51.3621
51.3707
51.3793
51.3879
51.3967
51.4054
51.4143
51.4232
51.4321
51.4409
51.4496
51.4585
51.4678
51.4777
51.4884
51.4997
51.513
51.5271
51.5396
51.5509
51.5619
51.5727
51.5829
51.5917
51.5967
51.5996
51.603
51.6075
51.6134
51.6207
51.6293
51.6389
51.6491
51.6598
51.6706
51.6813
51.6918
51.7021
51.7122
51.7221
51.7319
51.7417
51.7515
51.7613
51.7711
51.7809
51.7907
51.8006
51.8105
51.8204
51.8303
51.8403
51.8503
51.8603
51.8703
51.8804
51.8904
51.9005
51.9106
51.9207
51.9309
51.941
51.9512
51.9613
51.9715
51.9817
51.9919
52.0022
52.0124
52.0226
52.0329
52.0431
52.0534
52.0637
52.0739
52.0842
52.0945
52.1048
52.1151
52.1254
52.1357
52.146
52.1564
52.1667
52.177
52.1873
52.1977
52.208
52.2183
52.2286
52.239
52.2493
52.2596
52.2699
52.2802
52.2905
52.3009
52.3111
52.3214
52.3317
52.342
52.3523
52.3626
52.3728
52.3831
52.3933
52.4036
52.4138
52.424
52.4342
52.4444
52.4545
52.4649
52.4747
52.4852
52.495
52.5055
52.5152
52.5257
52.5353
52.5459
52.5553
52.566
52.5753
52.586
52.5952
52.6059
52.6143
52.6257
50.8696
50.8684
50.8727
50.8782
50.8839
50.8895
50.8952
50.901
50.9068
50.9126
50.9184
50.9243
50.9302
50.9362
50.9422
50.9482
50.9543
50.9605
50.9667
50.9729
50.9792
50.9856
50.992
50.9984
51.0049
51.0115
51.018
51.0247
51.0313
51.038
51.0448
51.0516
51.0584
51.0653
51.0722
51.0792
51.0863
51.0933
51.1004
51.1076
51.1148
51.1221
51.1294
51.1367
51.1441
51.1516
51.159
51.1666
51.1741
51.1817
51.1894
51.197
51.2048
51.2125
51.2204
51.2282
51.2361
51.2441
51.2521
51.2601
51.2682
51.2763
51.2845
51.2926
51.3009
51.3092
51.3175
51.3259
51.3343
51.3428
51.3513
51.3598
51.3684
51.3771
51.3858
51.3946
51.4035
51.4124
51.4213
51.4301
51.4389
51.4477
51.4568
51.4664
51.4767
51.4876
51.4995
51.5132
51.5259
51.5374
51.5484
51.5592
51.5697
51.5795
51.5873
51.5932
51.5988
51.6047
51.6112
51.6185
51.6264
51.635
51.644
51.6535
51.6631
51.6729
51.6827
51.6926
51.7024
51.7122
51.7219
51.7317
51.7415
51.7513
51.7611
51.7709
51.7807
51.7906
51.8005
51.8104
51.8203
51.8303
51.8403
51.8503
51.8603
51.8703
51.8804
51.8904
51.9005
51.9106
51.9207
51.9309
51.941
51.9512
51.9613
51.9715
51.9817
51.9919
52.0022
52.0124
52.0226
52.0329
52.0431
52.0534
52.0637
52.0739
52.0842
52.0945
52.1048
52.1151
52.1254
52.1357
52.146
52.1564
52.1667
52.177
52.1873
52.1977
52.208
52.2183
52.2286
52.239
52.2493
52.2596
52.2699
52.2802
52.2905
52.3008
52.3111
52.3214
52.3317
52.342
52.3523
52.3626
52.3728
52.3831
52.3933
52.4036
52.4138
52.424
52.4342
52.4444
52.4545
52.4648
52.4748
52.4851
52.4951
52.5054
52.5152
52.5257
52.5353
52.5459
52.5553
52.5659
52.5753
52.586
52.5952
52.6058
52.6149
52.6252
50.8724
50.8753
50.879
50.8832
50.8879
50.8931
50.8985
50.904
50.9097
50.9155
50.9213
50.9272
50.9332
50.9391
50.9452
50.9512
50.9573
50.9635
50.9697
50.976
50.9822
50.9886
50.995
51.0014
51.0079
51.0144
51.021
51.0276
51.0343
51.041
51.0478
51.0546
51.0614
51.0683
51.0752
51.0822
51.0893
51.0963
51.1035
51.1106
51.1178
51.1251
51.1324
51.1397
51.1471
51.1545
51.162
51.1695
51.1771
51.1847
51.1924
51.2
51.2078
51.2155
51.2234
51.2312
51.2391
51.2471
51.255
51.2631
51.2711
51.2793
51.2874
51.2956
51.3038
51.3121
51.3204
51.3288
51.3372
51.3456
51.3541
51.3626
51.3711
51.3797
51.3883
51.397
51.4057
51.4144
51.4232
51.4321
51.441
51.4498
51.4586
51.4675
51.4766
51.4861
51.4962
51.5069
51.518
51.529
51.5399
51.5506
51.561
51.571
51.5802
51.5887
51.5967
51.6045
51.6124
51.6204
51.6287
51.6373
51.6462
51.6553
51.6645
51.6739
51.6834
51.6929
51.7026
51.7122
51.7219
51.7316
51.7414
51.7512
51.761
51.7708
51.7807
51.7905
51.8004
51.8104
51.8203
51.8303
51.8403
51.8503
51.8603
51.8703
51.8804
51.8904
51.9005
51.9106
51.9207
51.9309
51.941
51.9512
51.9613
51.9715
51.9817
51.9919
52.0021
52.0124
52.0226
52.0329
52.0431
52.0534
52.0637
52.0739
52.0842
52.0945
52.1048
52.1151
52.1254
52.1357
52.146
52.1564
52.1667
52.177
52.1873
52.1977
52.208
52.2183
52.2286
52.239
52.2493
52.2596
52.2699
52.2802
52.2905
52.3008
52.3112
52.3214
52.3317
52.342
52.3523
52.3626
52.3728
52.3831
52.3933
52.4036
52.4138
52.424
52.4342
52.4444
52.4546
52.4647
52.4749
52.485
52.4952
52.5053
52.5153
52.5255
52.5355
52.5455
52.5558
52.5655
52.5757
52.5856
52.5955
52.6056
52.6154
52.6252
50.8512
50.8592
50.8661
50.8726
50.8788
50.8847
50.8904
50.8962
50.9019
50.9077
50.9136
50.9194
50.9254
50.9313
50.9374
50.9434
50.9495
50.9557
50.9619
50.9681
50.9744
50.9808
50.9872
50.9936
51.0001
51.0066
51.0132
51.0198
51.0265
51.0332
51.04
51.0468
51.0536
51.0605
51.0674
51.0744
51.0814
51.0885
51.0956
51.1028
51.11
51.1173
51.1246
51.1319
51.1393
51.1467
51.1542
51.1618
51.1693
51.1769
51.1846
51.1923
51.2
51.2078
51.2157
51.2235
51.2315
51.2394
51.2474
51.2555
51.2637
51.2718
51.2801
51.2883
51.2966
51.305
51.3134
51.3219
51.3304
51.339
51.3477
51.3564
51.3651
51.3739
51.3827
51.3915
51.4003
51.4091
51.4178
51.4267
51.4359
51.4455
51.4555
51.466
51.477
51.4881
51.4989
51.5096
51.5199
51.53
51.54
51.5499
51.5594
51.5684
51.5769
51.5852
51.5933
51.6015
51.6099
51.6184
51.6272
51.6361
51.6452
51.6545
51.6639
51.6734
51.6829
51.6925
51.7022
51.7118
51.7216
51.7313
51.7411
51.751
51.7608
51.7707
51.7805
51.7904
51.8004
51.8103
51.8203
51.8302
51.8402
51.8502
51.8603
51.8703
51.8803
51.8904
51.9005
51.9106
51.9207
51.9309
51.941
51.9512
51.9613
51.9715
51.9817
51.9919
52.0021
52.0124
52.0226
52.0329
52.0431
52.0534
52.0637
52.0739
52.0842
52.0945
52.1048
52.1151
52.1254
52.1357
52.146
52.1564
52.1667
52.177
52.1873
52.1977
52.208
52.2183
52.2286
52.239
52.2493
52.2596
52.2699
52.2802
52.2905
52.3008
52.3112
52.3214
52.3317
52.342
52.3523
52.3626
52.3728
52.3831
52.3933
52.4036
52.4138
52.424
52.4342
52.4443
52.4546
52.4647
52.475
52.4849
52.4953
52.5051
52.5156
52.5252
52.5358
52.5453
52.5559
52.5654
52.5759
52.5853
52.5959
52.6052
52.6158
52.625
50.8643
50.8749
50.8809
50.8859
50.8911
50.8964
50.9019
50.9075
50.9132
50.919
50.9248
50.9307
50.9367
50.9426
50.9487
50.9547
50.9609
50.967
50.9732
50.9795
50.9858
50.9921
50.9985
51.005
51.0114
51.018
51.0245
51.0312
51.0378
51.0445
51.0513
51.0581
51.065
51.0718
51.0788
51.0858
51.0928
51.0999
51.107
51.1141
51.1213
51.1286
51.1359
51.1432
51.1506
51.158
51.1655
51.173
51.1806
51.1882
51.1958
51.2035
51.2113
51.219
51.2269
51.2347
51.2426
51.2506
51.2585
51.2666
51.2747
51.2828
51.291
51.2992
51.3074
51.3157
51.324
51.3324
51.3408
51.3492
51.3577
51.3662
51.3747
51.3833
51.3919
51.4007
51.4094
51.4181
51.4268
51.4355
51.4444
51.4533
51.4623
51.4712
51.4801
51.4888
51.4975
51.5062
51.515
51.5243
51.5342
51.5446
51.5552
51.5659
51.5766
51.5873
51.5973
51.6061
51.6142
51.6221
51.6301
51.6384
51.6469
51.6557
51.6647
51.6739
51.6833
51.6927
51.7023
51.7119
51.7216
51.7314
51.7411
51.751
51.7608
51.7706
51.7805
51.7904
51.8003
51.8103
51.8202
51.8302
51.8402
51.8502
51.8602
51.8703
51.8803
51.8904
51.9005
51.9106
51.9207
51.9309
51.941
51.9512
51.9613
51.9715
51.9817
51.9919
52.0021
52.0124
52.0226
52.0329
52.0431
52.0534
52.0637
52.0739
52.0842
52.0945
52.1048
52.1151
52.1254
52.1357
52.146
52.1564
52.1667
52.177
52.1873
52.1977
52.208
52.2183
52.2286
52.239
52.2493
52.2596
52.2699
52.2802
52.2905
52.3008
52.3112
52.3214
52.3317
52.342
52.3523
52.3626
52.3728
52.3831
52.3933
52.4036
52.4138
52.424
52.4342
52.4443
52.4546
52.4647
52.475
52.4849
52.4953
52.5051
52.5156
52.5252
52.5358
52.5453
52.5559
52.5653
52.5759
52.5853
52.5959
52.6053
52.6157
52.6254
50.8444
50.8606
50.8686
50.8746
50.8801
50.8855
50.891
50.8966
50.9023
50.908
50.9138
50.9197
50.9256
50.9316
50.9376
50.9437
50.9498
50.956
50.9622
50.9685
50.9747
50.9811
50.9874
50.9939
51.0004
51.0069
51.0135
51.0201
51.0268
51.0335
51.0403
51.0471
51.0539
51.0608
51.0677
51.0747
51.0817
51.0888
51.0959
51.1031
51.1103
51.1176
51.1249
51.1322
51.1396
51.1471
51.1546
51.1622
51.1698
51.1774
51.1851
51.1928
51.2005
51.2083
51.2161
51.2239
51.2318
51.2397
51.2477
51.2557
51.2638
51.272
51.2802
51.2884
51.2966
51.305
51.3134
51.3219
51.3305
51.3391
51.3478
51.3565
51.3652
51.3739
51.3825
51.3911
51.3997
51.4084
51.4171
51.4259
51.4346
51.4435
51.4527
51.4623
51.4723
51.4828
51.4937
51.5048
51.5157
51.5264
51.5369
51.5471
51.5573
51.5671
51.5764
51.5853
51.5938
51.6021
51.6105