/*--------------------------------*- C++ -*----------------------------------*\
| =========                 |                                                 |
| \\      /  F ield         | OpenFOAM: The Open Source CFD Toolbox           |
|  \\    /   O peration     | Version:  3.0.x                                 |
|   \\  /    A nd           | Web:      www.OpenFOAM.org                      |
|    \\/     M anipulation  |                                                 |
\*---------------------------------------------------------------------------*/
FoamFile
{
    version     2.0;
    format      ascii;
    class       surfaceScalarField;
    location    "0.26";
    object      phi;
}
// * * * * * * * * * * * * * * * * * * * * * * * * * * * * * * * * * * * * * //

dimensions      [1 0 -1 0 0 0 0];

internalField   nonuniform List<scalar> 
12415
(
5.79387
0.000327813
5.79238
0.000234815
5.79092
0.000225595
5.78946
0.000227222
5.788
0.000227742
5.78654
0.000227596
5.78507
0.000227599
5.7836
0.000227655
5.78214
0.000227711
5.78067
0.000227772
5.77922
0.000227849
5.77777
0.000227956
5.77634
0.000228033
5.77491
0.00022817
5.7735
0.000228299
5.77209
0.000228435
5.7707
0.000228573
5.76932
0.000228708
5.76795
0.000228836
5.76659
0.000228955
5.76524
0.000229063
5.7639
0.000229156
5.76258
0.000229227
5.76126
0.000229267
5.75996
0.000229261
5.75868
0.000229183
5.75742
0.000228998
5.75619
0.000228653
5.75498
0.000228078
5.7538
0.000227179
5.75262
0.000225844
5.75146
0.00022394
5.75032
0.00022132
5.74918
0.000217833
5.74805
0.000213333
5.74692
0.000207692
5.7458
0.000200816
5.74469
0.000192657
5.74358
0.000183224
5.74248
0.000172589
5.74137
0.000160888
5.74026
0.000148316
5.73915
0.000135116
5.73804
0.000121567
5.73691
0.00010796
5.73578
9.45875e-05
5.73464
8.17169e-05
5.73348
6.95812e-05
5.73231
5.83658e-05
5.73112
4.82027e-05
5.72992
3.91687e-05
5.7287
3.12882e-05
5.72747
2.45399e-05
5.72622
1.88648e-05
5.72497
1.41762e-05
5.7237
1.03696e-05
5.72244
7.33161e-06
5.72116
4.94753e-06
5.71989
3.10721e-06
5.71863
1.709e-06
5.71737
6.61805e-07
5.71613
-1.05831e-07
5.71491
-6.60822e-07
5.71371
-1.05598e-06
5.71254
-1.3325e-06
5.7114
-1.52298e-06
5.71028
-1.65177e-06
5.70921
-1.73714e-06
5.70817
-1.79248e-06
5.70717
-1.82713e-06
5.70621
-1.84786e-06
5.70528
-1.85915e-06
5.7044
-1.86405e-06
5.70356
-1.8647e-06
5.70276
-1.86236e-06
5.70199
-1.85792e-06
5.70126
-1.85189e-06
5.70056
-1.84467e-06
5.6999
-1.83652e-06
5.69926
-1.82776e-06
5.69864
-1.82011e-06
5.69805
-1.80669e-06
5.69747
-1.79614e-06
5.69692
-1.78645e-06
5.69637
-1.77658e-06
5.69585
-1.76541e-06
5.69533
-1.75382e-06
5.69482
-1.74272e-06
5.69432
-1.73303e-06
5.69382
-1.72447e-06
5.69334
-1.71564e-06
5.69287
-1.70737e-06
5.6924
-1.69925e-06
5.69195
-1.69168e-06
5.69151
-1.68378e-06
5.69109
-1.67635e-06
5.69069
-1.67023e-06
5.69031
-1.66583e-06
5.68996
-1.66291e-06
5.68963
-1.66221e-06
5.68933
-1.66581e-06
5.68906
-1.65463e-06
5.68882
-1.65842e-06
5.68861
-1.66147e-06
5.68844
-1.66273e-06
5.6883
-1.66334e-06
5.68819
-1.66396e-06
5.68812
-1.66604e-06
5.68807
-1.66655e-06
5.68805
-1.66682e-06
5.68806
-1.66892e-06
5.68809
-1.66684e-06
5.68813
-1.66769e-06
5.68819
-1.66726e-06
5.68827
-1.66616e-06
5.68835
-1.66438e-06
5.68843
-1.66188e-06
5.68852
-1.65885e-06
5.6886
-1.65505e-06
5.68867
-1.65075e-06
5.68873
-1.64594e-06
5.68877
-1.64036e-06
5.6888
-1.63452e-06
5.6888
-1.63041e-06
5.68878
-1.62416e-06
5.68874
-1.61535e-06
5.68867
-1.61076e-06
5.68858
-1.60722e-06
5.68847
-1.60219e-06
5.68834
-1.59732e-06
5.6882
-1.59362e-06
5.68804
-1.59218e-06
5.68788
-1.59213e-06
5.68772
-1.59332e-06
5.68756
-1.59567e-06
5.68741
-1.5991e-06
5.68727
-1.60368e-06
5.68715
-1.60923e-06
5.68704
-1.61558e-06
5.68696
-1.62255e-06
5.6869
-1.62822e-06
5.68686
-1.63501e-06
5.68685
-1.64531e-06
5.68686
-1.6529e-06
5.68688
-1.65981e-06
5.68692
-1.66526e-06
5.68698
-1.66956e-06
5.68704
-1.68044e-06
5.68711
-1.68367e-06
5.68718
-1.6818e-06
5.68725
-1.68477e-06
5.68731
-1.68728e-06
5.68737
-1.68866e-06
5.68741
-1.68918e-06
5.68743
-1.68837e-06
5.68743
-1.68711e-06
5.6874
-1.68358e-06
5.68734
-1.68257e-06
5.68723
-1.67559e-06
5.68708
-1.67129e-06
5.68687
-1.66525e-06
5.68661
-1.65939e-06
5.6863
-1.6534e-06
5.68592
-1.64775e-06
5.68549
-1.64376e-06
5.685
-1.69835e-06
5.68447
-1.57641e-06
5.68389
-1.63397e-06
5.68328
-1.63574e-06
5.68264
-1.63914e-06
5.68198
-1.64486e-06
5.68132
-1.6528e-06
5.68066
-1.66183e-06
5.68002
-1.67816e-06
5.67939
-1.69071e-06
5.67879
-1.70626e-06
5.67821
-1.72155e-06
5.67765
-1.73738e-06
5.67711
-1.75088e-06
5.67659
-1.76407e-06
5.67607
-1.77403e-06
5.67555
-1.78272e-06
5.67502
-1.78858e-06
5.67448
-1.7933e-06
5.67392
-1.79548e-06
5.67335
-1.79891e-06
5.67277
-1.79951e-06
5.67218
-1.80427e-06
5.67159
-1.80545e-06
5.67099
-1.79508e-06
5.67038
-1.81481e-06
5.66977
-1.68397e-06
5.66913
-1.17391e-06
5.66845
2.84781e-06
5.66771
3.06556e-05
5.66672
0.000225296
5.66429
0.00159235
5.65225
0.0111394
5.5627
0.0885782
0.435708
5.12595
11.5885
0.000260431
11.586
0.000214678
11.5836
0.00019105
11.5811
0.000194558
11.5787
0.000195884
11.5763
0.000195313
11.5738
0.000195201
11.5714
0.000195258
11.5689
0.000195312
11.5665
0.000195368
11.5641
0.00019544
11.5617
0.000195534
11.5593
0.000195619
11.5569
0.000195738
11.5546
0.00019586
11.5522
0.000195986
11.55
0.000196115
11.5477
0.000196241
11.5454
0.000196362
11.5432
0.000196476
11.541
0.00019658
11.5388
0.000196671
11.5366
0.000196744
11.5345
0.000196791
11.5324
0.000196798
11.5303
0.000196744
11.5283
0.000196599
11.5263
0.000196317
11.5244
0.000195837
11.5225
0.00019508
11.5206
0.000193949
11.5188
0.00019233
11.517
0.000190095
11.5152
0.000187116
11.5134
0.000183264
11.5116
0.000178432
11.5098
0.000172536
11.5079
0.000165536
11.5061
0.000157439
11.5043
0.000148307
11.5024
0.000138256
11.5005
0.000127454
11.4986
0.000116112
11.4966
0.000104467
11.4946
9.27734e-05
11.4925
8.12797e-05
11.4904
7.02176e-05
11.4882
5.97874e-05
11.486
5.01485e-05
11.4837
4.14144e-05
11.4814
3.36511e-05
11.4791
2.68796e-05
11.4766
2.10813e-05
11.4742
1.62056e-05
11.4717
1.21778e-05
11.4692
8.90821e-06
11.4667
6.2993e-06
11.4642
4.25257e-06
11.4616
2.67314e-06
11.4591
1.47247e-06
11.4566
5.68933e-07
11.4541
-8.67196e-08
11.4517
-5.60895e-07
11.4493
-9.00157e-07
11.4469
-1.13813e-06
11.4446
-1.30253e-06
11.4424
-1.41385e-06
11.4402
-1.48771e-06
11.4381
-1.53564e-06
11.4361
-1.56573e-06
11.4342
-1.58374e-06
11.4324
-1.59359e-06
11.4306
-1.59792e-06
11.4289
-1.59854e-06
11.4273
-1.5966e-06
11.4258
-1.59282e-06
11.4243
-1.58767e-06
11.4229
-1.5815e-06
11.4216
-1.57453e-06
11.4203
-1.56708e-06
11.419
-1.56009e-06
11.4179
-1.54941e-06
11.4167
-1.53976e-06
11.4156
-1.53156e-06
11.4145
-1.52312e-06
11.4134
-1.51358e-06
11.4124
-1.5036e-06
11.4114
-1.49415e-06
11.4104
-1.4858e-06
11.4094
-1.47841e-06
11.4084
-1.47095e-06
11.4074
-1.4637e-06
11.4065
-1.45691e-06
11.4056
-1.45032e-06
11.4047
-1.44358e-06
11.4039
-1.43721e-06
11.4031
-1.43201e-06
11.4023
-1.4282e-06
11.4016
-1.42576e-06
11.4009
-1.42522e-06
11.4003
-1.4273e-06
11.3998
-1.41959e-06
11.3993
-1.42152e-06
11.3989
-1.42443e-06
11.3985
-1.42554e-06
11.3983
-1.42608e-06
11.398
-1.42662e-06
11.3979
-1.42825e-06
11.3978
-1.4289e-06
11.3977
-1.4291e-06
11.3978
-1.43075e-06
11.3978
-1.42912e-06
11.3979
-1.4298e-06
11.398
-1.42935e-06
11.3982
-1.42852e-06
11.3983
-1.42697e-06
11.3985
-1.4248e-06
11.3986
-1.42219e-06
11.3988
-1.41894e-06
11.3989
-1.41527e-06
11.3991
-1.41112e-06
11.3991
-1.40636e-06
11.3992
-1.4014e-06
11.3992
-1.398e-06
11.3991
-1.39202e-06
11.3991
-1.38523e-06
11.3989
-1.38115e-06
11.3987
-1.37745e-06
11.3985
-1.3738e-06
11.3983
-1.36947e-06
11.398
-1.36635e-06
11.3976
-1.36503e-06
11.3973
-1.36499e-06
11.397
-1.36604e-06
11.3967
-1.36805e-06
11.3964
-1.37102e-06
11.3961
-1.37491e-06
11.3958
-1.37969e-06
11.3956
-1.38513e-06
11.3954
-1.39104e-06
11.3953
-1.39619e-06
11.3952
-1.40195e-06
11.3952
-1.41128e-06
11.3952
-1.41603e-06
11.3953
-1.4232e-06
11.3953
-1.42756e-06
11.3954
-1.43201e-06
11.3956
-1.43973e-06
11.3957
-1.44385e-06
11.3958
-1.44178e-06
11.396
-1.44471e-06
11.3961
-1.44649e-06
11.3962
-1.44777e-06
11.3963
-1.44819e-06
11.3963
-1.44756e-06
11.3963
-1.44638e-06
11.3963
-1.44361e-06
11.3961
-1.44231e-06
11.3959
-1.43674e-06
11.3956
-1.43289e-06
11.3952
-1.42761e-06
11.3947
-1.42288e-06
11.394
-1.41727e-06
11.3933
-1.41315e-06
11.3924
-1.41077e-06
11.3914
-1.44471e-06
11.3904
-1.36329e-06
11.3892
-1.39894e-06
11.388
-1.40226e-06
11.3867
-1.40535e-06
11.3854
-1.41013e-06
11.384
-1.41665e-06
11.3827
-1.42099e-06
11.3814
-1.44268e-06
11.3802
-1.44972e-06
11.379
-1.46346e-06
11.3778
-1.47541e-06
11.3767
-1.49024e-06
11.3756
-1.50045e-06
11.3745
-1.5131e-06
11.3735
-1.5205e-06
11.3725
-1.52889e-06
11.3714
-1.53315e-06
11.3703
-1.538e-06
11.3692
-1.53835e-06
11.368
-1.54373e-06
11.3669
-1.54088e-06
11.3657
-1.55038e-06
11.3645
-1.54891e-06
11.3633
-1.51267e-06
11.3621
-1.56851e-06
11.3608
-1.18103e-06
11.3596
3.20003e-07
11.3582
1.22112e-05
11.3567
9.45345e-05
11.3547
0.00067087
11.35
0.00471761
11.3265
0.0328269
11.1788
0.23426
1.09628
10.5162
139.061
-0.000260431
139.032
-0.000214678
139.003
-0.00019105
138.973
-0.000194558
138.944
-0.000195884
138.915
-0.000195313
138.886
-0.000195201
138.856
-0.000195258
138.827
-0.000195312
138.798
-0.000195368
138.769
-0.00019544
138.74
-0.000195534
138.711
-0.000195619
138.683
-0.000195738
138.655
-0.00019586
138.627
-0.000195986
138.599
-0.000196115
138.572
-0.000196241
138.545
-0.000196362
138.518
-0.000196476
138.492
-0.00019658
138.466
-0.000196671
138.44
-0.000196744
138.414
-0.000196791
138.389
-0.000196798
138.364
-0.000196744
138.34
-0.000196599
138.316
-0.000196317
138.293
-0.000195837
138.27
-0.00019508
138.248
-0.000193949
138.226
-0.00019233
138.204
-0.000190095
138.182
-0.000187116
138.16
-0.000183264
138.139
-0.000178432
138.117
-0.000172536
138.095
-0.000165536
138.073
-0.000157439
138.051
-0.000148307
138.029
-0.000138256
138.006
-0.000127454
137.983
-0.000116112
137.959
-0.000104467
137.935
-9.27734e-05
137.91
-8.12797e-05
137.885
-7.02176e-05
137.859
-5.97874e-05
137.832
-5.01485e-05
137.805
-4.14144e-05
137.777
-3.36512e-05
137.749
-2.68796e-05
137.72
-2.10813e-05
137.69
-1.62056e-05
137.661
-1.21778e-05
137.631
-8.90821e-06
137.6
-6.2993e-06
137.57
-4.25257e-06
137.539
-2.67314e-06
137.509
-1.47247e-06
137.479
-5.68933e-07
137.449
8.67185e-08
137.42
5.60892e-07
137.391
9.00156e-07
137.363
1.13813e-06
137.335
1.30253e-06
137.309
1.41385e-06
137.283
1.48771e-06
137.258
1.53564e-06
137.234
1.56573e-06
137.211
1.58374e-06
137.188
1.5936e-06
137.167
1.59793e-06
137.147
1.59854e-06
137.128
1.5966e-06
137.109
1.59282e-06
137.092
1.58767e-06
137.075
1.5815e-06
137.059
1.57453e-06
137.043
1.56708e-06
137.029
1.56009e-06
137.014
1.54942e-06
137
1.53976e-06
136.987
1.53157e-06
136.974
1.52313e-06
136.961
1.51358e-06
136.949
1.50359e-06
136.936
1.49415e-06
136.924
1.4858e-06
136.913
1.47841e-06
136.901
1.47095e-06
136.889
1.4637e-06
136.878
1.45691e-06
136.867
1.45032e-06
136.857
1.44358e-06
136.847
1.43721e-06
136.837
1.432e-06
136.828
1.4282e-06
136.819
1.42576e-06
136.811
1.42522e-06
136.804
1.42729e-06
136.798
1.41958e-06
136.792
1.42152e-06
136.787
1.42443e-06
136.783
1.42553e-06
136.779
1.42608e-06
136.777
1.42662e-06
136.775
1.42825e-06
136.774
1.4289e-06
136.773
1.42909e-06
136.773
1.43074e-06
136.774
1.42912e-06
136.775
1.4298e-06
136.776
1.42935e-06
136.778
1.42852e-06
136.78
1.42697e-06
136.782
1.42479e-06
136.784
1.42219e-06
136.786
1.41895e-06
136.787
1.41527e-06
136.789
1.41112e-06
136.79
1.40636e-06
136.79
1.4014e-06
136.79
1.398e-06
136.79
1.39203e-06
136.789
1.38523e-06
136.787
1.38115e-06
136.785
1.37745e-06
136.782
1.3738e-06
136.779
1.36947e-06
136.776
1.36635e-06
136.772
1.36503e-06
136.768
1.36499e-06
136.764
1.36604e-06
136.76
1.36805e-06
136.756
1.37103e-06
136.753
1.37491e-06
136.75
1.37969e-06
136.747
1.38513e-06
136.745
1.39105e-06
136.744
1.39626e-06
136.743
1.40188e-06
136.743
1.41117e-06
136.743
1.41615e-06
136.743
1.42311e-06
136.744
1.42771e-06
136.745
1.43169e-06
136.747
1.44008e-06
136.748
1.4435e-06
136.75
1.44238e-06
136.752
1.44425e-06
136.753
1.44656e-06
136.755
1.44785e-06
136.756
1.4481e-06
136.756
1.44766e-06
136.756
1.44624e-06
136.755
1.4438e-06
136.754
1.44204e-06
136.751
1.4371e-06
136.747
1.43239e-06
136.742
1.42826e-06
136.736
1.42202e-06
136.728
1.41835e-06
136.719
1.4116e-06
136.709
1.40924e-06
136.697
1.40086e-06
136.684
1.4066e-06
136.67
1.40113e-06
136.656
1.40345e-06
136.64
1.40474e-06
136.624
1.41123e-06
136.608
1.42114e-06
136.593
1.49191e-06
136.577
1.37155e-06
136.562
1.44666e-06
136.548
1.45986e-06
136.534
1.47852e-06
136.52
1.48693e-06
136.507
1.5042e-06
136.495
1.50885e-06
136.482
1.52475e-06
136.469
1.52497e-06
136.457
1.53724e-06
136.444
1.53271e-06
136.43
1.54575e-06
136.417
1.53463e-06
136.403
1.55188e-06
136.388
1.54044e-06
136.374
1.54239e-06
136.36
1.57859e-06
136.345
1.54229e-06
136.33
1.97735e-06
136.315
3.98519e-06
136.299
1.9619e-05
136.282
0.000130031
136.263
0.000919901
136.241
0.00658748
136.205
0.0473839
136.037
0.378989
1.62709
135.481
11.5885
-0.000327813
11.586
-0.000234815
11.5836
-0.000225595
11.5811
-0.000227222
11.5787
-0.000227742
11.5763
-0.000227596
11.5738
-0.000227599
11.5714
-0.000227655
11.5689
-0.000227711
11.5665
-0.000227772
11.5641
-0.000227849
11.5617
-0.000227956
11.5593
-0.000228033
11.5569
-0.00022817
11.5546
-0.000228299
11.5522
-0.000228435
11.55
-0.000228573
11.5477
-0.000228708
11.5454
-0.000228836
11.5432
-0.000228955
11.541
-0.000229063
11.5388
-0.000229156
11.5366
-0.000229227
11.5345
-0.000229267
11.5324
-0.000229261
11.5303
-0.000229183
11.5283
-0.000228998
11.5263
-0.000228653
11.5244
-0.000228078
11.5225
-0.000227179
11.5206
-0.000225844
11.5188
-0.00022394
11.517
-0.00022132
11.5152
-0.000217833
11.5134
-0.000213333
11.5116
-0.000207692
11.5098
-0.000200816
11.5079
-0.000192657
11.5061
-0.000183224
11.5043
-0.000172589
11.5024
-0.000160888
11.5005
-0.000148316
11.4986
-0.000135116
11.4966
-0.000121567
11.4946
-0.00010796
11.4925
-9.45875e-05
11.4904
-8.17169e-05
11.4882
-6.95812e-05
11.486
-5.83658e-05
11.4837
-4.82027e-05
11.4814
-3.91687e-05
11.4791
-3.12882e-05
11.4766
-2.45399e-05
11.4742
-1.88648e-05
11.4717
-1.41762e-05
11.4692
-1.03696e-05
11.4667
-7.33161e-06
11.4642
-4.94753e-06
11.4616
-3.10721e-06
11.4591
-1.709e-06
11.4566
-6.61803e-07
11.4541
1.05832e-07
11.4517
6.60819e-07
11.4493
1.05598e-06
11.4469
1.3325e-06
11.4446
1.52298e-06
11.4424
1.65177e-06
11.4402
1.73714e-06
11.4381
1.79248e-06
11.4361
1.82714e-06
11.4342
1.84786e-06
11.4324
1.85915e-06
11.4306
1.86406e-06
11.4289
1.8647e-06
11.4273
1.86237e-06
11.4258
1.85791e-06
11.4243
1.85189e-06
11.4229
1.84467e-06
11.4216
1.83651e-06
11.4203
1.82776e-06
11.419
1.82011e-06
11.4179
1.8067e-06
11.4167
1.79614e-06
11.4156
1.78645e-06
11.4145
1.77659e-06
11.4134
1.76541e-06
11.4124
1.75382e-06
11.4114
1.74272e-06
11.4104
1.73303e-06
11.4094
1.72447e-06
11.4084
1.71564e-06
11.4074
1.70737e-06
11.4065
1.69924e-06
11.4056
1.69167e-06
11.4047
1.68378e-06
11.4039
1.67635e-06
11.4031
1.67022e-06
11.4023
1.66583e-06
11.4016
1.66291e-06
11.4009
1.66221e-06
11.4003
1.6658e-06
11.3998
1.65463e-06
11.3993
1.65842e-06
11.3989
1.66147e-06
11.3985
1.66273e-06
11.3983
1.66334e-06
11.398
1.66396e-06
11.3979
1.66604e-06
11.3978
1.66655e-06
11.3977
1.66682e-06
11.3978
1.66891e-06
11.3978
1.66684e-06
11.3979
1.66769e-06
11.398
1.66726e-06
11.3982
1.66616e-06
11.3983
1.66438e-06
11.3985
1.66189e-06
11.3986
1.65885e-06
11.3988
1.65505e-06
11.3989
1.65075e-06
11.3991
1.64594e-06
11.3991
1.64036e-06
11.3992
1.63453e-06
11.3992
1.63042e-06
11.3991
1.62416e-06
11.3991
1.61535e-06
11.3989
1.61076e-06
11.3987
1.60722e-06
11.3985
1.60219e-06
11.3983
1.59732e-06
11.398
1.59362e-06
11.3976
1.59217e-06
11.3973
1.59213e-06
11.397
1.59332e-06
11.3967
1.59567e-06
11.3964
1.5991e-06
11.3961
1.60367e-06
11.3958
1.60923e-06
11.3956
1.61558e-06
11.3954
1.62255e-06
11.3953
1.62832e-06
11.3952
1.63499e-06
11.3952
1.64518e-06
11.3952
1.65295e-06
11.3953
1.65978e-06
11.3953
1.66532e-06
11.3954
1.66944e-06
11.3956
1.68057e-06
11.3957
1.68354e-06
11.3958
1.68201e-06
11.396
1.68462e-06
11.3961
1.68727e-06
11.3962
1.68874e-06
11.3963
1.68908e-06
11.3963
1.6885e-06
11.3963
1.68695e-06
11.3963
1.68378e-06
11.3961
1.68234e-06
11.3959
1.67585e-06
11.3956
1.67102e-06
11.3952
1.66552e-06
11.3947
1.65913e-06
11.394
1.65366e-06
11.3933
1.64736e-06
11.3924
1.643e-06
11.3914
1.63735e-06
11.3904
1.63729e-06
11.3892
1.63477e-06
11.388
1.6362e-06
11.3867
1.63895e-06
11.3854
1.64518e-06
11.384
1.65442e-06
11.3827
1.70021e-06
11.3814
1.63967e-06
11.3802
1.68964e-06
11.379
1.70508e-06
11.3778
1.72254e-06
11.3767
1.73626e-06
11.3756
1.75217e-06
11.3745
1.76264e-06
11.3735
1.77543e-06
11.3725
1.78144e-06
11.3714
1.78991e-06
11.3703
1.79148e-06
11.3692
1.79804e-06
11.368
1.79588e-06
11.3669
1.80322e-06
11.3657
1.80084e-06
11.3645
1.80333e-06
11.3633
1.81728e-06
11.3621
1.80644e-06
11.3608
1.95431e-06
11.3596
2.63593e-06
11.3582
7.95111e-06
11.3569
4.56215e-05
11.356
0.000314502
11.3586
0.00226294
11.3873
0.0168761
11.5794
0.184944
0.703049
12.5014
5.79387
5.79238
5.79092
5.78946
5.788
5.78654
5.78507
5.7836
5.78214
5.78067
5.77922
5.77777
5.77634
5.77491
5.7735
5.77209
5.7707
5.76932
5.76795
5.76659
5.76524
5.7639
5.76258
5.76126
5.75996
5.75868
5.75742
5.75619
5.75498
5.7538
5.75262
5.75146
5.75032
5.74918
5.74805
5.74692
5.7458
5.74469
5.74358
5.74248
5.74137
5.74026
5.73915
5.73804
5.73691
5.73578
5.73464
5.73348
5.73231
5.73112
5.72992
5.7287
5.72747
5.72622
5.72497
5.7237
5.72244
5.72116
5.71989
5.71863
5.71737
5.71613
5.71491
5.71371
5.71254
5.7114
5.71028
5.70921
5.70817
5.70717
5.70621
5.70528
5.7044
5.70356
5.70276
5.70199
5.70126
5.70056
5.6999
5.69926
5.69864
5.69805
5.69747
5.69692
5.69637
5.69585
5.69533
5.69482
5.69432
5.69382
5.69334
5.69287
5.6924
5.69195
5.69151
5.69109
5.69069
5.69031
5.68996
5.68963
5.68933
5.68906
5.68882
5.68861
5.68844
5.6883
5.68819
5.68812
5.68807
5.68805
5.68806
5.68809
5.68813
5.68819
5.68827
5.68835
5.68843
5.68852
5.6886
5.68867
5.68873
5.68877
5.6888
5.6888
5.68878
5.68874
5.68867
5.68858
5.68847
5.68834
5.6882
5.68804
5.68788
5.68772
5.68756
5.68741
5.68727
5.68715
5.68704
5.68696
5.6869
5.68686
5.68685
5.68686
5.68688
5.68692
5.68698
5.68704
5.68711
5.68718
5.68725
5.68731
5.68737
5.68741
5.68743
5.68743
5.6874
5.68734
5.68723
5.68708
5.68687
5.68661
5.6863
5.68592
5.68549
5.685
5.68447
5.68389
5.68328
5.68264
5.68198
5.68132
5.68066
5.68002
5.67939
5.67879
5.67821
5.67765
5.67711
5.67659
5.67607
5.67555
5.67502
5.67448
5.67392
5.67335
5.67277
5.67218
5.67159
5.67099
5.67038
5.66977
5.66913
5.66847
5.6678
5.66735
5.66878
5.68475
5.86872
6.57072
5.00135
0.124322
5.00901
-0.00792995
5.00638
0.00234346
5.01228
-0.00617851
5.02654
-0.0145352
5.03683
-0.0105878
5.03282
0.00371854
5.046
-0.0135229
5.17136
-0.125576
5.3981
-0.227343
5.62219
-0.225265
5.6904
-0.0700639
5.62799
0.0612021
5.50261
0.12465
5.33558
0.166426
5.17783
0.157232
5.15216
0.0254432
5.46105
-0.307455
6.12147
-0.65902
-1.2255
7.34702
10.4643
0.175695
10.4838
-0.0279725
10.5327
-0.0471387
10.5903
-0.0642639
10.6587
-0.0835252
10.7214
-0.0738128
10.7554
-0.0308317
10.8094
-0.0682369
11.0743
-0.390921
11.5492
-0.703494
12.0574
-0.73581
12.2977
-0.314008
12.2799
0.0768384
12.1078
0.295527
11.7918
0.481472
11.3907
0.557561
11.1031
0.312508
11.3732
-0.574197
12.2228
-1.50649
-3.12498
14.1219
135.529
0.122695
135.599
-0.102915
135.599
-0.0525192
135.435
0.0947574
135.119
0.227989
134.724
0.315958
134.321
0.368408
133.888
0.35862
133.101
0.39153
132.03
0.362548
130.932
0.359239
130.288
0.328968
130.065
0.295788
130.092
0.262074
130.339
0.228481
130.695
0.194141
130.842
0.157388
130.144
0.113437
128.587
0.0437276
-0.157171
125.614
12.4453
0.178474
12.3485
-0.00648413
12.3033
-0.00764018
12.3741
0.0236527
12.5456
0.0559978
12.7795
0.0815314
13.0477
0.0992997
13.3057
0.100871
13.5862
0.110311
13.8444
0.10442
14.102
0.101447
14.3397
0.0909643
14.5576
0.0776809
14.756
0.0634494
14.9353
0.0489013
15.0956
0.033631
15.2374
0.0153764
15.3634
-0.0127617
15.4759
-0.0689146
-0.246247
15.5647
6.74905
6.74241
6.73461
6.75809
6.81388
6.89515
6.99411
7.09497
7.20503
7.30944
7.4108
7.50165
7.57921
7.64255
7.69135
7.72489
7.74018
7.72733
7.6583
7.41194
7.7282
-0.38696
7.5187
0.20789
7.60474
-0.0852488
7.77647
-0.171636
7.84747
-0.0717712
7.84389
0.00323569
7.82326
0.0202827
7.81527
0.00749668
7.81861
-0.00391627
7.82016
-0.00219167
7.81807
0.00143591
7.81447
0.0028673
7.81121
0.00244192
7.80896
0.00137121
7.80754
0.000516699
7.8066
-1.9866e-05
7.80592
-0.000308077
7.80525
-0.000346622
7.8044
-0.000177381
7.80329
4.50275e-05
7.80246
-0.000227726
7.80357
-0.00218823
7.80651
-0.00403654
7.80904
-0.00365756
7.80938
-0.0014965
7.80728
0.000938771
7.80447
0.00165174
7.80126
0.00204588
7.79782
0.00225327
7.79431
0.00231882
7.79091
0.00221016
7.78791
0.00182195
7.78562
0.00112095
7.7842
0.000257698
7.7836
-0.000546543
7.78339
-0.000932226
7.78299
-0.000715519
7.78188
2.41332e-05
7.77985
0.000977616
7.77702
0.00182539
7.77398
0.00207909
7.77206
0.00101535
7.77198
-0.000765307
7.77267
-0.0015113
7.7719
-3.22312e-05
7.76721
0.00389832
7.75658
0.00985347
7.73874
0.017122
7.71299
0.0250718
7.679
0.0333532
7.63656
0.0418245
7.58538
0.050576
7.5249
0.0598776
7.45423
0.0700625
7.37218
0.0813828
7.27722
0.0939805
7.1679
0.107163
7.04501
0.120322
6.91065
0.132766
6.76724
0.142479
6.61887
0.147944
6.47093
0.149074
6.32781
0.143856
6.19412
0.133635
6.07402
0.119469
5.9701
0.102953
5.88321
0.0857886
5.81267
0.0692903
5.75685
0.054544
5.71364
0.0419456
5.68074
0.0316264
5.65602
0.023445
5.6376
0.0171276
5.62394
0.0123533
5.61382
0.00880689
5.60629
0.00621706
5.60063
0.00434504
5.5963
0.00300924
5.59292
0.00206614
5.59022
0.00140657
5.58799
0.000949546
5.58609
0.000635668
5.58444
0.000421971
5.58295
0.000277724
5.5816
0.000181182
5.58035
0.000117117
5.57918
7.49636e-05
5.57809
4.74645e-05
5.57706
2.96785e-05
5.57609
1.82734e-05
5.57518
1.10229e-05
5.57432
6.45351e-06
5.57351
3.59851e-06
5.57276
1.83002e-06
5.57205
7.44303e-07
5.57139
8.45957e-08
5.57078
-3.14069e-07
5.5702
-5.5067e-07
5.56966
-6.90807e-07
5.56915
-7.7221e-07
5.56867
-8.18938e-07
5.56821
-8.45104e-07
5.56776
-8.59218e-07
5.56732
-8.66388e-07
5.56688
-8.69502e-07
5.56644
-8.70117e-07
5.56599
-8.69006e-07
5.56552
-8.66583e-07
5.56503
-8.63225e-07
5.56452
-8.59214e-07
5.56397
-8.54559e-07
5.56338
-8.49173e-07
5.56275
-8.43067e-07
5.56208
-8.36828e-07
5.56137
-8.30894e-07
5.5606
-8.25279e-07
5.55979
-8.19782e-07
5.55893
-8.14292e-07
5.55802
-8.08797e-07
5.55707
-8.03419e-07
5.55608
-7.98338e-07
5.55504
-7.938e-07
5.55398
-7.89956e-07
5.55288
-7.86873e-07
5.55177
-7.84583e-07
5.55063
-7.83137e-07
5.54949
-7.82582e-07
5.54834
-7.83008e-07
5.54719
-7.84461e-07
5.54605
-7.86968e-07
5.54492
-7.90458e-07
5.54381
-7.94716e-07
5.54273
-7.99511e-07
5.54167
-8.04986e-07
5.54065
-8.10889e-07
5.53966
-8.16202e-07
5.5387
-8.21195e-07
5.53779
-8.26125e-07
5.53692
-8.31906e-07
5.53609
-8.38349e-07
5.5353
-8.44509e-07
5.53455
-8.49972e-07
5.53384
-8.54809e-07
5.53316
-8.58994e-07
5.53253
-8.6251e-07
5.53192
-8.65455e-07
5.53135
-8.67725e-07
5.5308
-8.69435e-07
5.53028
-8.70445e-07
5.52978
-8.70714e-07
5.5293
-8.7015e-07
5.52882
-8.68655e-07
5.52835
-8.66177e-07
5.52788
-8.62719e-07
5.5274
-8.58237e-07
5.5269
-8.52724e-07
5.52639
-8.46161e-07
5.52585
-8.38487e-07
5.52527
-8.29954e-07
5.52466
-8.2203e-07
5.524
-8.08401e-07
5.52329
-7.96119e-07
5.52253
-7.83662e-07
5.52171
-7.72239e-07
5.52084
-7.6033e-07
5.51991
-7.48027e-07
5.51892
-7.35488e-07
5.51789
-7.24354e-07
5.5168
-7.11791e-07
5.51567
-7.02647e-07
5.51451
-6.93175e-07
5.51332
-6.86314e-07
5.5121
-6.79967e-07
5.51088
-6.76473e-07
5.50966
-6.73323e-07
5.50845
-6.74077e-07
5.50725
-6.75125e-07
5.50609
-6.78065e-07
5.50497
-6.82718e-07
5.5039
-6.8898e-07
5.50288
-6.95183e-07
5.50192
-7.02483e-07
5.50102
-7.08302e-07
5.50018
-7.30946e-07
5.49941
-7.06043e-07
5.4987
-7.4202e-07
5.49805
-7.13173e-07
5.49746
-7.58238e-07
5.49693
-7.26013e-07
5.49645
-8.06906e-07
5.49602
-9.41431e-07
5.49565
-1.91339e-06
5.49533
-6.65087e-06
5.49509
-3.13436e-05
5.49504
-0.000158409
5.4957
-0.000816171
5.49985
-0.00425205
5.52274
-0.0229369
5.68994
-0.167187
-0.64938
6.33938
15.1777
-1.45455
14.7316
0.650988
14.6889
-0.0412377
14.9251
-0.407621
15.0772
-0.225438
15.0895
-0.00969725
15.0446
0.0644722
15.0177
0.0333999
15.0181
-0.00547947
15.0208
-0.00612734
15.0167
0.00419828
15.0083
0.00977225
14.9997
0.00943173
14.9927
0.00659939
14.9873
0.00408339
14.983
0.00236631
14.9793
0.00138434
14.9757
0.00126794
14.9715
0.00194648
14.9664
0.00303607
14.961
0.00297946
14.9594
-0.00274897
14.9634
-0.0102311
14.97
-0.0124573
14.9746
-0.00840312
14.9744
-0.00113937
14.9715
0.00217756
14.9667
0.00454083
14.9603
0.00630084
14.9526
0.00766159
14.9439
0.00852345
14.9348
0.00848436
14.9263
0.00727701
14.919
0.00526727
14.9129
0.0032456
14.907
0.00263798
14.8999
0.00414039
14.8901
0.0076146
14.8768
0.0122136
14.8596
0.0169616
14.8398
0.0200244
14.8209
0.0181281
14.8063
0.0120761
14.7957
0.00731939
14.7861
0.00799546
14.7725
0.0158048
14.7503
0.030548
14.7157
0.05033
14.6662
0.0732423
14.6003
0.097932
14.5174
0.123558
14.4168
0.149916
14.2982
0.177306
14.1608
0.206212
14.0038
0.236898
13.826
0.269013
13.6284
0.300903
13.4144
0.33147
13.1879
0.357459
12.9538
0.375147
12.7194
0.382282
12.492
0.377609
12.2769
0.358934
12.0801
0.329392
11.9061
0.291889
11.757
0.250129
11.6327
0.20783
11.5318
0.167902
11.4516
0.132366
11.3889
0.102145
11.3407
0.0773588
11.304
0.0576413
11.2762
0.0423388
11.2552
0.0307038
11.2394
0.0220131
11.2274
0.0156134
11.2181
0.0109634
11.2109
0.0076251
11.2051
0.00525465
11.2003
0.00358859
11.1963
0.0024291
11.1927
0.00162983
11.1896
0.00108399
11.1868
0.000714646
11.1841
0.000466994
11.1817
0.000302439
11.1794
0.000194083
11.1772
0.000123373
11.1752
7.76434e-05
11.1732
4.83338e-05
11.1714
2.97163e-05
11.1697
1.79963e-05
11.1681
1.06837e-05
11.1666
6.16137e-06
11.1652
3.39043e-06
11.1638
1.70874e-06
11.1626
6.94661e-07
11.1615
9.19119e-08
11.1604
-2.65817e-07
11.1593
-4.74342e-07
11.1584
-5.95144e-07
11.1575
-6.6409e-07
11.1566
-7.02757e-07
11.1557
-7.23928e-07
11.1548
-7.35033e-07
11.1539
-7.40262e-07
11.153
-7.41915e-07
11.1521
-7.41274e-07
11.1511
-7.39165e-07
11.1501
-7.36146e-07
11.149
-7.32391e-07
11.1478
-7.27877e-07
11.1465
-7.22743e-07
11.1452
-7.17425e-07
11.1437
-7.12343e-07
11.1422
-7.07536e-07
11.1406
-7.02834e-07
11.1389
-6.98125e-07
11.137
-6.93418e-07
11.1351
-6.88808e-07
11.1331
-6.84466e-07
11.1311
-6.80568e-07
11.129
-6.77261e-07
11.1268
-6.74609e-07
11.1245
-6.72647e-07
11.1223
-6.71407e-07
11.12
-6.7094e-07
11.1177
-6.713e-07
11.1154
-6.72545e-07
11.1131
-6.74691e-07
11.1108
-6.77679e-07
11.1086
-6.81338e-07
11.1064
-6.85471e-07
11.1043
-6.9013e-07
11.1023
-6.95209e-07
11.1003
-6.99869e-07
11.0984
-7.04017e-07
11.0965
-7.08338e-07
11.0948
-7.13285e-07
11.0931
-7.18752e-07
11.0916
-7.24052e-07
11.09
-7.28741e-07
11.0886
-7.32885e-07
11.0873
-7.36472e-07
11.086
-7.39486e-07
11.0848
-7.41992e-07
11.0836
-7.43968e-07
11.0825
-7.45396e-07
11.0815
-7.46263e-07
11.0805
-7.46483e-07
11.0795
-7.45991e-07
11.0786
-7.44713e-07
11.0776
-7.42585e-07
11.0767
-7.39628e-07
11.0757
-7.35791e-07
11.0747
-7.3107e-07
11.0737
-7.25438e-07
11.0726
-7.18871e-07
11.0715
-7.11602e-07
11.0702
-7.04392e-07
11.0689
-6.93571e-07
11.0675
-6.82645e-07
11.066
-6.71637e-07
11.0643
-6.62257e-07
11.0626
-6.51758e-07
11.0607
-6.41444e-07
11.0588
-6.30594e-07
11.0567
-6.22165e-07
11.0545
-6.09063e-07
11.0522
-6.02835e-07
11.0499
-5.93882e-07
11.0475
-5.88819e-07
11.0451
-5.82313e-07
11.0427
-5.80625e-07
11.0402
-5.76062e-07
11.0378
-5.79145e-07
11.0354
-5.79004e-07
11.0331
-5.81264e-07
11.0308
-5.8513e-07
11.0287
-5.91296e-07
11.0266
-5.95602e-07
11.0247
-6.01908e-07
11.0229
-6.0344e-07
11.0212
-6.39807e-07
11.0197
-5.77811e-07
11.0183
-6.74078e-07
11.017
-5.7144e-07
11.0158
-6.95031e-07
11.0147
-5.95275e-07
11.0138
-8.27984e-07
11.0129
-1.22425e-06
11.0122
-4.08188e-06
11.0115
-1.80209e-05
11.011
-9.06441e-05
11.0109
-0.000464265
11.0122
-0.00239498
11.0201
-0.0123857
11.0616
-0.0644976
11.2545
-0.360031
-1.48628
12.0915
124.141
0.0259531
124.784
0.00455512
124.666
0.0694101
124.19
0.057864
123.941
0.0144691
123.942
-0.019535
124.01
-0.0131524
124.037
-0.00554528
124.025
-0.00708193
124.013
-0.00908364
124.009
-0.00873761
124.008
-0.00727688
124.004
-0.00600034
123.995
-0.00518847
123.982
-0.00455589
123.965
-0.00395404
123.946
-0.00335961
123.926
-0.00271942
123.905
-0.00195363
123.884
-0.00108317
123.861
-0.000294293
123.832
9.76992e-05
123.796
-0.000209485
123.757
-0.000918159
123.723
-0.00134863
123.695
-0.00119546
123.67
-0.000787988
123.647
-0.000431532
123.624
-0.000194639
123.603
-6.2711e-05
123.583
-1.38343e-06
123.563
1.55667e-05
123.541
-9.38503e-05
123.519
-0.000713766
123.496
-0.00210176
123.475
-0.00436409
123.459
-0.00676386
123.45
-0.00919247
123.449
-0.0116543
123.457
-0.0145734
123.476
-0.0188964
123.506
-0.0262259
123.545
-0.0390157
123.599
-0.0582991
123.678
-0.0834824
123.794
-0.113713
123.958
-0.148159
124.18
-0.186016
124.465
-0.226163
124.815
-0.266831
125.229
-0.305454
125.703
-0.338939
126.23
-0.364245
126.801
-0.378955
127.406
-0.382965
128.037
-0.376934
128.685
-0.362283
129.342
-0.340768
129.998
-0.314431
130.641
-0.28452
131.258
-0.252035
131.834
-0.218572
132.358
-0.185801
132.82
-0.155034
133.215
-0.127103
133.543
-0.102479
133.806
-0.081404
134.011
-0.0637815
134.165
-0.0493408
134.276
-0.0376992
134.353
-0.0284554
134.402
-0.0212181
134.429
-0.0156334
134.441
-0.0113797
134.44
-0.00818299
134.43
-0.00581421
134.413
-0.00408235
134.392
-0.00283267
134.368
-0.00194251
134.342
-0.00131658
134.314
-0.000881997
134.286
-0.000584027
134.258
-0.000382235
134.23
-0.00024724
134.203
-0.000158017
134.176
-9.97527e-05
134.15
-6.21556e-05
134.125
-3.8181e-05
134.101
-2.30724e-05
134.078
-1.36625e-05
134.056
-7.86997e-06
134.036
-4.34542e-06
134.017
-2.22557e-06
133.999
-9.6614e-07
133.982
-2.27508e-07
133.966
2.02941e-07
133.951
4.4844e-07
133.937
5.87608e-07
133.924
6.65028e-07
133.912
7.0741e-07
133.901
7.29948e-07