/*--------------------------------*- C++ -*----------------------------------*\
| =========                 |                                                 |
| \\      /  F ield         | OpenFOAM: The Open Source CFD Toolbox           |
|  \\    /   O peration     | Version:  3.0.x                                 |
|   \\  /    A nd           | Web:      www.OpenFOAM.org                      |
|    \\/     M anipulation  |                                                 |
\*---------------------------------------------------------------------------*/
FoamFile
{
    version     2.0;
    format      ascii;
    class       volScalarField;
    location    "0.26";
    object      T;
}
// * * * * * * * * * * * * * * * * * * * * * * * * * * * * * * * * * * * * * //

dimensions      [0 0 0 1 0 0 0];

internalField   nonuniform List<scalar> 
6900
(
774.398
774.397
774.394
774.391
774.388
774.385
774.384
774.383
774.382
774.381
774.38
774.379
774.376
774.373
774.37
774.366
774.362
774.357
774.353
774.348
774.345
774.341
774.338
774.336
774.335
774.334
774.332
774.33
774.326
774.322
774.318
774.314
774.31
774.307
774.304
774.302
774.3
774.298
774.296
774.295
774.293
774.291
774.29
774.288
774.286
774.284
774.283
774.281
774.279
774.277
774.275
774.274
774.272
774.27
774.268
774.266
774.265
774.263
774.261
774.259
774.257
774.256
774.254
774.252
774.25
774.249
774.247
774.245
774.243
774.242
774.24
774.238
774.237
774.235
774.233
774.232
774.23
774.229
774.227
774.226
774.225
774.223
774.222
774.221
774.22
774.219
774.218
774.217
774.217
774.216
774.215
774.215
774.214
774.214
774.214
774.213
774.213
774.213
774.212
774.212
774.212
774.212
774.212
774.211
774.211
774.211
774.211
774.21
774.21
774.21
774.21
774.209
774.209
774.209
774.208
774.208
774.208
774.208
774.207
774.207
774.207
774.207
774.207
774.207
774.207
774.207
774.207
774.207
774.207
774.208
774.208
774.208
774.208
774.209
774.209
774.209
774.209
774.21
774.21
774.21
774.21
774.21
774.21
774.21
774.209
774.209
774.209
774.208
774.208
774.208
774.207
774.207
774.206
774.206
774.205
774.205
774.204
774.204
774.203
774.203
774.203
774.202
774.202
774.202
774.202
774.202
774.201
774.201
774.201
774.201
774.201
774.201
774.2
774.2
774.199
774.199
774.198
774.197
774.196
774.195
774.193
774.192
774.191
774.189
774.188
774.186
774.185
774.183
774.181
774.18
774.178
774.177
774.174
774.173
774.171
774.17
774.168
774.168
774.166
774.234
774.396
774.395
774.393
774.389
774.386
774.383
774.382
774.381
774.38
774.379
774.379
774.377
774.375
774.372
774.368
774.364
774.36
774.356
774.351
774.347
774.343
774.34
774.337
774.335
774.333
774.332
774.331
774.328
774.325
774.321
774.316
774.312
774.309
774.305
774.303
774.301
774.299
774.297
774.295
774.293
774.292
774.29
774.288
774.287
774.285
774.283
774.281
774.28
774.278
774.276
774.274
774.272
774.271
774.269
774.267
774.265
774.263
774.261
774.26
774.258
774.256
774.254
774.253
774.251
774.249
774.247
774.246
774.244
774.242
774.24
774.239
774.237
774.235
774.234
774.232
774.231
774.229
774.228
774.226
774.225
774.223
774.222
774.221
774.22
774.219
774.218
774.217
774.216
774.215
774.215
774.214
774.214
774.213
774.213
774.212
774.212
774.212
774.211
774.211
774.211
774.211
774.211
774.21
774.21
774.21
774.21
774.209
774.209
774.209
774.209
774.208
774.208
774.208
774.207
774.207
774.207
774.207
774.206
774.206
774.206
774.206
774.206
774.206
774.206
774.206
774.206
774.206
774.206
774.206
774.206
774.207
774.207
774.207
774.208
774.208
774.208
774.208
774.208
774.209
774.209
774.209
774.209
774.208
774.208
774.208
774.208
774.208
774.207
774.207
774.206
774.206
774.206
774.205
774.205
774.204
774.204
774.203
774.203
774.202
774.202
774.202
774.201
774.201
774.201
774.201
774.2
774.2
774.2
774.2
774.2
774.2
774.2
774.199
774.199
774.198
774.198
774.197
774.196
774.195
774.194
774.192
774.191
774.19
774.188
774.187
774.185
774.183
774.182
774.18
774.179
774.177
774.175
774.173
774.172
774.17
774.169
774.167
774.166
774.165
774.227
774.396
774.395
774.393
774.389
774.386
774.383
774.382
774.381
774.38
774.379
774.379
774.377
774.375
774.372
774.368
774.364
774.36
774.356
774.351
774.347
774.343
774.34
774.337
774.335
774.333
774.332
774.331
774.328
774.325
774.321
774.316
774.312
774.309
774.305
774.303
774.301
774.299
774.297
774.295
774.293
774.292
774.29
774.288
774.287
774.285
774.283
774.281
774.28
774.278
774.276
774.274
774.272
774.271
774.269
774.267
774.265
774.263
774.261
774.26
774.258
774.256
774.254
774.253
774.251
774.249
774.247
774.246
774.244
774.242
774.24
774.239
774.237
774.235
774.234
774.232
774.231
774.229
774.228
774.226
774.225
774.223
774.222
774.221
774.22
774.219
774.218
774.217
774.216
774.215
774.215
774.214
774.214
774.213
774.213
774.212
774.212
774.212
774.211
774.211
774.211
774.211
774.211
774.21
774.21
774.21
774.21
774.209
774.209
774.209
774.209
774.208
774.208
774.208
774.207
774.207
774.207
774.207
774.206
774.206
774.206
774.206
774.206
774.206
774.206
774.206
774.206
774.206
774.206
774.206
774.206
774.207
774.207
774.207
774.208
774.208
774.208
774.208
774.208
774.209
774.209
774.209
774.209
774.208
774.208
774.208
774.208
774.208
774.207
774.207
774.206
774.206
774.206
774.205
774.205
774.204
774.204
774.203
774.203
774.202
774.202
774.202
774.201
774.201
774.201
774.201
774.2
774.2
774.2
774.2
774.2
774.2
774.2
774.199
774.199
774.198
774.198
774.197
774.196
774.195
774.194
774.192
774.191
774.19
774.188
774.187
774.185
774.184
774.182
774.18
774.179
774.177
774.175
774.173
774.172
774.17
774.169
774.167
774.166
774.164
774.167
774.396
774.395
774.393
774.389
774.386
774.383
774.382
774.381
774.38
774.379
774.379
774.377
774.375
774.372
774.368
774.364
774.36
774.356
774.351
774.347
774.343
774.34
774.337
774.335
774.333
774.332
774.331
774.328
774.325
774.321
774.316
774.312
774.309
774.305
774.303
774.301
774.299
774.297
774.295
774.293
774.292
774.29
774.288
774.287
774.285
774.283
774.281
774.28
774.278
774.276
774.274
774.272
774.271
774.269
774.267
774.265
774.263
774.261
774.26
774.258
774.256
774.254
774.253
774.251
774.249
774.247
774.246
774.244
774.242
774.24
774.239
774.237
774.235
774.234
774.232
774.231
774.229
774.228
774.226
774.225
774.223
774.222
774.221
774.22
774.219
774.218
774.217
774.216
774.215
774.215
774.214
774.214
774.213
774.213
774.212
774.212
774.212
774.211
774.211
774.211
774.211
774.211
774.21
774.21
774.21
774.21
774.209
774.209
774.209
774.209
774.208
774.208
774.208
774.207
774.207
774.207
774.207
774.206
774.206
774.206
774.206
774.206
774.206
774.206
774.206
774.206
774.206
774.206
774.206
774.206
774.207
774.207
774.207
774.208
774.208
774.208
774.208
774.208
774.209
774.209
774.209
774.209
774.208
774.208
774.208
774.208
774.208
774.207
774.207
774.206
774.206
774.206
774.205
774.205
774.204
774.204
774.203
774.203
774.202
774.202
774.202
774.201
774.201
774.201
774.201
774.2
774.2
774.2
774.2
774.2
774.2
774.199
774.199
774.199
774.198
774.197
774.197
774.196
774.195
774.194
774.192
774.191
774.19
774.188
774.187
774.185
774.184
774.182
774.181
774.178
774.177
774.175
774.174
774.172
774.17
774.168
774.167
774.163
774.166
774.042
774.398
774.397
774.394
774.391
774.388
774.385
774.384
774.383
774.382
774.381
774.38
774.379
774.376
774.373
774.37
774.366
774.362
774.357
774.353
774.348
774.345
774.341
774.338
774.336
774.335
774.334
774.332
774.33
774.326
774.322
774.318
774.314
774.31
774.307
774.304
774.302
774.3
774.298
774.296
774.295
774.293
774.291
774.29
774.288
774.286
774.284
774.283
774.281
774.279
774.277
774.275
774.274
774.272
774.27
774.268
774.266
774.265
774.263
774.261
774.259
774.257
774.256
774.254
774.252
774.25
774.249
774.247
774.245
774.243
774.242
774.24
774.238
774.237
774.235
774.233
774.232
774.23
774.229
774.227
774.226
774.225
774.223
774.222
774.221
774.22
774.219
774.218
774.217
774.217
774.216
774.215
774.215
774.214
774.214
774.214
774.213
774.213
774.213
774.212
774.212
774.212
774.212
774.212
774.211
774.211
774.211
774.211
774.21
774.21
774.21
774.21
774.209
774.209
774.209
774.208
774.208
774.208
774.208
774.207
774.207
774.207
774.207
774.207
774.207
774.207
774.207
774.207
774.207
774.207
774.208
774.208
774.208
774.208
774.209
774.209
774.209
774.209
774.21
774.21
774.21
774.21
774.21
774.21
774.21
774.209
774.209
774.209
774.208
774.208
774.208
774.207
774.207
774.206
774.206
774.205
774.205
774.204
774.204
774.204
774.203
774.203
774.202
774.202
774.202
774.202
774.202
774.201
774.201
774.201
774.201
774.201
774.201
774.2
774.2
774.199
774.199
774.198
774.197
774.196
774.195
774.194
774.192
774.191
774.189
774.188
774.186
774.185
774.183
774.182
774.18
774.178
774.176
774.175
774.173
774.172
774.169
774.168
774.163
774.175
773.957
774.218
774.231
774.229
774.228
774.225
774.224
774.224
774.223
774.214
774.203
774.191
774.166
774.146
774.145
774.152
774.165
774.162
774.127
774.05
773.978
774.205
774.208
774.206
774.202
774.197
774.193
774.192
774.188
774.175
774.163
774.153
774.127
774.094
774.088
774.098
774.112
774.114
774.062
773.986
773.933
774.166
774.165
774.162
774.158
774.152
774.145
774.137
774.13
774.123
774.116
774.11
774.1
774.089
774.082
774.075
774.067
774.062
774.067
774.076
774.076
774.095
774.096
774.102
774.101
774.095
774.081
774.066
774.043
774.029
774.008
773.988
773.972
773.952
773.938
773.927
773.915
773.901
773.892
773.881
773.87
774.043
774.022
774.02
774.021
774.021
774.017
774.005
773.99
773.976
773.962
773.945
773.935
773.918
773.91
773.895
773.891
773.88
773.879
773.884
773.909
773.828
773.85
773.839
773.836
773.854
773.837
773.82
773.819
773.824
773.825
773.822
773.818
773.817
773.816
773.815
773.813
773.812
773.81
773.809
773.808
773.806
773.804
773.803
773.801
773.8
773.799
773.797
773.795
773.793
773.792
773.791
773.79
773.788
773.785
773.783
773.782
773.782
773.782
773.782
773.782
773.782
773.781
773.776
773.773
773.773
773.774
773.779
773.783
773.785
773.787
773.788
773.789
773.789
773.791
773.794
773.813
773.905
774.128
774.279
774.323
774.304
774.164
773.92
773.767
773.695
773.672
773.671
773.679
773.695
773.705
773.71
773.713
773.715
773.715
773.715
773.715
773.714
773.712
773.711
773.71
773.709
773.708
773.706
773.705
773.704
773.702
773.701
773.7
773.698
773.697
773.695
773.694
773.693
773.691
773.69
773.688
773.687
773.685
773.684
773.682
773.681
773.679
773.678
773.676
773.675
773.673
773.672
773.671
773.669
773.668
773.666
773.665
773.664
773.662
773.661
773.66
773.659
773.657
773.656
773.655
773.654
773.653
773.652
773.651
773.65
773.649
773.648
773.647
773.646
773.645
773.644
773.643
773.642
773.641
773.64
773.638
773.637
773.636
773.634
773.632
773.631
773.629
773.628
773.626
773.624
773.622
773.62
773.619
773.617
773.615
773.613
773.611
773.609
773.607
773.605
773.603
773.601
773.6
773.598
773.596
773.594
773.593
773.591
773.59
773.589
773.587
773.586
773.585
773.584
773.584
773.583
773.582
773.581
773.581
773.58
773.579
773.579
773.578
773.577
773.576
773.576
773.575
773.574
773.573
773.572
773.57
773.569
773.568
773.567
773.565
773.564
773.563
773.562
773.56
773.559
773.557
773.556
773.551
773.555
773.381
773.825
773.854
773.843
773.851
773.867
773.85
773.835
773.835
773.84
773.841
773.837
773.834
773.833
773.833
773.832
773.83
773.829
773.828
773.826
773.825
773.824
773.823
773.822
773.821
773.819
773.816
773.814
773.812
773.811
773.81
773.808
773.806
773.804
773.803
773.802
773.802
773.803
773.804
773.805
773.805
773.805
773.802
773.8
773.8
773.801
773.806
773.811
773.814
773.815
773.816
773.816
773.816
773.816
773.818
773.826
773.872
774.007
774.126
774.175
774.176
774.13
773.979
773.841
773.761
773.722
773.707
773.704
773.705
773.709
773.712
773.714
773.715
773.715
773.715
773.715
773.714
773.713
773.711
773.71
773.709
773.708
773.706
773.705
773.704
773.702
773.701
773.7
773.698
773.697
773.696
773.694
773.693
773.691
773.69
773.689
773.687
773.686
773.684
773.683
773.681
773.68
773.678
773.677
773.675
773.674
773.672
773.671
773.669
773.668
773.667
773.665
773.664
773.663
773.661
773.66
773.659
773.657
773.656
773.655
773.654
773.653
773.652
773.651
773.65
773.649
773.648
773.647
773.646
773.645
773.644
773.643
773.642
773.641
773.64
773.638
773.637
773.636
773.634
773.633
773.631
773.63
773.628
773.626
773.625
773.623
773.621
773.619
773.617
773.616
773.614
773.612
773.61
773.608
773.606
773.604
773.602
773.6
773.598
773.597
773.595
773.593
773.592
773.59
773.589
773.588
773.586
773.585
773.584
773.583
773.582
773.582
773.581
773.58
773.579
773.579
773.578
773.577
773.577
773.576
773.575
773.574
773.573
773.573
773.572
773.57
773.569
773.568
773.567
773.566
773.564
773.563
773.562
773.56
773.559
773.558
773.556
773.555
773.551
773.549
773.45
774.04
774.058
774.088
774.091
774.088
774.084
774.084
774.084
774.083
774.081
774.08
774.079
774.078
774.077
774.076
774.075
774.074
774.072
774.07
774.067
774.065
774.063
774.061
774.06
774.059
774.058
774.059
774.059
774.06
774.061
774.061
774.062
774.064
774.066
774.068
774.07
774.071
774.071
774.071
774.069
774.062
774.032
773.973
773.917
773.871
773.836
773.812
773.797
773.788
773.784
773.783
773.783
773.783
773.785
773.786
773.786
773.784
773.777
773.768
773.759
773.751
773.745
773.741
773.738
773.736
773.734
773.732
773.73
773.728
773.726
773.724
773.722
773.72
773.718
773.717
773.715
773.714
773.712
773.711
773.709
773.708
773.707
773.705
773.704
773.702
773.701
773.7
773.698
773.697
773.696
773.694
773.693
773.691
773.69
773.689
773.687
773.686
773.684
773.683
773.681
773.68
773.678
773.677
773.675
773.674
773.672
773.671
773.669
773.668
773.667
773.665
773.664
773.663
773.661
773.66
773.659
773.657
773.656
773.655
773.654
773.653
773.652
773.651
773.65
773.649
773.648
773.647
773.646
773.645
773.644
773.643
773.642
773.641
773.64
773.638
773.637
773.636
773.634
773.633
773.631
773.63
773.628
773.626
773.625
773.623
773.621
773.619
773.617
773.616
773.614
773.612
773.61
773.608
773.606
773.604
773.602
773.6
773.598
773.597
773.595
773.593
773.592
773.59
773.589
773.588
773.586
773.585
773.584
773.583
773.582
773.582
773.581
773.58
773.579
773.579
773.578
773.577
773.577
773.576
773.575
773.574
773.574
773.573
773.572
773.57
773.569
773.568
773.567
773.566
773.564
773.563
773.562
773.56
773.559
773.558
773.556
773.555
773.554
773.552
773.554
773.854
773.846
773.845
773.846
773.841
773.835
773.834
773.835
773.835
773.833
773.83
773.829
773.827
773.825
773.823
773.821
773.819
773.817
773.815
773.814
773.812
773.811
773.81
773.808
773.807
773.806
773.804
773.803
773.802
773.801
773.8
773.798
773.796
773.794
773.793
773.792
773.791
773.789
773.788
773.786
773.785
773.784
773.784
773.786
773.789
773.795
773.798
773.801
773.809
773.819
773.828
773.832
773.838
773.854
773.896
773.938
773.959
773.963
773.957
773.92
773.844
773.783
773.745
773.725
773.716
773.713
773.713
773.714
773.716
773.717
773.717
773.717
773.717
773.716
773.715
773.714
773.713
773.712
773.71
773.709
773.708
773.706
773.705
773.704
773.702
773.701
773.7
773.698
773.697
773.696
773.694
773.693
773.691
773.69
773.689
773.687
773.686
773.684
773.683
773.681
773.68
773.678
773.677
773.675
773.674
773.672
773.671
773.669
773.668
773.667
773.665
773.664
773.663
773.661
773.66
773.659
773.657
773.656
773.655
773.654
773.653
773.652
773.651
773.65
773.649
773.648
773.647
773.646
773.645
773.644
773.643
773.642
773.641
773.64
773.638
773.637
773.636
773.634
773.633
773.631
773.63
773.628
773.626
773.625
773.623
773.621
773.619
773.617
773.616
773.614
773.612
773.61
773.608
773.606
773.604
773.602
773.6
773.598
773.597
773.595
773.593
773.592
773.59
773.589
773.588
773.586
773.585
773.584
773.583
773.582
773.582
773.581
773.58
773.579
773.579
773.578
773.577
773.577
773.576
773.575
773.574
773.574
773.573
773.572
773.57
773.569
773.568
773.567
773.566
773.564
773.563
773.562
773.56
773.559
773.558
773.556
773.555
773.555
773.556
773.604
773.972
773.972
773.969
773.969
773.964
773.957
773.957
773.956
773.955
773.952
773.949
773.947
773.944
773.942
773.939
773.937
773.935
773.933
773.931
773.93
773.929
773.928
773.926
773.925
773.924
773.922
773.921
773.92
773.918
773.916
773.914
773.911
773.909
773.908
773.907
773.906
773.904
773.903
773.901
773.9
773.9
773.901
773.903
773.906
773.907
773.911
773.917
773.921
773.923
773.923
773.923
773.926
773.952
774.066
774.232
774.323
774.349
774.341
774.271
774.115
773.988
773.897
773.835
773.795
773.769
773.752
773.742
773.735
773.731
773.727
773.725
773.723
773.721
773.719
773.718
773.716
773.715
773.713
773.712
773.71
773.709
773.708
773.706
773.705
773.704
773.702
773.701
773.7
773.698
773.697
773.695
773.694
773.693
773.691
773.69
773.688
773.687
773.685
773.684
773.682
773.681
773.679
773.678
773.676
773.675
773.673
773.672
773.671
773.669
773.668
773.666
773.665
773.664
773.662
773.661
773.66
773.659
773.657
773.656
773.655
773.654
773.653
773.652
773.651
773.65
773.649
773.648
773.647
773.646
773.645
773.644
773.643
773.642
773.641
773.64
773.638
773.637
773.636
773.634
773.632
773.631
773.629
773.628
773.626
773.624
773.622
773.62
773.619
773.617
773.615
773.613
773.611
773.609
773.607
773.605
773.603
773.601
773.6
773.598
773.596
773.594
773.593
773.591
773.59
773.589
773.588
773.586
773.585
773.584
773.584
773.583
773.582
773.581
773.581
773.58
773.579
773.579
773.578
773.577
773.576
773.576
773.575
773.574
773.573
773.572
773.57
773.569
773.568
773.567
773.565
773.564
773.563
773.561
773.56
773.559
773.558
773.556
773.556
773.557
773.609
773.442
773.422
773.416
773.417
773.416
773.41
773.396
773.387
773.369
773.359
773.341
773.33
773.314
773.304
773.291
773.285
773.275
773.277
773.284
773.315
773.489
773.488
773.493
773.492
773.485
773.471
773.453
773.439
773.417
773.402
773.382
773.368
773.354
773.333
773.319
773.309
773.296
773.288
773.279
773.276
773.554
773.552
773.549
773.544
773.538
773.532
773.526
773.519
773.511
773.504
773.494
773.485
773.478
773.471
773.468
773.474
773.475
773.47
773.447
773.432
773.591
773.594
773.592
773.589
773.585
773.582
773.575
773.565
773.555
773.537
773.521
773.522
773.534
773.549
773.522
773.463
773.44
773.435
773.409
773.365
773.602
773.616
773.615
773.614
773.613
773.611
773.607
773.6
773.59
773.575
773.566
773.569
773.58
773.59
773.564
773.525
773.496
773.482
773.436
773.393
773.372
773.371
773.371
773.367
773.36
773.359
773.36
773.36
773.358
773.356
773.356
773.355
773.354
773.353
773.352
773.351
773.35
773.35
773.349
773.349
773.349
773.349
773.349
773.349
773.349
773.35
773.35
773.35
773.35
773.35
773.35
773.35
773.351
773.351
773.352
773.352
773.352
773.352
773.352
773.352
773.353
773.355
773.359
773.363
773.365
773.366
773.369
773.375
773.381
773.384
773.385
773.385
773.388
773.411
773.517
773.685
773.784
773.815
773.81
773.752
773.604
773.476
773.384
773.322
773.281
773.256
773.241
773.232
773.227
773.224
773.223
773.222
773.222
773.222
773.222
773.222
773.222
773.223
773.223
773.223
773.223
773.223
773.223
773.223
773.222
773.222
773.222
773.221
773.221
773.221
773.22
773.22
773.219
773.218
773.218
773.217
773.216
773.212
773.215
773.046
773.255
773.252
773.252
773.247
773.241
773.24
773.242
773.243
773.242
773.239
773.239
773.239
773.238
773.238
773.237
773.237
773.236
773.236
773.235
773.236
773.236
773.236
773.236
773.236
773.236
773.237
773.237
773.237
773.238
773.238
773.238
773.238
773.238
773.239
773.239
773.24
773.241
773.241
773.241
773.241
773.241
773.241
773.242
773.244
773.248
773.253
773.258
773.261
773.264
773.27
773.283
773.292
773.297
773.303
773.318
773.357
773.401
773.425
773.431
773.427
773.4
773.33
773.269
773.231
773.211
773.202
773.201
773.202
773.204
773.208
773.211
773.214
773.216
773.217
773.219
773.22
773.22
773.221
773.221
773.221
773.222
773.222
773.222
773.221
773.221
773.221
773.221
773.22
773.22
773.219
773.219
773.218
773.218
773.217
773.217
773.216
773.215
773.212
773.21
773.114
773.434
773.48
773.492
773.488
773.485
773.486
773.487
773.486
773.483
773.482
773.481
773.48
773.48
773.48
773.481
773.481
773.481
773.481
773.481
773.481
773.481
773.481
773.481
773.482
773.482
773.483
773.485
773.487
773.489
773.492
773.494
773.496
773.497
773.499
773.502
773.506
773.51
773.514
773.517
773.517
773.517
773.511
773.487
773.432
773.379
773.335
773.303
773.28
773.266
773.258
773.255
773.254
773.254
773.255
773.257
773.258
773.258
773.257
773.251
773.244
773.237
773.23
773.226
773.223
773.222
773.221
773.221
773.221
773.221
773.221
773.221
773.221
773.221
773.221
773.221
773.221
773.221
773.222
773.222
773.222
773.222
773.222
773.222
773.222
773.221
773.221
773.221
773.22
773.22
773.22
773.219
773.219
773.218
773.217
773.217
773.216
773.215
773.215
773.214
773.215
773.244
773.255
773.265
773.282
773.258
773.238
773.24
773.251
773.253
773.247
773.243
773.243
773.244
773.244
773.244
773.244
773.244
773.244
773.245
773.245
773.245
773.246
773.246
773.246
773.246
773.246
773.246
773.247
773.248
773.249
773.249
773.249
773.249
773.249
773.249
773.251
773.254
773.256
773.258
773.259
773.259
773.259
773.259
773.26
773.265
773.269
773.273
773.274
773.275
773.275
773.275
773.277
773.278
773.28
773.283
773.294
773.338
773.465
773.586
773.642
773.648
773.615
773.484
773.34
773.254
773.211
773.196
773.193
773.194
773.2
773.206
773.21
773.213
773.216
773.217
773.219
773.22
773.22
773.221
773.221
773.221
773.222
773.222
773.221
773.221
773.221
773.221
773.22
773.22
773.22
773.219
773.219
773.218
773.217
773.217
773.216
773.215
773.216
773.218
773.265
773.249
773.263
773.26
773.273
773.246
773.224
773.224
773.233
773.237
773.232
773.227
773.227
773.228
773.229
773.228
773.228
773.228
773.228
773.228
773.228
773.228
773.229
773.229
773.229
773.23
773.23
773.23
773.23
773.23
773.231
773.232
773.232
773.232
773.231
773.231
773.231
773.232
773.234
773.236
773.238
773.238
773.237
773.235
773.232
773.233
773.236
773.242
773.246
773.247
773.248
773.249
773.251
773.253
773.254
773.256
773.26
773.276
773.347
773.549
773.717
773.778
773.773
773.681
773.448
773.279
773.195
773.165
773.161
773.168
773.184
773.197
773.205
773.211
773.215
773.217
773.219
773.22
773.221
773.222
773.222
773.223
773.223
773.223
773.223
773.222
773.222
773.222
773.221
773.221
773.221
773.22
773.22
773.219
773.218
773.218
773.217
773.216
773.217
773.219
773.27
773.105
773.085
773.079
773.08
773.079
773.073
773.06
773.05
773.032
773.023
773.005
772.993
772.978
772.968
772.954
772.948
772.939
772.941
772.947
772.978
773.151
773.151
773.156
773.154
773.147
773.133
773.116
773.102
773.08
773.065
773.045
773.032
773.017
772.996
772.984
772.972
772.96
772.951
772.943
772.939
773.215
773.214
773.211
773.207
773.2
773.194
773.188
773.181
773.174
773.165
773.156
773.147
773.141
773.133
773.131
773.137
773.137
773.13
773.107
773.093
773.253
773.255
773.254
773.251
773.247
773.244
773.237
773.227
773.216
773.198
773.183
773.185
773.198
773.211
773.176
773.123
773.106
773.099
773.069
773.025
773.264
773.277
773.276
773.276
773.274
773.273
773.269
773.262
773.252
773.236
773.228
773.232
773.243
773.252
773.221
773.184
773.158
773.143
773.095
773.054
773.034
773.034
773.034
773.028
773.02
773.018
773.018
773.016
773.013
773.011
773.01
773.008
773.007
773.006
773.004
773.003
773.002
773.001
772.999
772.998
772.997
772.995
772.994
772.993
772.992
772.991
772.99
772.989
772.988
772.987
772.986
772.986
772.985
772.984
772.983
772.982
772.981
772.98
772.979
772.979
772.98
772.982
772.985
772.986
772.988
772.993
772.999
773.003
773.004
773.005
773.006
773.019
773.094
773.265
773.381
773.424
773.425
773.383
773.245
773.105
773.004
772.935
772.89
772.86
772.842
772.831
772.824
772.819
772.816
772.814
772.812
772.81
772.808
772.807
772.805
772.804
772.802
772.801
772.799
772.798
772.796
772.795
772.794
772.792
772.791
772.789
772.788
772.787
772.785
772.784
772.783
772.781
772.78
772.778
772.777
772.776
772.774
772.773
772.772
772.771
772.769
772.768
772.767
772.766
772.764
772.763
772.762
772.761
772.76
772.759
772.758
772.757
772.756
772.756
772.755
772.754
772.753
772.753
772.752
772.752
772.751
772.751
772.75
772.75
772.749
772.749
772.748
772.748
772.747
772.747
772.747
772.746
772.746
772.746
772.745
772.745
772.745
772.745
772.744
772.744
772.744
772.744
772.744
772.744
772.745
772.745
772.745
772.746
772.746
772.747
772.747
772.748
772.748
772.749
772.75
772.751
772.753
772.754
772.755
772.756
772.758
772.76
772.761
772.763
772.765
772.767
772.769
772.771
772.773
772.775
772.777
772.78
772.782
772.784
772.786
772.788
772.791
772.793
772.795
772.797
772.799
772.802
772.804
772.806
772.809
772.811
772.814
772.817
772.819
772.822
772.825
772.829
772.832
772.835
772.838
772.843
772.845
772.851
772.855
772.912
772.918
772.916
772.915
772.909
772.902
772.901
772.902
772.901
772.898
772.896
772.895
772.894
772.893
772.891
772.89
772.889
772.888
772.887
772.885
772.884
772.883
772.882
772.88
772.879
772.878
772.877
772.876
772.875
772.875
772.874
772.873
772.872
772.871
772.871
772.87
772.87
772.87
772.869
772.867
772.866
772.866
772.867
772.868
772.871
772.876
772.88
772.882
772.887
772.896
772.906
772.912
772.917
772.928
772.962
773.008
773.034
773.04
773.037
773.012
772.942
772.878
772.837
772.814
772.804
772.8
772.8
772.801
772.803
772.805
772.805
772.805
772.805
772.805
772.804
772.803
772.802
772.801
772.799
772.798
772.797
772.795
772.794
772.792
772.791
772.79
772.788
772.787
772.786
772.784
772.783
772.781
772.78
772.779
772.777
772.776
772.775
772.773
772.772
772.771
772.769
772.768
772.767
772.766
772.764
772.763
772.762
772.761
772.76
772.759
772.758
772.757
772.756
772.755
772.754
772.754
772.753
772.752
772.752
772.751
772.75
772.75
772.749
772.749
772.748
772.748
772.747
772.747
772.747
772.746
772.746
772.745
772.745
772.745
772.744
772.744
772.744
772.744
772.744
772.743
772.743
772.743
772.743
772.743
772.743
772.743
772.744
772.744
772.744
772.745
772.745
772.746
772.747
772.747
772.748
772.749
772.75
772.751
772.753
772.754
772.755
772.757
772.758
772.76
772.762
772.764
772.766
772.768
772.77
772.772
772.774
772.776
772.778
772.781
772.783
772.785
772.787
772.789
772.792
772.794
772.796
772.798
772.8
772.803
772.805
772.808
772.81
772.813
772.816
772.818
772.821
772.824
772.827
772.831
772.834
772.837
772.841
772.844
772.85
772.854
772.906
773.094
773.138
773.148
773.142
773.141
773.142
773.144
773.143
773.142
773.141
773.14
773.139
773.138
773.137
773.135
773.134
773.132
773.131
773.13
773.128
773.127
773.126
773.125
773.123
773.122
773.122
773.122
773.122
773.123
773.124
773.125
773.126
773.129
773.133
773.138
773.141
773.143
773.144
773.144
773.142
773.131
773.091
773.033
772.983
772.943
772.914
772.894
772.882
772.876
772.872
772.871
772.871
772.871
772.871
772.871
772.869
772.863
772.854
772.846
772.838
772.832
772.828
772.825
772.823
772.821
772.819
772.818
772.816
772.814
772.812
772.811
772.809
772.807
772.806
772.804
772.803
772.801
772.8
772.798
772.797
772.795
772.794
772.792
772.791
772.79
772.788
772.787
772.786
772.784
772.783
772.781
772.78
772.779
772.777
772.776
772.775
772.773
772.772
772.771
772.769
772.768
772.767
772.766
772.764
772.763
772.762
772.761
772.76
772.759
772.758
772.757
772.756
772.755
772.754
772.754
772.753
772.752
772.752
772.751
772.75
772.75
772.749
772.749
772.748
772.748
772.747
772.747
772.747
772.746
772.746
772.745
772.745
772.745
772.744
772.744
772.744
772.744
772.744
772.743
772.743
772.743
772.743
772.743
772.743
772.743
772.744
772.744
772.744
772.745
772.745
772.746
772.747
772.747
772.748
772.749
772.75
772.751
772.753
772.754
772.755
772.757
772.758
772.76
772.762
772.764
772.766
772.768
772.77
772.772
772.774
772.776
772.778
772.781
772.783
772.785
772.787
772.789
772.792
772.794
772.796
772.798
772.8
772.803
772.805
772.808
772.81
772.813
772.816
772.818
772.821
772.824
772.827
772.831
772.834
772.837
772.841
772.844
772.849
772.852
772.859
772.905
772.916
772.929
772.939
772.912
772.898
772.903
772.912
772.911
772.905
772.903
772.903
772.903
772.902
772.899
772.898
772.897
772.896
772.895
772.893
772.892
772.891
772.89
772.889
772.887
772.886
772.885
772.884
772.884
772.883
772.882
772.881
772.88
772.88
772.88
772.88
772.882
772.882
772.883
772.882
772.881
772.881
772.882
772.885
772.89
772.895
772.899
772.9
772.9
772.9
772.899
772.899
772.9
772.906
772.938
773.051
773.18
773.242
773.251
773.223
773.099
772.951
772.86
772.814
772.796
772.791
772.792
772.795
772.799
772.802
772.803
772.804
772.804
772.803
772.802
772.801
772.8
772.799
772.798
772.797
772.795
772.794
772.792
772.791
772.79
772.788
772.787
772.786
772.784
772.783
772.781
772.78
772.779
772.777
772.776
772.775
772.773
772.772
772.771
772.769
772.768
772.767
772.766
772.764
772.763
772.762
772.761
772.76
772.759
772.758
772.757
772.756
772.755
772.754
772.754
772.753
772.752
772.752
772.751
772.75
772.75
772.749
772.749
772.748
772.748
772.747
772.747
772.747
772.746
772.746
772.745
772.745
772.745
772.744
772.744
772.744
772.744
772.744
772.743
772.743
772.743
772.743
772.743
772.743
772.743
772.744
772.744
772.744
772.745
772.745
772.746
772.747
772.747
772.748
772.749
772.75
772.751
772.753
772.754
772.755
772.757
772.758
772.76
772.762
772.764
772.766
772.768
772.77
772.772
772.774
772.776
772.778
772.781
772.783
772.785
772.787
772.789
772.792
772.794
772.796
772.798
772.8
772.803
772.805
772.808
772.81
772.813
772.816
772.818
772.821
772.824
772.827
772.831
772.834
772.838
772.84
772.846
772.847
772.849
772.761
772.911
772.924
772.924
772.931
772.901
772.884
772.887
772.896
772.896
772.89
772.886
772.886
772.886
772.885
772.883
772.882
772.881
772.88
772.878
772.877
772.876
772.875
772.874
772.872
772.871
772.87
772.869
772.868
772.867
772.867
772.866
772.865
772.864
772.863
772.863
772.863
772.863
772.863
772.863
772.863
772.863
772.859
772.855
772.855
772.856
772.862
772.867
772.87
772.871
772.872
772.872
772.873
772.874
772.876
772.888
772.947
773.139
773.317
773.383
773.38
773.293
773.059
772.885
772.796
772.764
772.759
772.764
772.779
772.791
772.797
772.801
772.803
772.803
772.803
772.803
772.802
772.801
772.8
772.799
772.798
772.796
772.795
772.794
772.792
772.791
772.789
772.788
772.787
772.785
772.784
772.783
772.781
772.78
772.778
772.777
772.776