/*--------------------------------*- C++ -*----------------------------------*\
| =========                 |                                                 |
| \\      /  F ield         | OpenFOAM: The Open Source CFD Toolbox           |
|  \\    /   O peration     | Version:  3.0.x                                 |
|   \\  /    A nd           | Web:      www.OpenFOAM.org                      |
|    \\/     M anipulation  |                                                 |
\*---------------------------------------------------------------------------*/
FoamFile
{
    version     2.0;
    format      ascii;
    class       volScalarField;
    location    "0.48";
    object      p;
}
// * * * * * * * * * * * * * * * * * * * * * * * * * * * * * * * * * * * * * //

dimensions      [1 -1 -2 0 0 0 0];

internalField   nonuniform List<scalar> 
13800
(
1.80205e+07
1.80205e+07
1.80206e+07
1.80206e+07
1.80206e+07
1.80207e+07
1.80208e+07
1.80208e+07
1.80209e+07
1.8021e+07
1.80211e+07
1.80212e+07
1.80213e+07
1.80214e+07
1.80216e+07
1.80217e+07
1.80219e+07
1.80221e+07
1.80222e+07
1.80224e+07
1.80226e+07
1.80229e+07
1.80231e+07
1.80233e+07
1.80236e+07
1.80239e+07
1.80241e+07
1.80244e+07
1.80248e+07
1.80251e+07
1.80254e+07
1.80258e+07
1.80261e+07
1.80265e+07
1.80269e+07
1.80274e+07
1.80278e+07
1.80282e+07
1.80287e+07
1.80292e+07
1.80297e+07
1.80302e+07
1.80308e+07
1.80313e+07
1.80319e+07
1.80325e+07
1.80331e+07
1.80338e+07
1.80344e+07
1.80351e+07
1.80358e+07
1.80366e+07
1.80373e+07
1.80381e+07
1.80389e+07
1.80397e+07
1.80405e+07
1.80414e+07
1.80423e+07
1.80432e+07
1.80441e+07
1.80451e+07
1.8046e+07
1.8047e+07
1.80481e+07
1.80491e+07
1.80502e+07
1.80513e+07
1.80524e+07
1.80536e+07
1.80548e+07
1.8056e+07
1.80572e+07
1.80585e+07
1.80598e+07
1.80611e+07
1.80624e+07
1.80638e+07
1.80652e+07
1.80666e+07
1.80681e+07
1.80695e+07
1.80711e+07
1.80726e+07
1.80742e+07
1.80758e+07
1.80774e+07
1.8079e+07
1.80807e+07
1.80824e+07
1.80842e+07
1.80859e+07
1.80877e+07
1.80896e+07
1.80914e+07
1.80933e+07
1.80952e+07
1.80972e+07
1.80992e+07
1.81012e+07
1.81032e+07
1.81053e+07
1.81074e+07
1.81095e+07
1.81117e+07
1.81139e+07
1.81161e+07
1.81184e+07
1.81207e+07
1.8123e+07
1.81254e+07
1.81277e+07
1.81302e+07
1.81326e+07
1.81351e+07
1.81376e+07
1.81402e+07
1.81427e+07
1.81454e+07
1.8148e+07
1.81507e+07
1.81534e+07
1.81561e+07
1.81589e+07
1.81617e+07
1.81646e+07
1.81674e+07
1.81703e+07
1.81733e+07
1.81763e+07
1.81793e+07
1.81823e+07
1.81854e+07
1.81885e+07
1.81916e+07
1.81948e+07
1.8198e+07
1.82012e+07
1.82045e+07
1.82078e+07
1.82112e+07
1.82145e+07
1.82179e+07
1.82214e+07
1.82249e+07
1.82284e+07
1.82319e+07
1.82355e+07
1.82391e+07
1.82427e+07
1.82464e+07
1.82501e+07
1.82538e+07
1.82576e+07
1.82614e+07
1.82652e+07
1.82691e+07
1.8273e+07
1.82769e+07
1.82809e+07
1.82849e+07
1.82889e+07
1.8293e+07
1.82971e+07
1.83012e+07
1.83054e+07
1.83096e+07
1.83138e+07
1.8318e+07
1.83223e+07
1.83266e+07
1.8331e+07
1.83353e+07
1.83397e+07
1.83442e+07
1.83486e+07
1.83531e+07
1.83577e+07
1.83622e+07
1.83668e+07
1.83714e+07
1.83761e+07
1.83807e+07
1.83854e+07
1.83902e+07
1.83949e+07
1.83997e+07
1.84045e+07
1.84093e+07
1.84142e+07
1.84191e+07
1.8424e+07
1.8429e+07
1.84339e+07
1.84389e+07
1.84439e+07
1.8449e+07
1.84541e+07
1.84594e+07
1.84651e+07
1.80205e+07
1.80205e+07
1.80206e+07
1.80206e+07
1.80206e+07
1.80207e+07
1.80208e+07
1.80208e+07
1.80209e+07
1.8021e+07
1.80211e+07
1.80212e+07
1.80213e+07
1.80214e+07
1.80216e+07
1.80217e+07
1.80219e+07
1.80221e+07
1.80222e+07
1.80224e+07
1.80226e+07
1.80229e+07
1.80231e+07
1.80233e+07
1.80236e+07
1.80239e+07
1.80241e+07
1.80244e+07
1.80248e+07
1.80251e+07
1.80254e+07
1.80258e+07
1.80261e+07
1.80265e+07
1.80269e+07
1.80274e+07
1.80278e+07
1.80282e+07
1.80287e+07
1.80292e+07
1.80297e+07
1.80302e+07
1.80308e+07
1.80313e+07
1.80319e+07
1.80325e+07
1.80331e+07
1.80338e+07
1.80344e+07
1.80351e+07
1.80358e+07
1.80366e+07
1.80373e+07
1.80381e+07
1.80389e+07
1.80397e+07
1.80405e+07
1.80414e+07
1.80423e+07
1.80432e+07
1.80441e+07
1.80451e+07
1.8046e+07
1.8047e+07
1.80481e+07
1.80491e+07
1.80502e+07
1.80513e+07
1.80524e+07
1.80536e+07
1.80548e+07
1.8056e+07
1.80572e+07
1.80585e+07
1.80598e+07
1.80611e+07
1.80624e+07
1.80638e+07
1.80652e+07
1.80666e+07
1.80681e+07
1.80695e+07
1.80711e+07
1.80726e+07
1.80742e+07
1.80758e+07
1.80774e+07
1.8079e+07
1.80807e+07
1.80824e+07
1.80842e+07
1.80859e+07
1.80877e+07
1.80896e+07
1.80914e+07
1.80933e+07
1.80952e+07
1.80972e+07
1.80992e+07
1.81012e+07
1.81032e+07
1.81053e+07
1.81074e+07
1.81095e+07
1.81117e+07
1.81139e+07
1.81161e+07
1.81184e+07
1.81207e+07
1.8123e+07
1.81254e+07
1.81277e+07
1.81302e+07
1.81326e+07
1.81351e+07
1.81376e+07
1.81402e+07
1.81427e+07
1.81454e+07
1.8148e+07
1.81507e+07
1.81534e+07
1.81561e+07
1.81589e+07
1.81617e+07
1.81646e+07
1.81674e+07
1.81703e+07
1.81733e+07
1.81763e+07
1.81793e+07
1.81823e+07
1.81854e+07
1.81885e+07
1.81916e+07
1.81948e+07
1.8198e+07
1.82012e+07
1.82045e+07
1.82078e+07
1.82112e+07
1.82145e+07
1.82179e+07
1.82214e+07
1.82249e+07
1.82284e+07
1.82319e+07
1.82355e+07
1.82391e+07
1.82427e+07
1.82464e+07
1.82501e+07
1.82538e+07
1.82576e+07
1.82614e+07
1.82652e+07
1.82691e+07
1.8273e+07
1.82769e+07
1.82809e+07
1.82849e+07
1.82889e+07
1.8293e+07
1.82971e+07
1.83012e+07
1.83054e+07
1.83096e+07
1.83138e+07
1.8318e+07
1.83223e+07
1.83266e+07
1.8331e+07
1.83353e+07
1.83397e+07
1.83442e+07
1.83486e+07
1.83531e+07
1.83577e+07
1.83622e+07
1.83668e+07
1.83714e+07
1.83761e+07
1.83807e+07
1.83854e+07
1.83902e+07
1.83949e+07
1.83997e+07
1.84045e+07
1.84093e+07
1.84142e+07
1.84191e+07
1.8424e+07
1.8429e+07
1.84339e+07
1.84389e+07
1.84439e+07
1.8449e+07
1.84541e+07
1.84594e+07
1.84651e+07
1.80205e+07
1.80205e+07
1.80206e+07
1.80206e+07
1.80206e+07
1.80207e+07
1.80208e+07
1.80208e+07
1.80209e+07
1.8021e+07
1.80211e+07
1.80212e+07
1.80213e+07
1.80214e+07
1.80216e+07
1.80217e+07
1.80219e+07
1.80221e+07
1.80222e+07
1.80224e+07
1.80226e+07
1.80229e+07
1.80231e+07
1.80233e+07
1.80236e+07
1.80239e+07
1.80241e+07
1.80244e+07
1.80248e+07
1.80251e+07
1.80254e+07
1.80258e+07
1.80261e+07
1.80265e+07
1.80269e+07
1.80274e+07
1.80278e+07
1.80282e+07
1.80287e+07
1.80292e+07
1.80297e+07
1.80302e+07
1.80308e+07
1.80313e+07
1.80319e+07
1.80325e+07
1.80331e+07
1.80338e+07
1.80344e+07
1.80351e+07
1.80358e+07
1.80366e+07
1.80373e+07
1.80381e+07
1.80389e+07
1.80397e+07
1.80405e+07
1.80414e+07
1.80423e+07
1.80432e+07
1.80441e+07
1.80451e+07
1.8046e+07
1.8047e+07
1.80481e+07
1.80491e+07
1.80502e+07
1.80513e+07
1.80524e+07
1.80536e+07
1.80548e+07
1.8056e+07
1.80572e+07
1.80585e+07
1.80598e+07
1.80611e+07
1.80624e+07
1.80638e+07
1.80652e+07
1.80666e+07
1.80681e+07
1.80695e+07
1.80711e+07
1.80726e+07
1.80742e+07
1.80758e+07
1.80774e+07
1.8079e+07
1.80807e+07
1.80824e+07
1.80842e+07
1.80859e+07
1.80877e+07
1.80896e+07
1.80914e+07
1.80933e+07
1.80952e+07
1.80972e+07
1.80992e+07
1.81012e+07
1.81032e+07
1.81053e+07
1.81074e+07
1.81095e+07
1.81117e+07
1.81139e+07
1.81161e+07
1.81184e+07
1.81207e+07
1.8123e+07
1.81254e+07
1.81277e+07
1.81302e+07
1.81326e+07
1.81351e+07
1.81376e+07
1.81402e+07
1.81427e+07
1.81454e+07
1.8148e+07
1.81507e+07
1.81534e+07
1.81561e+07
1.81589e+07
1.81617e+07
1.81646e+07
1.81674e+07
1.81703e+07
1.81733e+07
1.81763e+07
1.81793e+07
1.81823e+07
1.81854e+07
1.81885e+07
1.81916e+07
1.81948e+07
1.8198e+07
1.82012e+07
1.82045e+07
1.82078e+07
1.82112e+07
1.82145e+07
1.82179e+07
1.82214e+07
1.82249e+07
1.82284e+07
1.82319e+07
1.82355e+07
1.82391e+07
1.82427e+07
1.82464e+07
1.82501e+07
1.82538e+07
1.82576e+07
1.82614e+07
1.82652e+07
1.82691e+07
1.8273e+07
1.82769e+07
1.82809e+07
1.82849e+07
1.82889e+07
1.8293e+07
1.82971e+07
1.83012e+07
1.83054e+07
1.83096e+07
1.83138e+07
1.8318e+07
1.83223e+07
1.83266e+07
1.8331e+07
1.83353e+07
1.83397e+07
1.83442e+07
1.83486e+07
1.83531e+07
1.83577e+07
1.83622e+07
1.83668e+07
1.83714e+07
1.83761e+07
1.83807e+07
1.83854e+07
1.83902e+07
1.83949e+07
1.83997e+07
1.84045e+07
1.84093e+07
1.84142e+07
1.84191e+07
1.8424e+07
1.8429e+07
1.84339e+07
1.84389e+07
1.84439e+07
1.8449e+07
1.84541e+07
1.84594e+07
1.84651e+07
1.80205e+07
1.80205e+07
1.80206e+07
1.80206e+07
1.80206e+07
1.80207e+07
1.80208e+07
1.80208e+07
1.80209e+07
1.8021e+07
1.80211e+07
1.80212e+07
1.80213e+07
1.80214e+07
1.80216e+07
1.80217e+07
1.80219e+07
1.80221e+07
1.80222e+07
1.80224e+07
1.80226e+07
1.80229e+07
1.80231e+07
1.80233e+07
1.80236e+07
1.80239e+07
1.80241e+07
1.80244e+07
1.80248e+07
1.80251e+07
1.80254e+07
1.80258e+07
1.80261e+07
1.80265e+07
1.80269e+07
1.80274e+07
1.80278e+07
1.80282e+07
1.80287e+07
1.80292e+07
1.80297e+07
1.80302e+07
1.80308e+07
1.80313e+07
1.80319e+07
1.80325e+07
1.80331e+07
1.80338e+07
1.80344e+07
1.80351e+07
1.80358e+07
1.80366e+07
1.80373e+07
1.80381e+07
1.80389e+07
1.80397e+07
1.80405e+07
1.80414e+07
1.80423e+07
1.80432e+07
1.80441e+07
1.80451e+07
1.8046e+07
1.8047e+07
1.80481e+07
1.80491e+07
1.80502e+07
1.80513e+07
1.80524e+07
1.80536e+07
1.80548e+07
1.8056e+07
1.80572e+07
1.80585e+07
1.80598e+07
1.80611e+07
1.80624e+07
1.80638e+07
1.80652e+07
1.80666e+07
1.80681e+07
1.80695e+07
1.80711e+07
1.80726e+07
1.80742e+07
1.80758e+07
1.80774e+07
1.8079e+07
1.80807e+07
1.80824e+07
1.80842e+07
1.80859e+07
1.80877e+07
1.80896e+07
1.80914e+07
1.80933e+07
1.80952e+07
1.80972e+07
1.80992e+07
1.81012e+07
1.81032e+07
1.81053e+07
1.81074e+07
1.81095e+07
1.81117e+07
1.81139e+07
1.81161e+07
1.81184e+07
1.81207e+07
1.8123e+07
1.81254e+07
1.81277e+07
1.81302e+07
1.81326e+07
1.81351e+07
1.81376e+07
1.81402e+07
1.81427e+07
1.81454e+07
1.8148e+07
1.81507e+07
1.81534e+07
1.81561e+07
1.81589e+07
1.81617e+07
1.81646e+07
1.81674e+07
1.81703e+07
1.81733e+07
1.81763e+07
1.81793e+07
1.81823e+07
1.81854e+07
1.81885e+07
1.81916e+07
1.81948e+07
1.8198e+07
1.82012e+07
1.82045e+07
1.82078e+07
1.82112e+07
1.82145e+07
1.82179e+07
1.82214e+07
1.82249e+07
1.82284e+07
1.82319e+07
1.82355e+07
1.82391e+07
1.82427e+07
1.82464e+07
1.82501e+07
1.82538e+07
1.82576e+07
1.82614e+07
1.82652e+07
1.82691e+07
1.8273e+07
1.82769e+07
1.82809e+07
1.82849e+07
1.82889e+07
1.8293e+07
1.82971e+07
1.83012e+07
1.83054e+07
1.83096e+07
1.83138e+07
1.8318e+07
1.83223e+07
1.83266e+07
1.8331e+07
1.83353e+07
1.83397e+07
1.83442e+07
1.83486e+07
1.83531e+07
1.83577e+07
1.83622e+07
1.83668e+07
1.83714e+07
1.83761e+07
1.83807e+07
1.83854e+07
1.83902e+07
1.83949e+07
1.83997e+07
1.84045e+07
1.84093e+07
1.84142e+07
1.84191e+07
1.8424e+07
1.8429e+07
1.84339e+07
1.84389e+07
1.84439e+07
1.8449e+07
1.84541e+07
1.84594e+07
1.84649e+07
1.80205e+07
1.80205e+07
1.80206e+07
1.80206e+07
1.80206e+07
1.80207e+07
1.80208e+07
1.80208e+07
1.80209e+07
1.8021e+07
1.80211e+07
1.80212e+07
1.80213e+07
1.80214e+07
1.80216e+07
1.80217e+07
1.80219e+07
1.80221e+07
1.80222e+07
1.80224e+07
1.80226e+07
1.80229e+07
1.80231e+07
1.80233e+07
1.80236e+07
1.80239e+07
1.80241e+07
1.80244e+07
1.80248e+07
1.80251e+07
1.80254e+07
1.80258e+07
1.80261e+07
1.80265e+07
1.80269e+07
1.80274e+07
1.80278e+07
1.80282e+07
1.80287e+07
1.80292e+07
1.80297e+07
1.80302e+07
1.80308e+07
1.80313e+07
1.80319e+07
1.80325e+07
1.80331e+07
1.80338e+07
1.80344e+07
1.80351e+07
1.80358e+07
1.80366e+07
1.80373e+07
1.80381e+07
1.80389e+07
1.80397e+07
1.80405e+07
1.80414e+07
1.80423e+07
1.80432e+07
1.80441e+07
1.80451e+07
1.8046e+07
1.8047e+07
1.80481e+07
1.80491e+07
1.80502e+07
1.80513e+07
1.80524e+07
1.80536e+07
1.80548e+07
1.8056e+07
1.80572e+07
1.80585e+07
1.80598e+07
1.80611e+07
1.80624e+07
1.80638e+07
1.80652e+07
1.80666e+07
1.80681e+07
1.80695e+07
1.80711e+07
1.80726e+07
1.80742e+07
1.80758e+07
1.80774e+07
1.8079e+07
1.80807e+07
1.80824e+07
1.80842e+07
1.80859e+07
1.80877e+07
1.80896e+07
1.80914e+07
1.80933e+07
1.80952e+07
1.80972e+07
1.80992e+07
1.81012e+07
1.81032e+07
1.81053e+07
1.81074e+07
1.81095e+07
1.81117e+07
1.81139e+07
1.81161e+07
1.81184e+07
1.81207e+07
1.8123e+07
1.81254e+07
1.81277e+07
1.81302e+07
1.81326e+07
1.81351e+07
1.81376e+07
1.81402e+07
1.81427e+07
1.81454e+07
1.8148e+07
1.81507e+07
1.81534e+07
1.81561e+07
1.81589e+07
1.81617e+07
1.81646e+07
1.81674e+07
1.81703e+07
1.81733e+07
1.81763e+07
1.81793e+07
1.81823e+07
1.81854e+07
1.81885e+07
1.81916e+07
1.81948e+07
1.8198e+07
1.82012e+07
1.82045e+07
1.82078e+07
1.82112e+07
1.82145e+07
1.82179e+07
1.82214e+07
1.82249e+07
1.82284e+07
1.82319e+07
1.82355e+07
1.82391e+07
1.82427e+07
1.82464e+07
1.82501e+07
1.82538e+07
1.82576e+07
1.82614e+07
1.82652e+07
1.82691e+07
1.8273e+07
1.82769e+07
1.82809e+07
1.82849e+07
1.82889e+07
1.8293e+07
1.82971e+07
1.83012e+07
1.83054e+07
1.83096e+07
1.83138e+07
1.8318e+07
1.83223e+07
1.83266e+07
1.8331e+07
1.83353e+07
1.83397e+07
1.83442e+07
1.83486e+07
1.83531e+07
1.83577e+07
1.83622e+07
1.83668e+07
1.83714e+07
1.83761e+07
1.83807e+07
1.83854e+07
1.83902e+07
1.83949e+07
1.83997e+07
1.84045e+07
1.84093e+07
1.84142e+07
1.84191e+07
1.8424e+07
1.8429e+07
1.84339e+07
1.84389e+07
1.84439e+07
1.8449e+07
1.84541e+07
1.84592e+07
1.84645e+07
1.80205e+07
1.80205e+07
1.80206e+07
1.80206e+07
1.80206e+07
1.80207e+07
1.80208e+07
1.80208e+07
1.80209e+07
1.8021e+07
1.80211e+07
1.80212e+07
1.80213e+07
1.80214e+07
1.80216e+07
1.80217e+07
1.80219e+07
1.80221e+07
1.80222e+07
1.80224e+07
1.80226e+07
1.80229e+07
1.80231e+07
1.80233e+07
1.80236e+07
1.80239e+07
1.80241e+07
1.80244e+07
1.80248e+07
1.80251e+07
1.80254e+07
1.80258e+07
1.80261e+07
1.80265e+07
1.80269e+07
1.80274e+07
1.80278e+07
1.80282e+07
1.80287e+07
1.80292e+07
1.80297e+07
1.80302e+07
1.80308e+07
1.80313e+07
1.80319e+07
1.80325e+07
1.80331e+07
1.80338e+07
1.80344e+07
1.80351e+07
1.80358e+07
1.80366e+07
1.80373e+07
1.80381e+07
1.80389e+07
1.80397e+07
1.80405e+07
1.80414e+07
1.80423e+07
1.80432e+07
1.80441e+07
1.80451e+07
1.8046e+07
1.8047e+07
1.80481e+07
1.80491e+07
1.80502e+07
1.80513e+07
1.80524e+07
1.80536e+07
1.80548e+07
1.8056e+07
1.80572e+07
1.80585e+07
1.80598e+07
1.80611e+07
1.80624e+07
1.80638e+07
1.80652e+07
1.80666e+07
1.80681e+07
1.80695e+07
1.80711e+07
1.80726e+07
1.80742e+07
1.80758e+07
1.80774e+07
1.8079e+07
1.80807e+07
1.80824e+07
1.80842e+07
1.80859e+07
1.80877e+07
1.80896e+07
1.80914e+07
1.80933e+07
1.80952e+07
1.80972e+07
1.80992e+07
1.81012e+07
1.81032e+07
1.81053e+07
1.81074e+07
1.81095e+07
1.81117e+07
1.81139e+07
1.81161e+07
1.81184e+07
1.81207e+07
1.8123e+07
1.81254e+07
1.81277e+07
1.81302e+07
1.81326e+07
1.81351e+07
1.81376e+07
1.81402e+07
1.81427e+07
1.81454e+07
1.8148e+07
1.81507e+07
1.81534e+07
1.81561e+07
1.81589e+07
1.81617e+07
1.81646e+07
1.81674e+07
1.81703e+07
1.81733e+07
1.81763e+07
1.81793e+07
1.81823e+07
1.81854e+07
1.81885e+07
1.81916e+07
1.81948e+07
1.8198e+07
1.82012e+07
1.82045e+07
1.82078e+07
1.82112e+07
1.82145e+07
1.82179e+07
1.82214e+07
1.82249e+07
1.82284e+07
1.82319e+07
1.82355e+07
1.82391e+07
1.82427e+07
1.82464e+07
1.82501e+07
1.82538e+07
1.82576e+07
1.82614e+07
1.82652e+07
1.82691e+07
1.8273e+07
1.82769e+07
1.82809e+07
1.82849e+07
1.82889e+07
1.8293e+07
1.82971e+07
1.83012e+07
1.83054e+07
1.83096e+07
1.83138e+07
1.8318e+07
1.83223e+07
1.83266e+07
1.8331e+07
1.83353e+07
1.83397e+07
1.83442e+07
1.83486e+07
1.83531e+07
1.83577e+07
1.83622e+07
1.83668e+07
1.83714e+07
1.83761e+07
1.83807e+07
1.83854e+07
1.83902e+07
1.83949e+07
1.83997e+07
1.84045e+07
1.84093e+07
1.84142e+07
1.84191e+07
1.8424e+07
1.8429e+07
1.84339e+07
1.84389e+07
1.84439e+07
1.8449e+07
1.8454e+07
1.84591e+07
1.84639e+07
1.80205e+07
1.80205e+07
1.80206e+07
1.80206e+07
1.80206e+07
1.80207e+07
1.80208e+07
1.80208e+07
1.80209e+07
1.8021e+07
1.80211e+07
1.80212e+07
1.80213e+07
1.80214e+07
1.80216e+07
1.80217e+07
1.80219e+07
1.80221e+07
1.80222e+07
1.80224e+07
1.80226e+07
1.80229e+07
1.80231e+07
1.80233e+07
1.80236e+07
1.80239e+07
1.80241e+07
1.80244e+07
1.80248e+07
1.80251e+07
1.80254e+07
1.80258e+07
1.80261e+07
1.80265e+07
1.80269e+07
1.80274e+07
1.80278e+07
1.80282e+07
1.80287e+07
1.80292e+07
1.80297e+07
1.80302e+07
1.80308e+07
1.80313e+07
1.80319e+07
1.80325e+07
1.80331e+07
1.80338e+07
1.80344e+07
1.80351e+07
1.80358e+07
1.80366e+07
1.80373e+07
1.80381e+07
1.80389e+07
1.80397e+07
1.80405e+07
1.80414e+07
1.80423e+07
1.80432e+07
1.80441e+07
1.80451e+07
1.8046e+07
1.8047e+07
1.80481e+07
1.80491e+07
1.80502e+07
1.80513e+07
1.80524e+07
1.80536e+07
1.80548e+07
1.8056e+07
1.80572e+07
1.80585e+07
1.80598e+07
1.80611e+07
1.80624e+07
1.80638e+07
1.80652e+07
1.80666e+07
1.80681e+07
1.80695e+07
1.80711e+07
1.80726e+07
1.80742e+07
1.80758e+07
1.80774e+07
1.8079e+07
1.80807e+07
1.80824e+07
1.80842e+07
1.80859e+07
1.80877e+07
1.80896e+07
1.80914e+07
1.80933e+07
1.80952e+07
1.80972e+07
1.80992e+07
1.81012e+07
1.81032e+07
1.81053e+07
1.81074e+07
1.81095e+07
1.81117e+07
1.81139e+07
1.81161e+07
1.81184e+07
1.81207e+07
1.8123e+07
1.81254e+07
1.81277e+07
1.81302e+07
1.81326e+07
1.81351e+07
1.81376e+07
1.81402e+07
1.81427e+07
1.81454e+07
1.8148e+07
1.81507e+07
1.81534e+07
1.81561e+07
1.81589e+07
1.81617e+07
1.81646e+07
1.81674e+07
1.81703e+07
1.81733e+07
1.81763e+07
1.81793e+07
1.81823e+07
1.81854e+07
1.81885e+07
1.81916e+07
1.81948e+07
1.8198e+07
1.82012e+07
1.82045e+07
1.82078e+07
1.82112e+07
1.82145e+07
1.82179e+07
1.82214e+07
1.82249e+07
1.82284e+07
1.82319e+07
1.82355e+07
1.82391e+07
1.82427e+07
1.82464e+07
1.82501e+07
1.82538e+07
1.82576e+07
1.82614e+07
1.82652e+07
1.82691e+07
1.8273e+07
1.82769e+07
1.82809e+07
1.82849e+07
1.82889e+07
1.8293e+07
1.82971e+07
1.83012e+07
1.83054e+07
1.83096e+07
1.83138e+07
1.8318e+07
1.83223e+07
1.83266e+07
1.8331e+07
1.83353e+07
1.83397e+07
1.83442e+07
1.83486e+07
1.83531e+07
1.83577e+07
1.83622e+07
1.83668e+07
1.83714e+07
1.83761e+07
1.83807e+07
1.83854e+07
1.83902e+07
1.83949e+07
1.83997e+07
1.84045e+07
1.84093e+07
1.84142e+07
1.84191e+07
1.8424e+07
1.8429e+07
1.84339e+07
1.84389e+07
1.84439e+07
1.8449e+07
1.8454e+07
1.84588e+07
1.84634e+07
1.80205e+07
1.80205e+07
1.80206e+07
1.80206e+07
1.80206e+07
1.80207e+07
1.80208e+07
1.80208e+07
1.80209e+07
1.8021e+07
1.80211e+07
1.80212e+07
1.80213e+07
1.80214e+07
1.80216e+07
1.80217e+07
1.80219e+07
1.80221e+07
1.80222e+07
1.80224e+07
1.80226e+07
1.80229e+07
1.80231e+07
1.80233e+07
1.80236e+07
1.80239e+07
1.80241e+07
1.80244e+07
1.80248e+07
1.80251e+07
1.80254e+07
1.80258e+07
1.80261e+07
1.80265e+07
1.80269e+07
1.80274e+07
1.80278e+07
1.80282e+07
1.80287e+07
1.80292e+07
1.80297e+07
1.80302e+07
1.80308e+07
1.80313e+07
1.80319e+07
1.80325e+07
1.80331e+07
1.80338e+07
1.80344e+07
1.80351e+07
1.80358e+07
1.80366e+07
1.80373e+07
1.80381e+07
1.80389e+07
1.80397e+07
1.80405e+07
1.80414e+07
1.80423e+07
1.80432e+07
1.80441e+07
1.80451e+07
1.8046e+07
1.8047e+07
1.80481e+07
1.80491e+07
1.80502e+07
1.80513e+07
1.80524e+07
1.80536e+07
1.80548e+07
1.8056e+07
1.80572e+07
1.80585e+07
1.80598e+07
1.80611e+07
1.80624e+07
1.80638e+07
1.80652e+07
1.80666e+07
1.80681e+07
1.80695e+07
1.80711e+07
1.80726e+07
1.80742e+07
1.80758e+07
1.80774e+07
1.8079e+07
1.80807e+07
1.80824e+07
1.80842e+07
1.80859e+07
1.80877e+07
1.80896e+07
1.80914e+07
1.80933e+07
1.80952e+07
1.80972e+07
1.80992e+07
1.81012e+07
1.81032e+07
1.81053e+07
1.81074e+07
1.81095e+07
1.81117e+07
1.81139e+07
1.81161e+07
1.81184e+07
1.81207e+07
1.8123e+07
1.81254e+07
1.81277e+07
1.81302e+07
1.81326e+07
1.81351e+07
1.81376e+07
1.81402e+07
1.81427e+07
1.81454e+07
1.8148e+07
1.81507e+07
1.81534e+07
1.81561e+07
1.81589e+07
1.81617e+07
1.81646e+07
1.81674e+07
1.81703e+07
1.81733e+07
1.81763e+07
1.81793e+07
1.81823e+07
1.81854e+07
1.81885e+07
1.81916e+07
1.81948e+07
1.8198e+07
1.82012e+07
1.82045e+07
1.82078e+07
1.82112e+07
1.82145e+07
1.82179e+07
1.82214e+07
1.82249e+07
1.82284e+07
1.82319e+07
1.82355e+07
1.82391e+07
1.82427e+07
1.82464e+07
1.82501e+07
1.82538e+07
1.82576e+07
1.82614e+07
1.82652e+07
1.82691e+07
1.8273e+07
1.82769e+07
1.82809e+07
1.82849e+07
1.82889e+07
1.8293e+07
1.82971e+07
1.83012e+07
1.83054e+07
1.83096e+07
1.83138e+07
1.8318e+07
1.83223e+07
1.83266e+07
1.8331e+07
1.83353e+07
1.83397e+07
1.83442e+07
1.83486e+07
1.83531e+07
1.83577e+07
1.83622e+07
1.83668e+07
1.83714e+07
1.83761e+07
1.83807e+07
1.83854e+07
1.83902e+07
1.83949e+07
1.83997e+07
1.84045e+07
1.84093e+07
1.84142e+07
1.84191e+07
1.8424e+07
1.8429e+07
1.84339e+07
1.84389e+07
1.84439e+07
1.8449e+07
1.8454e+07
1.84588e+07
1.84634e+07
1.80205e+07
1.80205e+07
1.80206e+07
1.80206e+07
1.80206e+07
1.80207e+07
1.80208e+07
1.80208e+07
1.80209e+07
1.8021e+07
1.80211e+07
1.80212e+07
1.80213e+07
1.80214e+07
1.80216e+07
1.80217e+07
1.80219e+07
1.80221e+07
1.80222e+07
1.80224e+07
1.80226e+07
1.80229e+07
1.80231e+07
1.80233e+07
1.80236e+07
1.80239e+07
1.80241e+07
1.80244e+07
1.80248e+07
1.80251e+07
1.80254e+07
1.80258e+07
1.80261e+07
1.80265e+07
1.80269e+07
1.80274e+07
1.80278e+07
1.80282e+07
1.80287e+07
1.80292e+07
1.80297e+07
1.80302e+07
1.80308e+07
1.80313e+07
1.80319e+07
1.80325e+07
1.80331e+07
1.80338e+07
1.80344e+07
1.80351e+07
1.80358e+07
1.80366e+07
1.80373e+07
1.80381e+07
1.80389e+07
1.80397e+07
1.80405e+07
1.80414e+07
1.80423e+07
1.80432e+07
1.80441e+07
1.80451e+07
1.8046e+07
1.8047e+07
1.80481e+07
1.80491e+07
1.80502e+07
1.80513e+07
1.80524e+07
1.80536e+07
1.80548e+07
1.8056e+07
1.80572e+07
1.80585e+07
1.80598e+07
1.80611e+07
1.80624e+07
1.80638e+07
1.80652e+07
1.80666e+07
1.80681e+07
1.80695e+07
1.80711e+07
1.80726e+07
1.80742e+07
1.80758e+07
1.80774e+07
1.8079e+07
1.80807e+07
1.80824e+07
1.80842e+07
1.80859e+07
1.80877e+07
1.80896e+07
1.80914e+07
1.80933e+07
1.80952e+07
1.80972e+07
1.80992e+07
1.81012e+07
1.81032e+07
1.81053e+07
1.81074e+07
1.81095e+07
1.81117e+07
1.81139e+07
1.81161e+07
1.81184e+07
1.81207e+07
1.8123e+07
1.81254e+07
1.81277e+07
1.81302e+07
1.81326e+07
1.81351e+07
1.81376e+07
1.81402e+07
1.81427e+07
1.81454e+07
1.8148e+07
1.81507e+07
1.81534e+07
1.81561e+07
1.81589e+07
1.81617e+07
1.81646e+07
1.81674e+07
1.81703e+07
1.81733e+07
1.81763e+07
1.81793e+07
1.81823e+07
1.81854e+07
1.81885e+07
1.81916e+07
1.81948e+07
1.8198e+07
1.82012e+07
1.82045e+07
1.82078e+07
1.82112e+07
1.82145e+07
1.82179e+07
1.82214e+07
1.82249e+07
1.82284e+07
1.82319e+07
1.82355e+07
1.82391e+07
1.82427e+07
1.82464e+07
1.82501e+07
1.82538e+07
1.82576e+07
1.82614e+07
1.82652e+07
1.82691e+07
1.8273e+07
1.82769e+07
1.82809e+07
1.82849e+07
1.82889e+07
1.8293e+07
1.82971e+07
1.83012e+07
1.83054e+07
1.83096e+07
1.83138e+07
1.8318e+07
1.83223e+07
1.83266e+07
1.8331e+07
1.83353e+07
1.83397e+07
1.83442e+07
1.83486e+07
1.83531e+07
1.83577e+07
1.83622e+07
1.83668e+07
1.83714e+07
1.83761e+07
1.83807e+07
1.83854e+07
1.83902e+07
1.83949e+07
1.83997e+07
1.84045e+07
1.84093e+07
1.84142e+07
1.84191e+07
1.8424e+07
1.8429e+07
1.84339e+07
1.84389e+07
1.84439e+07
1.8449e+07
1.8454e+07
1.84588e+07
1.84633e+07
1.80205e+07
1.80205e+07
1.80206e+07
1.80206e+07
1.80206e+07
1.80207e+07
1.80208e+07
1.80208e+07
1.80209e+07
1.8021e+07
1.80211e+07
1.80212e+07
1.80213e+07
1.80214e+07
1.80216e+07
1.80217e+07
1.80219e+07
1.80221e+07
1.80222e+07
1.80224e+07
1.80226e+07
1.80229e+07
1.80231e+07
1.80233e+07
1.80236e+07
1.80239e+07
1.80241e+07
1.80244e+07
1.80248e+07
1.80251e+07
1.80254e+07
1.80258e+07
1.80261e+07
1.80265e+07
1.80269e+07
1.80274e+07
1.80278e+07
1.80282e+07
1.80287e+07
1.80292e+07
1.80297e+07
1.80302e+07
1.80308e+07
1.80313e+07
1.80319e+07
1.80325e+07
1.80331e+07
1.80338e+07
1.80344e+07
1.80351e+07
1.80358e+07
1.80366e+07
1.80373e+07
1.80381e+07
1.80389e+07
1.80397e+07
1.80405e+07
1.80414e+07
1.80423e+07
1.80432e+07
1.80441e+07
1.80451e+07
1.8046e+07
1.8047e+07
1.80481e+07
1.80491e+07
1.80502e+07
1.80513e+07
1.80524e+07
1.80536e+07
1.80548e+07
1.8056e+07
1.80572e+07
1.80585e+07
1.80598e+07
1.80611e+07
1.80624e+07
1.80638e+07
1.80652e+07
1.80666e+07
1.80681e+07
1.80695e+07
1.80711e+07
1.80726e+07
1.80742e+07
1.80758e+07
1.80774e+07
1.8079e+07
1.80807e+07
1.80824e+07
1.80842e+07
1.80859e+07
1.80877e+07
1.80896e+07
1.80914e+07
1.80933e+07
1.80952e+07
1.80972e+07
1.80992e+07
1.81012e+07
1.81032e+07
1.81053e+07
1.81074e+07
1.81095e+07
1.81117e+07
1.81139e+07
1.81161e+07
1.81184e+07
1.81207e+07
1.8123e+07
1.81254e+07
1.81277e+07
1.81302e+07
1.81326e+07
1.81351e+07
1.81376e+07
1.81402e+07
1.81427e+07
1.81454e+07
1.8148e+07
1.81507e+07
1.81534e+07
1.81561e+07
1.81589e+07
1.81617e+07
1.81646e+07
1.81674e+07
1.81703e+07
1.81733e+07
1.81763e+07
1.81793e+07
1.81823e+07
1.81854e+07
1.81885e+07
1.81916e+07
1.81948e+07
1.8198e+07
1.82012e+07
1.82045e+07
1.82078e+07
1.82112e+07
1.82145e+07
1.82179e+07
1.82214e+07
1.82249e+07
1.82284e+07
1.82319e+07
1.82355e+07
1.82391e+07
1.82427e+07
1.82464e+07
1.82501e+07
1.82538e+07
1.82576e+07
1.82614e+07
1.82652e+07
1.82691e+07
1.8273e+07
1.82769e+07
1.82809e+07
1.82849e+07
1.82889e+07
1.8293e+07
1.82971e+07
1.83012e+07
1.83054e+07
1.83096e+07
1.83138e+07
1.8318e+07
1.83223e+07
1.83266e+07
1.8331e+07
1.83353e+07
1.83397e+07
1.83442e+07
1.83486e+07
1.83531e+07
1.83577e+07
1.83622e+07
1.83668e+07
1.83714e+07
1.83761e+07
1.83807e+07
1.83854e+07
1.83902e+07
1.83949e+07
1.83997e+07
1.84045e+07
1.84093e+07
1.84142e+07
1.84191e+07
1.8424e+07
1.8429e+07
1.84339e+07
1.84389e+07
1.84439e+07
1.8449e+07
1.8454e+07
1.84588e+07
1.84633e+07
1.8473e+07
1.84763e+07
1.84781e+07
1.84792e+07
1.84802e+07
1.84811e+07
1.84821e+07
1.8483e+07
1.84839e+07
1.84848e+07
1.84856e+07
1.84865e+07
1.84874e+07
1.84882e+07
1.84889e+07
1.84897e+07
1.84903e+07
1.84908e+07
1.84912e+07
1.84911e+07
1.84727e+07
1.84756e+07
1.84774e+07
1.84785e+07
1.84795e+07
1.84805e+07
1.84814e+07
1.84823e+07
1.84832e+07
1.84841e+07
1.8485e+07
1.84859e+07
1.84867e+07
1.84875e+07
1.84883e+07
1.8489e+07
1.84896e+07
1.84902e+07
1.84905e+07
1.84905e+07
1.84724e+07
1.84754e+07
1.84773e+07
1.84785e+07
1.84795e+07
1.84805e+07
1.84814e+07
1.84823e+07
1.84832e+07
1.84841e+07
1.84849e+07
1.84858e+07
1.84866e+07
1.84875e+07
1.84882e+07
1.84889e+07
1.84895e+07
1.849e+07
1.84903e+07
1.84902e+07
1.84711e+07
1.84731e+07
1.84743e+07
1.84753e+07
1.84762e+07
1.84772e+07
1.84781e+07
1.8479e+07
1.84799e+07
1.84808e+07
1.84817e+07
1.84826e+07
1.84835e+07
1.84843e+07
1.84851e+07
1.84858e+07
1.84865e+07
1.8487e+07
1.84874e+07
1.84875e+07
1.84695e+07
1.84714e+07
1.84731e+07
1.84745e+07
1.84758e+07
1.84769e+07
1.84779e+07
1.84788e+07
1.84797e+07
1.84806e+07
1.84813e+07
1.84822e+07
1.84829e+07
1.84836e+07
1.84842e+07
1.84848e+07
1.84854e+07
1.84859e+07
1.84863e+07
1.84867e+07
1.84657e+07
1.8466e+07
1.84661e+07
1.84663e+07
1.84666e+07
1.84671e+07
1.84678e+07
1.84686e+07
1.84694e+07
1.84703e+07
1.84713e+07
1.84722e+07
1.84732e+07
1.84742e+07
1.84753e+07
1.84763e+07
1.84773e+07
1.84784e+07
1.84795e+07
1.84808e+07
1.84625e+07
1.84626e+07
1.84634e+07
1.84645e+07
1.84655e+07
1.84664e+07
1.84673e+07
1.84682e+07
1.84691e+07
1.84699e+07
1.84708e+07
1.84714e+07
1.84723e+07
1.8473e+07
1.84738e+07
1.84747e+07
1.84757e+07
1.84768e+07
1.84782e+07
1.84797e+07
1.84574e+07
1.8455e+07
1.84532e+07
1.84522e+07
1.8452e+07
1.84521e+07
1.84524e+07
1.8453e+07
1.84538e+07
1.84547e+07
1.84558e+07
1.84569e+07
1.84583e+07
1.84598e+07
1.84614e+07
1.84631e+07
1.84652e+07
1.84674e+07
1.847e+07
1.84728e+07
1.84559e+07
1.84535e+07
1.84521e+07
1.84516e+07
1.84515e+07
1.84517e+07
1.84521e+07
1.84528e+07
1.84535e+07
1.84544e+07
1.84555e+07
1.84566e+07
1.84579e+07
1.84593e+07
1.84608e+07
1.84626e+07
1.84644e+07
1.84666e+07
1.84692e+07
1.8472e+07
1.84544e+07
1.84505e+07
1.84484e+07
1.84475e+07
1.84472e+07
1.84473e+07
1.84476e+07
1.84482e+07
1.8449e+07
1.84499e+07
1.8451e+07
1.84522e+07
1.84536e+07
1.84551e+07
1.84568e+07
1.84587e+07
1.84608e+07
1.84632e+07
1.8466e+07
1.84693e+07
1.84891e+07
1.84908e+07
1.84942e+07
1.84982e+07
1.85022e+07
1.85063e+07
1.85105e+07
1.85147e+07
1.85189e+07
1.85231e+07
1.85273e+07
1.85315e+07
1.85358e+07
1.854e+07
1.85443e+07
1.85486e+07
1.85529e+07
1.85572e+07
1.85615e+07
1.85658e+07
1.85702e+07
1.85745e+07
1.85789e+07
1.85832e+07
1.85876e+07
1.8592e+07
1.85964e+07
1.86008e+07
1.86052e+07
1.86096e+07
1.8614e+07
1.86184e+07
1.86229e+07
1.86273e+07
1.86318e+07
1.86362e+07
1.86407e+07
1.86452e+07
1.86496e+07
1.86541e+07
1.86586e+07
1.86631e+07
1.86676e+07
1.86721e+07
1.86766e+07
1.86811e+07
1.86856e+07
1.86901e+07
1.86946e+07
1.86992e+07
1.87037e+07
1.87082e+07
1.87128e+07
1.87173e+07
1.87218e+07
1.87264e+07
1.87309e+07
1.87354e+07
1.874e+07
1.87445e+07
1.87491e+07
1.87536e+07
1.87581e+07
1.87627e+07
1.87672e+07
1.87718e+07
1.87763e+07
1.87809e+07
1.87854e+07
1.87899e+07
1.87945e+07
1.8799e+07
1.88036e+07
1.88081e+07
1.88126e+07
1.88171e+07
1.88217e+07
1.88262e+07
1.88307e+07
1.88352e+07
1.88397e+07
1.88442e+07
1.88488e+07
1.88533e+07
1.88577e+07
1.88622e+07
1.88667e+07
1.88712e+07
1.88757e+07
1.88801e+07
1.88846e+07
1.88891e+07
1.88935e+07
1.88979e+07
1.89024e+07
1.89068e+07
1.89112e+07
1.89156e+07
1.892e+07
1.89243e+07
1.89287e+07
1.8933e+07
1.89374e+07
1.89417e+07
1.8946e+07
1.89503e+07
1.89546e+07
1.89589e+07
1.89632e+07
1.89675e+07
1.89717e+07
1.8976e+07
1.89802e+07
1.89844e+07
1.89886e+07
1.89928e+07
1.8997e+07
1.90012e+07
1.90053e+07
1.90095e+07
1.90136e+07
1.90177e+07
1.90218e+07
1.90259e+07
1.903e+07
1.90341e+07
1.90381e+07
1.90421e+07
1.90462e+07
1.90502e+07
1.90542e+07
1.90581e+07
1.90621e+07
1.90661e+07
1.907e+07
1.90739e+07
1.90778e+07
1.90817e+07
1.90856e+07
1.90894e+07
1.90932e+07
1.90971e+07
1.91009e+07
1.91047e+07
1.91084e+07
1.91122e+07
1.91159e+07
1.91196e+07
1.91233e+07
1.9127e+07
1.91307e+07
1.91344e+07
1.9138e+07
1.91416e+07
1.91452e+07
1.91488e+07
1.91523e+07
1.91559e+07
1.91594e+07
1.91629e+07
1.91664e+07
1.91699e+07
1.91733e+07
1.91767e+07
1.91802e+07
1.91836e+07
1.91869e+07
1.91903e+07
1.91936e+07
1.91969e+07
1.92002e+07
1.92035e+07
1.92068e+07
1.921e+07
1.92132e+07
1.92164e+07
1.92196e+07
1.92228e+07
1.92259e+07
1.9229e+07
1.92321e+07
1.92352e+07
1.92383e+07
1.92413e+07
1.92443e+07
1.92473e+07
1.92503e+07
1.92532e+07
1.92562e+07
1.92591e+07
1.9262e+07
1.92649e+07
1.92677e+07
1.92705e+07
1.92733e+07
1.92761e+07
1.92789e+07
1.92817e+07
1.92844e+07
1.92872e+07
1.84889e+07
1.84907e+07
1.84942e+07
1.84982e+07
1.85022e+07
1.85063e+07
1.85105e+07
1.85147e+07
1.85189e+07
1.85231e+07
1.85273e+07
1.85315e+07
1.85358e+07
1.854e+07
1.85443e+07
1.85486e+07
1.85529e+07
1.85572e+07
1.85615e+07
1.85658e+07
1.85702e+07
1.85745e+07
1.85789e+07
1.85832e+07
1.85876e+07
1.8592e+07
1.85964e+07
1.86008e+07
1.86052e+07
1.86096e+07
1.8614e+07
1.86184e+07
1.86229e+07
1.86273e+07
1.86318e+07
1.86362e+07
1.86407e+07
1.86452e+07
1.86496e+07
1.86541e+07
1.86586e+07
1.86631e+07
1.86676e+07
1.86721e+07
1.86766e+07