/*--------------------------------*- C++ -*----------------------------------*\
| =========                 |                                                 |
| \\      /  F ield         | OpenFOAM: The Open Source CFD Toolbox           |
|  \\    /   O peration     | Version:  3.0.x                                 |
|   \\  /    A nd           | Web:      www.OpenFOAM.org                      |
|    \\/     M anipulation  |                                                 |
\*---------------------------------------------------------------------------*/
FoamFile
{
    version     2.0;
    format      ascii;
    class       volScalarField;
    location    "0.48";
    object      rho;
}
// * * * * * * * * * * * * * * * * * * * * * * * * * * * * * * * * * * * * * //

dimensions      [1 -3 0 0 0 0 0];

internalField   nonuniform List<scalar> 
13800
(
50.5146
50.5147
50.5148
50.5149
50.515
50.5151
50.5152
50.5154
50.5156
50.5158
50.516
50.5163
50.5166
50.5169
50.5172
50.5175
50.5179
50.5183
50.5187
50.5192
50.5197
50.5202
50.5207
50.5213
50.5219
50.5225
50.5232
50.5239
50.5246
50.5254
50.5262
50.527
50.5279
50.5288
50.5297
50.5307
50.5317
50.5327
50.5338
50.535
50.5361
50.5374
50.5387
50.54
50.5414
50.5428
50.5443
50.5458
50.5473
50.5489
50.5506
50.5523
50.554
50.5558
50.5576
50.5596
50.5616
50.5636
50.5657
50.5679
50.5701
50.5723
50.5746
50.577
50.5794
50.5818
50.5843
50.5869
50.5896
50.5923
50.5951
50.5979
50.6008
50.6038
50.6068
50.6099
50.6131
50.6163
50.6195
50.6229
50.6263
50.6297
50.6332
50.6368
50.6405
50.6442
50.648
50.6519
50.6558
50.6598
50.6638
50.668
50.6722
50.6764
50.6808
50.6852
50.6897
50.6942
50.6988
50.7035
50.7083
50.7131
50.718
50.723
50.7281
50.7332
50.7384
50.7437
50.749
50.7544
50.7599
50.7655
50.7711
50.7769
50.7827
50.7885
50.7945
50.8005
50.8066
50.8127
50.819
50.8253
50.8317
50.8382
50.8447
50.8514
50.8581
50.8648
50.8717
50.8786
50.8856
50.8927
50.8999
50.9071
50.9145
50.9219
50.9293
50.9369
50.9445
50.9522
50.96
50.9679
50.9758
50.9838
50.9919
51.0001
51.0083
51.0167
51.0251
51.0335
51.0421
51.0507
51.0594
51.0682
51.0771
51.086
51.095
51.1041
51.1133
51.1225
51.1318
51.1412
51.1507
51.1602
51.1698
51.1795
51.1892
51.1991
51.209
51.2189
51.229
51.2391
51.2493
51.2595
51.2698
51.2802
51.2907
51.3012
51.3118
51.3225
51.3332
51.344
51.3549
51.3658
51.3769
51.3879
51.3991
51.4102
51.4216
51.4327
51.4443
51.4554
51.4673
51.4784
51.4906
51.5016
51.5141
51.5251
51.5383
51.5486
50.5151
50.5152
50.5153
50.5154
50.5155
50.5156
50.5157
50.5159
50.5161
50.5163
50.5165
50.5168
50.517
50.5173
50.5177
50.518
50.5184
50.5188
50.5192
50.5197
50.5201
50.5206
50.5212
50.5217
50.5223
50.523
50.5236
50.5243
50.5251
50.5258
50.5266
50.5274
50.5283
50.5292
50.5301
50.5311
50.5321
50.5332
50.5342
50.5354
50.5366
50.5378
50.5391
50.5404
50.5418
50.5432
50.5447
50.5462
50.5477
50.5493
50.551
50.5527
50.5544
50.5562
50.558
50.5599
50.5619
50.564
50.5661
50.5682
50.5704
50.5727
50.575
50.5773
50.5797
50.5822
50.5847
50.5873
50.5899
50.5926
50.5954
50.5983
50.6012
50.6041
50.6072
50.6102
50.6134
50.6166
50.6199
50.6232
50.6266
50.63
50.6336
50.6371
50.6408
50.6445
50.6483
50.6522
50.6561
50.6601
50.6642
50.6683
50.6725
50.6768
50.6811
50.6855
50.69
50.6945
50.6992
50.7039
50.7086
50.7135
50.7184
50.7233
50.7284
50.7335
50.7387
50.744
50.7493
50.7548
50.7603
50.7658
50.7715
50.7772
50.783
50.7888
50.7948
50.8008
50.8069
50.8131
50.8193
50.8256
50.832
50.8385
50.8451
50.8517
50.8584
50.8652
50.872
50.879
50.886
50.8931
50.9002
50.9075
50.9148
50.9222
50.9297
50.9372
50.9448
50.9525
50.9603
50.9682
50.9761
50.9841
50.9922
51.0004
51.0087
51.017
51.0254
51.0339
51.0424
51.051
51.0597
51.0685
51.0774
51.0863
51.0953
51.1044
51.1136
51.1228
51.1321
51.1415
51.151
51.1605
51.1701
51.1798
51.1895
51.1994
51.2093
51.2192
51.2293
51.2394
51.2496
51.2598
51.2702
51.2806
51.291
51.3016
51.3122
51.3228
51.3336
51.3444
51.3552
51.3662
51.3772
51.3882
51.3994
51.4105
51.4219
51.433
51.4446
51.4558
51.4677
51.4787
51.4909
51.5019
51.5144
51.5254
51.5386
51.5476
50.5151
50.5152
50.5153
50.5154
50.5155
50.5156
50.5157
50.5159
50.5161
50.5163
50.5165
50.5168
50.517
50.5173
50.5177
50.518
50.5184
50.5188
50.5192
50.5197
50.5201
50.5206
50.5212
50.5217
50.5223
50.523
50.5236
50.5243
50.5251
50.5258
50.5266
50.5274
50.5283
50.5292
50.5301
50.5311
50.5321
50.5332
50.5342
50.5354
50.5366
50.5378
50.5391
50.5404
50.5418
50.5432
50.5447
50.5462
50.5477
50.5493
50.551
50.5527
50.5544
50.5562
50.558
50.5599
50.5619
50.564
50.5661
50.5682
50.5704
50.5727
50.575
50.5773
50.5797
50.5822
50.5847
50.5873
50.5899
50.5926
50.5954
50.5983
50.6012
50.6041
50.6072
50.6102
50.6134
50.6166
50.6199
50.6232
50.6266
50.63
50.6336
50.6371
50.6408
50.6445
50.6483
50.6522
50.6561
50.6601
50.6642
50.6683
50.6725
50.6768
50.6811
50.6855
50.69
50.6945
50.6992
50.7039
50.7086
50.7135
50.7184
50.7233
50.7284
50.7335
50.7387
50.744
50.7493
50.7548
50.7603
50.7658
50.7715
50.7772
50.783
50.7888
50.7948
50.8008
50.8069
50.8131
50.8193
50.8256
50.832
50.8385
50.8451
50.8517
50.8584
50.8652
50.872
50.879
50.886
50.8931
50.9002
50.9075
50.9148
50.9222
50.9297
50.9372
50.9448
50.9525
50.9603
50.9682
50.9761
50.9841
50.9922
51.0004
51.0087
51.017
51.0254
51.0339
51.0424
51.051
51.0597
51.0685
51.0774
51.0863
51.0953
51.1044
51.1136
51.1228
51.1321
51.1415
51.151
51.1605
51.1701
51.1798
51.1896
51.1994
51.2093
51.2192
51.2293
51.2394
51.2496
51.2598
51.2702
51.2806
51.291
51.3016
51.3122
51.3228
51.3336
51.3444
51.3552
51.3662
51.3772
51.3882
51.3994
51.4105
51.4219
51.433
51.4446
51.4558
51.4677
51.4787
51.4909
51.5019
51.5144
51.5254
51.5386
51.5478
50.5151
50.5152
50.5153
50.5154
50.5155
50.5156
50.5157
50.5159
50.5161
50.5163
50.5165
50.5168
50.517
50.5173
50.5177
50.518
50.5184
50.5188
50.5192
50.5197
50.5201
50.5206
50.5212
50.5217
50.5223
50.523
50.5236
50.5243
50.5251
50.5258
50.5266
50.5274
50.5283
50.5292
50.5301
50.5311
50.5321
50.5332
50.5342
50.5354
50.5366
50.5378
50.5391
50.5404
50.5418
50.5432
50.5447
50.5462
50.5477
50.5493
50.551
50.5527
50.5544
50.5562
50.558
50.5599
50.5619
50.564
50.5661
50.5682
50.5704
50.5727
50.575
50.5773
50.5797
50.5822
50.5847
50.5873
50.5899
50.5926
50.5954
50.5983
50.6012
50.6041
50.6072
50.6102
50.6134
50.6166
50.6199
50.6232
50.6266
50.63
50.6336
50.6371
50.6408
50.6445
50.6483
50.6522
50.6561
50.6601
50.6642
50.6683
50.6725
50.6768
50.6811
50.6855
50.69
50.6945
50.6992
50.7039
50.7086
50.7135
50.7184
50.7233
50.7284
50.7335
50.7387
50.744
50.7493
50.7548
50.7603
50.7658
50.7715
50.7772
50.783
50.7888
50.7948
50.8008
50.8069
50.8131
50.8193
50.8256
50.832
50.8385
50.8451
50.8517
50.8584
50.8652
50.872
50.879
50.886
50.8931
50.9002
50.9075
50.9148
50.9222
50.9297
50.9372
50.9448
50.9525
50.9603
50.9682
50.9761
50.9841
50.9922
51.0004
51.0087
51.017
51.0254
51.0339
51.0424
51.051
51.0597
51.0685
51.0774
51.0863
51.0953
51.1044
51.1136
51.1228
51.1321
51.1415
51.151
51.1605
51.1701
51.1798
51.1896
51.1994
51.2093
51.2192
51.2293
51.2394
51.2496
51.2598
51.2702
51.2806
51.291
51.3016
51.3122
51.3228
51.3336
51.3444
51.3552
51.3662
51.3772
51.3882
51.3994
51.4105
51.4219
51.433
51.4446
51.4558
51.4677
51.4787
51.4909
51.5019
51.5144
51.5255
51.5385
51.5491
50.5151
50.5152
50.5153
50.5154
50.5155
50.5156
50.5157
50.5159
50.5161
50.5163
50.5165
50.5168
50.517
50.5173
50.5177
50.518
50.5184
50.5188
50.5192
50.5197
50.5201
50.5206
50.5212
50.5217
50.5223
50.523
50.5236
50.5243
50.525
50.5258
50.5266
50.5274
50.5283
50.5292
50.5301
50.5311
50.5321
50.5332
50.5342
50.5354
50.5366
50.5378
50.5391
50.5404
50.5418
50.5432
50.5447
50.5462
50.5477
50.5493
50.551
50.5526
50.5544
50.5562
50.558
50.5599
50.5619
50.564
50.5661
50.5682
50.5704
50.5727
50.575
50.5773
50.5797
50.5822
50.5847
50.5873
50.5899
50.5926
50.5954
50.5983
50.6012
50.6041
50.6072
50.6102
50.6134
50.6166
50.6199
50.6232
50.6266
50.63
50.6336
50.6371
50.6408
50.6445
50.6483
50.6522
50.6561
50.6601
50.6642
50.6683
50.6725
50.6768
50.6811
50.6855
50.69
50.6945
50.6992
50.7039
50.7086
50.7135
50.7184
50.7233
50.7284
50.7335
50.7387
50.744
50.7493
50.7548
50.7603
50.7658
50.7715
50.7772
50.783
50.7888
50.7948
50.8008
50.8069
50.8131
50.8193
50.8256
50.832
50.8385
50.8451
50.8517
50.8584
50.8652
50.872
50.879
50.886
50.8931
50.9002
50.9075
50.9148
50.9222
50.9297
50.9372
50.9448
50.9525
50.9603
50.9682
50.9761
50.9841
50.9922
51.0004
51.0087
51.017
51.0254
51.0339
51.0424
51.051
51.0597
51.0685
51.0774
51.0863
51.0953
51.1044
51.1136
51.1228
51.1321
51.1415
51.151
51.1605
51.1701
51.1798
51.1896
51.1994
51.2093
51.2192
51.2293
51.2394
51.2496
51.2598
51.2702
51.2806
51.291
51.3016
51.3122
51.3228
51.3336
51.3444
51.3552
51.3662
51.3772
51.3882
51.3994
51.4105
51.4219
51.433
51.4446
51.4558
51.4677
51.4787
51.4909
51.502
51.5144
51.5255
51.5382
51.5488
50.5151
50.5152
50.5153
50.5154
50.5155
50.5156
50.5157
50.5159
50.5161
50.5163
50.5165
50.5168
50.517
50.5173
50.5177
50.518
50.5184
50.5188
50.5192
50.5197
50.5201
50.5206
50.5212
50.5217
50.5223
50.523
50.5236
50.5243
50.525
50.5258
50.5266
50.5274
50.5283
50.5292
50.5301
50.5311
50.5321
50.5332
50.5342
50.5354
50.5366
50.5378
50.5391
50.5404
50.5418
50.5432
50.5447
50.5462
50.5477
50.5493
50.551
50.5526
50.5544
50.5562
50.558
50.5599
50.5619
50.564
50.5661
50.5682
50.5704
50.5727
50.575
50.5773
50.5797
50.5822
50.5847
50.5873
50.5899
50.5926
50.5954
50.5983
50.6012
50.6041
50.6072
50.6102
50.6134
50.6166
50.6199
50.6232
50.6266
50.63
50.6336
50.6371
50.6408
50.6445
50.6483
50.6522
50.6561
50.6601
50.6642
50.6683
50.6725
50.6768
50.6811
50.6855
50.69
50.6945
50.6992
50.7039
50.7086
50.7135
50.7184
50.7233
50.7284
50.7335
50.7387
50.744
50.7493
50.7548
50.7603
50.7658
50.7715
50.7772
50.783
50.7888
50.7948
50.8008
50.8069
50.8131
50.8193
50.8256
50.832
50.8385
50.8451
50.8517
50.8584
50.8652
50.872
50.879
50.886
50.8931
50.9002
50.9075
50.9148
50.9222
50.9297
50.9372
50.9448
50.9525
50.9603
50.9682
50.9761
50.9841
50.9922
51.0004
51.0087
51.017
51.0254
51.0339
51.0424
51.051
51.0597
51.0685
51.0774
51.0863
51.0953
51.1044
51.1136
51.1228
51.1321
51.1415
51.151
51.1605
51.1701
51.1798
51.1896
51.1994
51.2093
51.2192
51.2293
51.2394
51.2496
51.2598
51.2702
51.2806
51.291
51.3016
51.3122
51.3228
51.3336
51.3444
51.3552
51.3662
51.3772
51.3882
51.3994
51.4106
51.4218
51.4331
51.4445
51.456
51.4673
51.4792
51.4904
51.5024
51.514
51.5257
51.5376
51.5488
50.5151
50.5152
50.5153
50.5154
50.5155
50.5156
50.5157
50.5159
50.5161
50.5163
50.5165
50.5168
50.517
50.5173
50.5177
50.518
50.5184
50.5188
50.5192
50.5197
50.5201
50.5206
50.5212
50.5217
50.5223
50.523
50.5236
50.5243
50.5251
50.5258
50.5266
50.5274
50.5283
50.5292
50.5301
50.5311
50.5321
50.5332
50.5342
50.5354
50.5366
50.5378
50.5391
50.5404
50.5418
50.5432
50.5447
50.5462
50.5477
50.5493
50.551
50.5527
50.5544
50.5562
50.558
50.5599
50.5619
50.564
50.5661
50.5682
50.5704
50.5727
50.575
50.5773
50.5797
50.5822
50.5847
50.5873
50.5899
50.5926
50.5954
50.5983
50.6012
50.6041
50.6072
50.6102
50.6134
50.6166
50.6199
50.6232
50.6266
50.63
50.6336
50.6371
50.6408
50.6445
50.6483
50.6522
50.6561
50.6601
50.6642
50.6683
50.6725
50.6768
50.6811
50.6855
50.69
50.6945
50.6992
50.7039
50.7086
50.7135
50.7184
50.7233
50.7284
50.7335
50.7387
50.744
50.7493
50.7548
50.7603
50.7658
50.7715
50.7772
50.783
50.7888
50.7948
50.8008
50.8069
50.8131
50.8193
50.8256
50.832
50.8385
50.8451
50.8517
50.8584
50.8652
50.872
50.879
50.886
50.8931
50.9002
50.9075
50.9148
50.9222
50.9297
50.9372
50.9448
50.9525
50.9603
50.9682
50.9761
50.9841
50.9922
51.0004
51.0087
51.017
51.0254
51.0339
51.0424
51.051
51.0597
51.0685
51.0774
51.0863
51.0953
51.1044
51.1136
51.1228
51.1321
51.1415
51.151
51.1605
51.1701
51.1798
51.1896
51.1994
51.2093
51.2192
51.2293
51.2394
51.2496
51.2598
51.2702
51.2806
51.291
51.3016
51.3122
51.3228
51.3336
51.3444
51.3552
51.3662
51.3772
51.3883
51.3993
51.4106
51.4217
51.4333
51.4443
51.4561
51.4672
51.4792
51.4903
51.5026
51.5136
51.5261
51.5361
51.5497
50.5151
50.5152
50.5153
50.5154
50.5155
50.5156
50.5157
50.5159
50.5161
50.5163
50.5165
50.5168
50.517
50.5173
50.5177
50.518
50.5184
50.5188
50.5192
50.5197
50.5201
50.5206
50.5212
50.5217
50.5223
50.523
50.5236
50.5243
50.5251
50.5258
50.5266
50.5274
50.5283
50.5292
50.5301
50.5311
50.5321
50.5332
50.5342
50.5354
50.5366
50.5378
50.5391
50.5404
50.5418
50.5432
50.5447
50.5462
50.5477
50.5493
50.551
50.5527
50.5544
50.5562
50.558
50.5599
50.5619
50.564
50.5661
50.5682
50.5704
50.5727
50.575
50.5773
50.5797
50.5822
50.5847
50.5873
50.5899
50.5926
50.5954
50.5983
50.6012
50.6041
50.6072
50.6102
50.6134
50.6166
50.6199
50.6232
50.6266
50.63
50.6336
50.6371
50.6408
50.6445
50.6483
50.6522
50.6561
50.6601
50.6642
50.6683
50.6725
50.6768
50.6811
50.6855
50.69
50.6945
50.6992
50.7039
50.7086
50.7135
50.7184
50.7233
50.7284
50.7335
50.7387
50.744
50.7493
50.7548
50.7603
50.7658
50.7715
50.7772
50.783
50.7888
50.7948
50.8008
50.8069
50.8131
50.8193
50.8256
50.832
50.8385
50.8451
50.8517
50.8584
50.8652
50.872
50.879
50.886
50.8931
50.9002
50.9075
50.9148
50.9222
50.9297
50.9372
50.9448
50.9525
50.9603
50.9682
50.9761
50.9841
50.9922
51.0004
51.0087
51.017
51.0254
51.0339
51.0424
51.051
51.0597
51.0685
51.0774
51.0863
51.0953
51.1044
51.1136
51.1228
51.1321
51.1415
51.151
51.1605
51.1701
51.1798
51.1896
51.1994
51.2093
51.2192
51.2293
51.2394
51.2496
51.2598
51.2702
51.2806
51.291
51.3016
51.3122
51.3228
51.3336
51.3444
51.3552
51.3662
51.3772
51.3883
51.3993
51.4106
51.4217
51.4333
51.4443
51.4562
51.4672
51.4793
51.4903
51.5026
51.5136
51.5262
51.5354
51.5545
50.5151
50.5152
50.5153
50.5154
50.5155
50.5156
50.5157
50.5159
50.5161
50.5163
50.5165
50.5168
50.517
50.5173
50.5177
50.518
50.5184
50.5188
50.5192
50.5197
50.5201
50.5206
50.5212
50.5217
50.5223
50.523
50.5236
50.5243
50.5251
50.5258
50.5266
50.5274
50.5283
50.5292
50.5301
50.5311
50.5321
50.5332
50.5342
50.5354
50.5366
50.5378
50.5391
50.5404
50.5418
50.5432
50.5447
50.5462
50.5477
50.5493
50.551
50.5527
50.5544
50.5562
50.558
50.5599
50.5619
50.564
50.5661
50.5682
50.5704
50.5727
50.575
50.5773
50.5797
50.5822
50.5847
50.5873
50.5899
50.5926
50.5954
50.5983
50.6012
50.6041
50.6072
50.6102
50.6134
50.6166
50.6199
50.6232
50.6266
50.63
50.6336
50.6371
50.6408
50.6445
50.6483
50.6522
50.6561
50.6601
50.6642
50.6683
50.6725
50.6768
50.6811
50.6855
50.69
50.6945
50.6992
50.7039
50.7086
50.7135
50.7184
50.7233
50.7284
50.7335
50.7387
50.744
50.7493
50.7548
50.7603
50.7658
50.7715
50.7772
50.783
50.7888
50.7948
50.8008
50.8069
50.8131
50.8193
50.8256
50.832
50.8385
50.8451
50.8517
50.8584
50.8652
50.872
50.879
50.886
50.8931
50.9002
50.9075
50.9148
50.9222
50.9297
50.9372
50.9448
50.9525
50.9603
50.9682
50.9761
50.9841
50.9922
51.0004
51.0087
51.017
51.0254
51.0339
51.0424
51.051
51.0597
51.0685
51.0774
51.0863
51.0953
51.1044
51.1136
51.1228
51.1321
51.1415
51.151
51.1605
51.1701
51.1798
51.1895
51.1994
51.2093
51.2192
51.2293
51.2394
51.2496
51.2598
51.2702
51.2806
51.291
51.3016
51.3122
51.3228
51.3336
51.3444
51.3552
51.3662
51.3772
51.3883
51.3993
51.4106
51.4217
51.4333
51.4443
51.4562
51.4672
51.4793
51.4903
51.5026
51.5136
51.5262
51.535
51.5575
50.5146
50.5147
50.5148
50.5149
50.515
50.5151
50.5152
50.5154
50.5156
50.5158
50.516
50.5163
50.5166
50.5169
50.5172
50.5175
50.5179
50.5183
50.5187
50.5192
50.5197
50.5202
50.5207
50.5213
50.5219
50.5225
50.5232
50.5239
50.5246
50.5254
50.5262
50.527
50.5279
50.5288
50.5297
50.5307
50.5317
50.5327
50.5338
50.535
50.5361
50.5374
50.5387
50.54
50.5414
50.5428
50.5443
50.5458
50.5473
50.5489
50.5506
50.5523
50.554
50.5558
50.5576
50.5596
50.5616
50.5636
50.5657
50.5679
50.5701
50.5723
50.5746
50.577
50.5794
50.5818
50.5843
50.5869
50.5896
50.5923
50.5951
50.5979
50.6008
50.6038
50.6068
50.6099
50.6131
50.6163
50.6195
50.6229
50.6263
50.6297
50.6332
50.6368
50.6405
50.6442
50.648
50.6519
50.6558
50.6598
50.6638
50.668
50.6722
50.6764
50.6808
50.6852
50.6897
50.6942
50.6988
50.7035
50.7083
50.7131
50.718
50.723
50.7281
50.7332
50.7384
50.7437
50.749
50.7544
50.7599
50.7655
50.7711
50.7769
50.7827
50.7885
50.7945
50.8005
50.8066
50.8127
50.819
50.8253
50.8317
50.8382
50.8447
50.8514
50.8581
50.8648
50.8717
50.8786
50.8856
50.8927
50.8999
50.9071
50.9145
50.9219
50.9293
50.9369
50.9445
50.9522
50.96
50.9679
50.9758
50.9838
50.9919
51.0001
51.0083
51.0167
51.0251
51.0335
51.0421
51.0507
51.0594
51.0682
51.0771
51.086
51.095
51.1041
51.1133
51.1225
51.1318
51.1412
51.1507
51.1602
51.1698
51.1795
51.1892
51.1991
51.209
51.2189
51.229
51.2391
51.2493
51.2595
51.2698
51.2802
51.2907
51.3012
51.3118
51.3225
51.3332
51.344
51.3549
51.3659
51.3768
51.3879
51.399
51.4103
51.4214
51.433
51.444
51.4558
51.4669
51.479
51.4899
51.5023
51.5133
51.5258
51.5344
51.5601
51.5685
51.5761
51.5801
51.5826
51.5848
51.5869
51.589
51.5911
51.5931
51.5951
51.5972
51.5992
51.6012
51.6031
51.6048
51.6063
51.6076
51.6088
51.6096
51.6102
51.5676
51.5747
51.579
51.5817
51.584
51.5863
51.5885
51.5906
51.5926
51.5946
51.5966
51.5986
51.6005
51.6023
51.604
51.6056
51.6069
51.6082
51.609
51.6097
51.5668
51.574
51.5787
51.5814
51.5838
51.5861
51.5883
51.5905
51.5925
51.5945
51.5965
51.5984
51.6003
51.6022
51.6039
51.6055
51.607
51.6081
51.6089
51.609
51.5641
51.5688
51.5717
51.5739
51.5759
51.5781
51.5803
51.5824
51.5845
51.5866
51.5885
51.5906
51.5924
51.5941
51.5957
51.5972
51.5985
51.5996
51.6004
51.6009
51.5614
51.5656
51.5694
51.5727
51.5756
51.5782
51.5805
51.5826
51.5847
51.5867
51.5886
51.5908
51.5926
51.5944
51.5962
51.5977
51.5991
51.6003
51.6013
51.6022
51.5527
51.5532
51.5534
51.5536
51.5542
51.5552
51.5567
51.5583
51.56
51.5619
51.5637
51.5657
51.5675
51.5696
51.5715
51.5735
51.5755
51.5778
51.5801
51.5829
51.5465
51.5462
51.5481
51.5507
51.5532
51.5555
51.5577
51.5599
51.5621
51.5643
51.5666
51.5685
51.5707
51.5728
51.575
51.5773
51.5797
51.5826
51.5857
51.5892
51.5351
51.5291
51.5245
51.5217
51.5206
51.5206
51.5212
51.5223
51.524
51.5259
51.5282
51.5307
51.5335
51.5368
51.5401
51.5441
51.5484
51.5536
51.5593
51.5661
51.5334
51.5274
51.5239
51.5225
51.5223
51.5228
51.5238
51.5252
51.5272
51.5294
51.5319
51.5347
51.5379
51.5412
51.5449
51.5489
51.5532
51.5582
51.5639
51.5702
51.5307
51.5207
51.5156
51.5134
51.5124
51.5123
51.5128
51.5138
51.5153
51.5172
51.5194
51.5219
51.5247
51.5278
51.5313
51.5353
51.5398
51.545
51.5511
51.5583
51.6048
51.6088
51.617
51.6265
51.6361
51.6458
51.6554
51.6651
51.6748
51.6847
51.6946
51.7044
51.7143
51.7242
51.7342
51.7441
51.7541
51.7641
51.7741
51.7841
51.7942
51.8043
51.8144
51.8245
51.8347
51.8449
51.8551
51.8653
51.8756
51.8858
51.8961
51.9064
51.9166
51.927
51.9373
51.9476
51.958
51.9684
51.9788
51.9891
51.9996
52.01
52.0204
52.0309
52.0413
52.0518
52.0623
52.0727
52.0832
52.0938
52.1043
52.1148
52.1253
52.1358
52.1463
52.1568
52.1673
52.1778
52.1884
52.1989
52.2094
52.22
52.2305
52.2411
52.2516
52.2621
52.2727
52.2832
52.2937
52.3042
52.3148
52.3253
52.3358
52.3464
52.3568
52.3673
52.3778
52.3883
52.3989
52.4096
52.4202
52.4308
52.4413
52.4517
52.4621
52.4728
52.484
52.4953
52.506
52.5146
52.5166
52.4966
52.4533
52.4108
52.3747
52.3488
52.335
52.333
52.3406
52.3532
52.3751
52.4297
52.5076
52.5736
52.6254
52.6634
52.69
52.7086
52.7225
52.7343
52.7436
52.7487
52.7545
52.7614
52.7693
52.7777
52.7866
52.7958
52.8051
52.8145
52.8239
52.8333
52.8428
52.8522
52.8616
52.871
52.8803
52.8896
52.8989
52.9082
52.9174
52.9266
52.9358
52.9449
52.954
52.9631
52.9721
52.9811
52.99
52.9989
53.0078
53.0166
53.0254
53.0342
53.0429
53.0516
53.0602
53.0688
53.0774
53.0859
53.0944
53.1028
53.1112
53.1196
53.1279
53.1362
53.1444
53.1526
53.1607
53.1688
53.1769
53.1849
53.1929
53.2008
53.2087
53.2166
53.2243
53.2321
53.2398
53.2475
53.2551
53.2627
53.2702
53.2777
53.2851
53.2925
53.2998
53.3072
53.3144
53.3216
53.3287
53.336
53.3428
53.3501
53.3567
53.364
53.3705
53.3778
53.384
53.3913
53.3974
53.4046
53.4107
53.4177
53.4237
53.4307
53.4365
53.4435
53.4487
53.456
51.6051
51.6096
51.6178
51.6273
51.637
51.6467
51.6564
51.666
51.6758
51.6856
51.6955
51.7054
51.7153
51.7252
51.7352
51.7451
51.7551
51.7651
51.7751
51.7852
51.7952
51.8053
51.8154
51.8256
51.8357
51.8459
51.8561
51.8664
51.8766
51.8869
51.8971
51.9074
51.9177
51.928
51.9383
51.9487
51.9591
51.9694
51.9798
51.9902
52.0006
52.011
52.0215
52.0319
52.0424
52.0529
52.0633
52.0738
52.0843
52.0948
52.1053
52.1158
52.1264
52.1369
52.1474
52.1579
52.1684
52.1789
52.1895
52.2
52.2105
52.2211
52.2316
52.2421
52.2527
52.2632
52.2738
52.2843
52.2948
52.3053
52.3159
52.3264
52.3369
52.3474
52.3579
52.3684
52.3789
52.3894
52.3999
52.4105
52.421
52.4315
52.4419
52.4522
52.4626
52.4733
52.4842
52.4954
52.5066
52.5179
52.5294
52.5411
52.5529
52.5645
52.5749
52.5819
52.5843
52.5857
52.5875
52.591
52.5969
52.6057
52.6169
52.6293
52.6447
52.6636
52.6801
52.6943
52.7071
52.7191
52.7306
52.7404
52.7493
52.7583
52.7675
52.7768
52.7862
52.7957
52.8052
52.8147
52.8241
52.8336
52.8431
52.8525
52.8619
52.8713
52.8806
52.89
52.8992
52.9085
52.9177
52.9269
52.9361
52.9452
52.9543
52.9634
52.9724
52.9814
52.9903
52.9992
53.0081
53.0169
53.0257
53.0345
53.0432
53.0519
53.0605
53.0691
53.0777
53.0862
53.0947
53.1031
53.1115
53.1199
53.1282
53.1365
53.1447
53.1529
53.161
53.1692
53.1772
53.1852
53.1932
53.2011
53.209
53.2169
53.2247
53.2324
53.2401
53.2478
53.2554
53.263
53.2705
53.278
53.2854
53.2928
53.3001
53.3074
53.3147
53.3219
53.329
53.3363
53.3431
53.3504
53.357
53.3643
53.3708
53.3781
53.3843
53.3916
53.3977
53.4049
53.411
53.418
53.424
53.431
53.4368
53.4437
53.4492
53.4561
51.6052
51.6098
51.6178
51.6272
51.6368
51.6465
51.6562
51.6658
51.6756
51.6855
51.6954
51.7052
51.7151
51.725
51.735
51.7449
51.7549
51.7649
51.7749
51.785
51.795
51.8051
51.8152
51.8254
51.8355
51.8457
51.8559
51.8662
51.8764
51.8867
51.8969
51.9072
51.9175
51.9278
51.9382
51.9485
51.9589
51.9692
51.9796
51.99
52.0004
52.0109
52.0213
52.0317
52.0422
52.0527
52.0631
52.0736
52.0841
52.0946
52.1051
52.1157
52.1262
52.1367
52.1472
52.1577
52.1682
52.1788
52.1893
52.1998
52.2103
52.2209
52.2314
52.242
52.2525
52.263
52.2736
52.2841
52.2946
52.3051
52.3157
52.3262
52.3367
52.3472
52.3577
52.3682
52.3787
52.3892
52.3997
52.4101
52.4207
52.4313
52.4418
52.4522
52.4624
52.4726
52.4829
52.4939
52.5057
52.5181
52.5313
52.5462
52.5604
52.5735
52.586
52.5982
52.6101
52.621
52.6287
52.6328
52.6367
52.6411
52.6467
52.6537
52.6621
52.6716
52.682
52.6929
52.704
52.7151
52.7259
52.7364
52.7466
52.7566
52.7665
52.7762
52.7859
52.7955
52.805
52.8146
52.8241
52.8336
52.8431
52.8525
52.8619
52.8713
52.8806
52.89
52.8992
52.9085
52.9177
52.9269
52.9361
52.9452
52.9543
52.9634
52.9724
52.9814
52.9903
52.9992
53.0081
53.0169
53.0257
53.0345
53.0432
53.0519
53.0605
53.0691
53.0777
53.0862
53.0947
53.1031
53.1115
53.1199
53.1282
53.1365
53.1447
53.1529
53.161
53.1692
53.1772
53.1852
53.1932
53.2011
53.209
53.2169
53.2247
53.2324
53.2401
53.2478
53.2554
53.263
53.2705
53.278
53.2854
53.2928
53.3001
53.3074
53.3147
53.3219
53.329
53.3363
53.3431
53.3504
53.357
53.3643
53.3708
53.3781
53.3843
53.3916
53.3977
53.4049
53.411
53.418
53.424
53.431
53.4368
53.4437
53.4494
53.4562
51.5999
51.6066
51.6155
51.6248
51.6345
51.6442
51.654
51.6637
51.6734
51.6832
51.693
51.7029
51.7127
51.7227
51.7326
51.7425
51.7525
51.7625
51.7725
51.7826
51.7926
51.8027
51.8128
51.823
51.8331
51.8433
51.8535
51.8637
51.874
51.8842
51.8945
51.9048
51.9151
51.9254
51.9357
51.9461
51.9564
51.9668
51.9772
51.9876
51.998
52.0084
52.0188
52.0293
52.0398
52.0502
52.0607
52.0712
52.0817
52.0922
52.1027
52.1132
52.1237
52.1342
52.1447
52.1553
52.1658
52.1763
52.1868
52.1974
52.2079
52.2184
52.229
52.2395
52.2501
52.2606
52.2711
52.2817
52.2922
52.3027
52.3133
52.3238
52.3343
52.3448
52.3553
52.3659
52.3764
52.387
52.3975
52.4081
52.4187
52.4293
52.4398
52.4501
52.4604
52.4707
52.4814
52.4929
52.5051
52.5178
52.5317
52.5458
52.5588
52.5713
52.5836
52.5956
52.6069
52.6164
52.6235
52.63
52.6365
52.6434
52.6509
52.659
52.6678
52.6771
52.6868
52.6967
52.7067
52.7168
52.7268
52.7368
52.7467
52.7565
52.7663
52.776
52.7856
52.7953
52.8049
52.8144
52.824
52.8335
52.843
52.8524
52.8618
52.8712
52.8806
52.8899
52.8992
52.9085
52.9177
52.9269
52.9361
52.9452
52.9543
52.9634
52.9724
52.9814
52.9903
52.9992
53.0081
53.0169
53.0257
53.0345
53.0432
53.0519
53.0605
53.0691
53.0777
53.0862
53.0947
53.1031
53.1115
53.1199
53.1282
53.1365
53.1447
53.1529
53.161
53.1692
53.1772
53.1852
53.1932
53.2011
53.209
53.2169
53.2247
53.2324
53.2401
53.2478
53.2554
53.263
53.2705
53.278
53.2854
53.2928
53.3001
53.3074
53.3147
53.3219
53.329
53.3362
53.3431
53.3503
53.3571
53.3642
53.3709
53.378
53.3844
53.3916
53.3977
53.4049
53.411
53.418
53.424
53.431
53.4368
53.4437
53.4497
53.4562
51.6037
51.6114
51.6201
51.629
51.6383
51.6476
51.6571
51.6667
51.6765
51.6862
51.696
51.7059
51.7157
51.7256
51.7356
51.7455
51.7555
51.7655
51.7755
51.7856
51.7957
51.8058
51.8159
51.826
51.8362
51.8463
51.8565
51.8668
51.877
51.8873
51.8975
51.9078
51.9181
51.9284
51.9388
51.9491
51.9595
51.9699
51.9802
51.9906
52.001
52.0115
52.0219
52.0324
52.0428
52.0533
52.0637
52.0742
52.0847
52.0952
52.1057
52.1162
52.1267
52.1373
52.1478
52.1583
52.1688
52.1794
52.1899
52.2004
52.211
52.2215
52.232
52.2425
52.2531
52.2636
52.2741
52.2847
52.2952
52.3057
52.3162
52.3267
52.3372
52.3477
52.3582
52.3687
52.3791
52.3896
52.4001
52.4105
52.4209
52.4313
52.4418
52.4523
52.4626
52.4729
52.4831
52.4933
52.5039
52.5151
52.5269
52.539
52.5511
52.5632
52.5751
52.5868
52.5979
52.6082
52.6178
52.6267
52.6353
52.6438
52.6524
52.6611
52.6701
52.6793
52.6887
52.6982
52.7079
52.7176
52.7273
52.737
52.7468
52.7565
52.7662
52.7759
52.7855
52.7952
52.8048
52.8144
52.8239
52.8334
52.8429
52.8524
52.8618
52.8712
52.8806
52.8899
52.8992
52.9085
52.9177
52.9269
52.9361
52.9452
52.9543
52.9634
52.9724
52.9814
52.9903
52.9992
53.0081
53.0169
53.0257
53.0345
53.0432
53.0519
53.0605
53.0691
53.0777
53.0862
53.0947
53.1031
53.1115
53.1199
53.1282
53.1365
53.1447
53.1529
53.161
53.1692
53.1772
53.1852
53.1932
53.2011
53.209
53.2169
53.2247
53.2324
53.2401
53.2478
53.2554
53.263
53.2705
53.278
53.2854
53.2928
53.3001
53.3074
53.3147
53.3219
53.3291
53.3361
53.3432
53.3502
53.3572
53.3641
53.371
53.3779
53.3846
53.3913
53.3981
53.4045
53.4114
53.4177
53.4242
53.4308
53.437
53.4435
53.4497
53.4561
51.5899
51.6009
51.6112
51.6211
51.6307
51.6402
51.6497
51.6592
51.6688
51.6785
51.6882
51.698
51.7079
51.7178
51.7277
51.7376
51.7476
51.7576
51.7676
51.7777
51.7877
51.7978
51.8079
51.8181
51.8282
51.8384
51.8486
51.8588
51.8691
51.8793
51.8896
51.8999
51.9102
51.9205
51.9308
51.9412
51.9515
51.9619
51.9723
51.9827
51.9931
52.0035
52.0139
52.0244
52.0349
52.0453
52.0558
52.0663
52.0768
52.0873
52.0978
52.1083
52.1189
52.1294
52.1399
52.1504
52.161
52.1715
52.1821
52.1926
52.2032
52.2137
52.2243
52.2349
52.2455
52.2561
52.2667
52.2774
52.288
52.2986
52.3092
52.3198
52.3305
52.3412
52.3519
52.3625
52.3732
52.3839
52.3945
52.4051
52.4155
52.4259
52.4363
52.447
52.4579
52.4693
52.4813
52.4934
52.5057
52.518
52.5299
52.5414
52.5527
52.5639
52.5749
52.5855
52.5955
52.605
52.6142
52.6232
52.6321
52.641
52.6501
52.6593
52.6687
52.6782
52.6878
52.6975
52.7073
52.717
52.7268
52.7366
52.7464
52.7562
52.7659
52.7756
52.7853
52.795
52.8046
52.8142
52.8238
52.8333
52.8429
52.8523
52.8618
52.8712
52.8806
52.8899
52.8992
52.9085
52.9177
52.9269
52.9361
52.9452
52.9543
52.9634
52.9724
52.9814
52.9903
52.9992
53.0081
53.0169
53.0257
53.0345
53.0432
53.0519
53.0605
53.0691
53.0777
53.0862
53.0947
53.1031
53.1115
53.1199
53.1282
53.1365
53.1447
53.1529
53.161
53.1692
53.1772
53.1852
53.1932
53.2011
53.209
53.2169
53.2247
53.2324
53.2401
53.2478
53.2554
53.263
53.2705
53.278
53.2854
53.2928
53.3002
53.3074
53.3147
53.3218
53.3291
53.3361
53.3433
53.3501
53.3573
53.3639
53.3712
53.3776
53.3848
53.3911
53.3983
53.4044
53.4115
53.4175
53.4245
53.4304
53.4373
53.4432
53.45
53.4557
51.6007
51.613
51.6229
51.6323
51.6418
51.6512
51.6608
51.6704
51.6801
51.6898
51.6996
51.7094
51.7193
51.7291
51.7391
51.749
51.759
51.769
51.7791
51.7891
51.7992
51.8093
51.8194
51.8296
51.8398
51.8499
51.8601
51.8704
51.8806
51.8908
51.9011
51.9114
51.9217
51.932
51.9423
51.9527
51.9631
51.9734
51.9838
51.9942
52.0046
52.0151
52.0255
52.0359
52.0464
52.0568
52.0673
52.0778
52.0883
52.0988
52.1093
52.1198
52.1303
52.1408
52.1513
52.1619
52.1724
52.1829
52.1935
52.204
52.2145
52.2251
52.2356
52.2461
52.2567
52.2672
52.2777
52.2883
52.2988
52.3094
52.3199
52.3304
52.3409
52.3514
52.3619
52.3724
52.3828
52.3933
52.4038
52.4143
52.4247
52.4351
52.4454
52.4558
52.4662
52.4766
52.487
52.4973
52.5076
52.5176
52.5274
52.5371
52.5471
52.5577
52.5689
52.5803
52.5919
52.6038
52.6156
52.6268
52.6367
52.6456
52.6542
52.6627
52.6713
52.6801
52.6892
52.6985
52.7079
52.7175
52.7271
52.7368
52.7465
52.7562
52.7659
52.7756
52.7853
52.795
52.8046
52.8142
52.8238
52.8333
52.8428
52.8523
52.8618
52.8712
52.8806
52.8899
52.8992
52.9085
52.9177
52.9269
52.9361
52.9452
52.9543
52.9634
52.9724
52.9814
52.9903
52.9992
53.0081
53.0169
53.0257
53.0345
53.0432
53.0519
53.0605
53.0691
53.0777
53.0862
53.0947
53.1031
53.1115
53.1199
53.1282
53.1365
53.1447
53.1529
53.161
53.1692
53.1772
53.1852
53.1932
53.2011
53.209
53.2169
53.2247
53.2324
53.2401
53.2478
53.2554
53.263
53.2705
53.278
53.2854
53.2928
53.3001
53.3074
53.3147
53.3218
53.3291
53.3361
53.3433
53.3501
53.3573
53.364
53.3712
53.3776
53.3848
53.3911
53.3983
53.4044
53.4115
53.4175
53.4245
53.4305
53.4373
53.4433
53.4497
53.4557
51.5884
51.6036
51.6143
51.6237
51.6328
51.6418
51.6509
51.6602
51.6696
51.6791
51.6887
51.6984
51.7082
51.7181
51.728
51.7379
51.7479
51.7579
51.7679
51.778
51.788
51.7981
51.8083
51.8184
51.8285
51.8387
51.8489
51.8591
51.8693
51.8796
51.8899
51.9002
51.9105
51.9208
51.9311
51.9415
51.9518
51.9622
51.9726
51.983
51.9934
52.0038
52.0143
52.0248
52.0352
52.0457
52.0562
52.0667
52.0772
52.0877
52.0983
52.1088
52.1194
52.1299
52.1404
52.151
52.1615
52.172
52.1825
52.193
52.2035
52.214
52.2246
52.2351
52.2457
52.2563
52.2668
52.2774
52.288
52.2986
52.3093
52.32
52.3307
52.3414
52.3521
52.3627
52.3733
52.3838
52.3942
52.4046
52.415
52.4254
52.4356
52.4459
52.4563
52.4669
52.4777
52.4891
52.5009
52.5129