/*--------------------------------*- C++ -*----------------------------------*\
| =========                 |                                                 |
| \\      /  F ield         | OpenFOAM: The Open Source CFD Toolbox           |
|  \\    /   O peration     | Version:  3.0.x                                 |
|   \\  /    A nd           | Web:      www.OpenFOAM.org                      |
|    \\/     M anipulation  |                                                 |
\*---------------------------------------------------------------------------*/
FoamFile
{
    version     2.0;
    format      ascii;
    class       volScalarField;
    location    "0.48";
    object      T;
}
// * * * * * * * * * * * * * * * * * * * * * * * * * * * * * * * * * * * * * //

dimensions      [0 0 0 1 0 0 0];

internalField   nonuniform List<scalar> 
13800
(
773.162
773.162
773.162
773.162
773.162
773.162
773.163
773.163
773.164
773.164
773.165
773.166
773.167
773.167
773.168
773.169
773.171
773.172
773.173
773.174
773.176
773.177
773.179
773.181
773.183
773.184
773.186
773.189
773.191
773.193
773.195
773.198
773.201
773.203
773.206
773.209
773.213
773.216
773.22
773.223
773.227
773.23
773.234
773.237
773.241
773.245
773.25
773.254
773.259
773.264
773.269
773.274
773.279
773.285
773.291
773.296
773.301
773.307
773.312
773.318
773.325
773.331
773.338
773.345
773.353
773.36
773.368
773.376
773.384
773.392
773.4
773.408
773.416
773.425
773.434
773.443
773.452
773.462
773.472
773.482
773.492
773.503
773.514
773.525
773.536
773.547
773.559
773.571
773.583
773.595
773.608
773.62
773.633
773.646
773.659
773.673
773.687
773.701
773.715
773.729
773.744
773.759
773.774
773.789
773.804
773.82
773.836
773.852
773.868
773.885
773.902
773.919
773.936
773.953
773.971
773.989
774.007
774.026
774.044
774.063
774.082
774.102
774.121
774.141
774.161
774.181
774.202
774.222
774.243
774.264
774.286
774.307
774.329
774.351
774.374
774.396
774.419
774.442
774.465
774.489
774.513
774.536
774.561
774.585
774.61
774.635
774.66
774.685
774.711
774.737
774.763
774.789
774.815
774.842
774.869
774.896
774.924
774.951
774.979
775.007
775.036
775.064
775.093
775.122
775.151
775.18
775.21
775.24
775.27
775.3
775.331
775.361
775.392
775.423
775.455
775.486
775.518
775.55
775.582
775.614
775.647
775.68
775.713
775.746
775.779
775.813
775.846
775.881
775.913
775.95
775.981
776.02
776.049
776.091
776.118
776.163
776.188
776.237
776.263
776.345
773.154
773.154
773.154
773.154
773.154
773.155
773.155
773.156
773.156
773.157
773.158
773.158
773.159
773.16
773.161
773.162
773.163
773.165
773.166
773.167
773.169
773.17
773.172
773.174
773.176
773.178
773.18
773.182
773.184
773.186
773.189
773.191
773.194
773.197
773.2
773.203
773.206
773.21
773.213
773.217
773.22
773.224
773.227
773.231
773.235
773.239
773.243
773.248
773.253
773.258
773.263
773.268
773.273
773.279
773.285
773.29
773.296
773.301
773.307
773.313
773.319
773.326
773.333
773.34
773.347
773.355
773.362
773.37
773.378
773.386
773.394
773.403
773.411
773.42
773.429
773.438
773.447
773.457
773.467
773.477
773.488
773.498
773.509
773.52
773.531
773.543
773.554
773.566
773.578
773.59
773.603
773.615
773.628
773.641
773.655
773.668
773.682
773.696
773.71
773.724
773.739
773.754
773.769
773.784
773.799
773.815
773.831
773.847
773.863
773.88
773.897
773.914
773.931
773.949
773.966
773.984
774.002
774.021
774.039
774.058
774.077
774.097
774.116
774.136
774.156
774.176
774.197
774.217
774.238
774.259
774.281
774.302
774.324
774.346
774.369
774.391
774.414
774.437
774.46
774.484
774.508
774.532
774.556
774.58
774.605
774.63
774.655
774.68
774.706
774.732
774.758
774.784
774.81
774.837
774.864
774.891
774.919
774.946
774.974
775.002
775.031
775.059
775.088
775.117
775.146
775.176
775.205
775.235
775.265
775.295
775.326
775.356
775.387
775.419
775.45
775.481
775.513
775.545
775.577
775.61
775.642
775.675
775.708
775.741
775.774
775.808
775.841
775.876
775.908
775.945
775.976
776.015
776.044
776.086
776.113
776.158
776.183
776.232
776.258
776.359
773.154
773.154
773.154
773.154
773.154
773.155
773.155
773.156
773.156
773.157
773.158
773.158
773.159
773.16
773.161
773.162
773.163
773.165
773.166
773.167
773.169
773.17
773.172
773.174
773.176
773.178
773.18
773.182
773.184
773.186
773.189
773.191
773.194
773.197
773.2
773.203
773.206
773.21
773.213
773.217
773.22
773.224
773.227
773.231
773.235
773.239
773.243
773.248
773.253
773.258
773.263
773.268
773.273
773.279
773.285
773.29
773.296
773.301
773.307
773.313
773.319
773.326
773.333
773.34
773.347
773.355
773.362
773.37
773.378
773.386
773.394
773.403
773.411
773.42
773.429
773.438
773.447
773.457
773.467
773.477
773.488
773.498
773.509
773.52
773.531
773.543
773.554
773.566
773.578
773.59
773.603
773.615
773.628
773.641
773.655
773.668
773.682
773.696
773.71
773.724
773.739
773.754
773.769
773.784
773.799
773.815
773.831
773.847
773.863
773.88
773.897
773.914
773.931
773.949
773.966
773.984
774.002
774.021
774.039
774.058
774.077
774.097
774.116
774.136
774.156
774.176
774.197
774.217
774.238
774.259
774.281
774.302
774.324
774.346
774.369
774.391
774.414
774.437
774.46
774.484
774.508
774.532
774.556
774.58
774.605
774.63
774.655
774.68
774.706
774.732
774.758
774.784
774.81
774.837
774.864
774.891
774.919
774.946
774.974
775.002
775.031
775.059
775.088
775.117
775.146
775.175
775.205
775.235
775.265
775.295
775.326
775.356
775.387
775.419
775.45
775.481
775.513
775.545
775.577
775.61
775.642
775.675
775.708
775.741
775.774
775.808
775.841
775.876
775.908
775.945
775.976
776.015
776.044
776.086
776.113
776.158
776.183
776.232
776.258
776.356
773.154
773.154
773.154
773.154
773.154
773.155
773.155
773.156
773.156
773.157
773.158
773.158
773.159
773.16
773.161
773.162
773.163
773.165
773.166
773.167
773.169
773.17
773.172
773.174
773.176
773.178
773.18
773.182
773.184
773.186
773.189
773.191
773.194
773.197
773.2
773.203
773.206
773.21
773.213
773.217
773.22
773.224
773.228
773.231
773.235
773.239
773.243
773.248
773.253
773.258
773.263
773.268
773.273
773.279
773.285
773.29
773.296
773.301
773.307
773.313
773.319
773.326
773.333
773.34
773.347
773.355
773.362
773.37
773.378
773.386
773.394
773.403
773.411
773.42
773.429
773.438
773.447
773.457
773.467
773.477
773.488
773.498
773.509
773.52
773.531
773.543
773.554
773.566
773.578
773.59
773.603
773.615
773.628
773.641
773.655
773.668
773.682
773.696
773.71
773.724
773.739
773.754
773.769
773.784
773.799
773.815
773.831
773.847
773.863
773.88
773.897
773.914
773.931
773.949
773.966
773.984
774.002
774.021
774.039
774.058
774.077
774.097
774.116
774.136
774.156
774.176
774.197
774.217
774.238
774.259
774.281
774.302
774.324
774.346
774.369
774.391
774.414
774.437
774.46
774.484
774.508
774.532
774.556
774.58
774.605
774.63
774.655
774.68
774.706
774.732
774.758
774.784
774.81
774.837
774.864
774.891
774.919
774.946
774.974
775.002
775.031
775.059
775.088
775.117
775.146
775.175
775.205
775.235
775.265
775.295
775.326
775.356
775.387
775.419
775.45
775.481
775.513
775.545
775.577
775.61
775.642
775.675
775.708
775.741
775.774
775.808
775.841
775.876
775.908
775.945
775.976
776.015
776.044
776.086
776.113
776.158
776.183
776.231
776.258
776.332
773.154
773.154
773.154
773.154
773.154
773.155
773.155
773.156
773.156
773.157
773.158
773.158
773.159
773.16
773.161
773.162
773.163
773.165
773.166
773.167
773.169
773.17
773.172
773.174
773.176
773.178
773.18
773.182
773.184
773.186
773.189
773.191
773.194
773.197
773.2
773.203
773.206
773.21
773.213
773.217
773.22
773.224
773.228
773.231
773.235
773.239
773.243
773.248
773.253
773.258
773.263
773.268
773.273
773.279
773.285
773.29
773.296
773.301
773.307
773.313
773.319
773.326
773.333
773.34
773.347
773.355
773.362
773.37
773.378
773.386
773.394
773.403
773.411
773.42
773.429
773.438
773.447
773.457
773.467
773.477
773.488
773.498
773.509
773.52
773.531
773.543
773.554
773.566
773.578
773.59
773.603
773.615
773.628
773.641
773.655
773.668
773.682
773.696
773.71
773.724
773.739
773.754
773.769
773.784
773.799
773.815
773.831
773.847
773.863
773.88
773.897
773.914
773.931
773.949
773.966
773.984
774.002
774.021
774.039
774.058
774.077
774.097
774.116
774.136
774.156
774.176
774.197
774.217
774.238
774.259
774.281
774.302
774.324
774.346
774.369
774.391
774.414
774.437
774.46
774.484
774.508
774.532
774.556
774.58
774.605
774.63
774.655
774.68
774.706
774.732
774.758
774.784
774.81
774.837
774.864
774.891
774.919
774.946
774.974
775.002
775.031
775.059
775.088
775.117
775.146
775.175
775.205
775.235
775.265
775.295
775.326
775.356
775.387
775.419
775.45
775.481
775.513
775.545
775.577
775.61
775.642
775.675
775.708
775.741
775.774
775.808
775.841
775.876
775.908
775.945
775.976
776.015
776.044
776.086
776.113
776.158
776.183
776.23
776.255
776.318
773.154
773.154
773.154
773.154
773.154
773.155
773.155
773.156
773.156
773.157
773.158
773.158
773.159
773.16
773.161
773.162
773.163
773.165
773.166
773.167
773.169
773.17
773.172
773.174
773.176
773.178
773.18
773.182
773.184
773.186
773.189
773.191
773.194
773.197
773.2
773.203
773.206
773.21
773.213
773.217
773.22
773.224
773.228
773.231
773.235
773.239
773.243
773.248
773.253
773.258
773.263
773.268
773.273
773.279
773.285
773.29
773.296
773.301
773.307
773.313
773.319
773.326
773.333
773.34
773.347
773.355
773.362
773.37
773.378
773.386
773.394
773.403
773.411
773.42
773.429
773.438
773.447
773.457
773.467
773.477
773.488
773.498
773.509
773.52
773.531
773.543
773.554
773.566
773.578
773.59
773.603
773.615
773.628
773.641
773.655
773.668
773.682
773.696
773.71
773.724
773.739
773.754
773.769
773.784
773.799
773.815
773.831
773.847
773.863
773.88
773.897
773.914
773.931
773.949
773.966
773.984
774.002
774.021
774.039
774.058
774.077
774.097
774.116
774.136
774.156
774.176
774.197
774.217
774.238
774.259
774.281
774.302
774.324
774.346
774.369
774.391
774.414
774.437
774.46
774.484
774.508
774.532
774.556
774.58
774.605
774.63
774.655
774.68
774.706
774.732
774.758
774.784
774.81
774.837
774.864
774.891
774.919
774.946
774.974
775.002
775.031
775.059
775.088
775.117
775.146
775.175
775.205
775.235
775.265
775.295
775.326
775.356
775.387
775.419
775.45
775.481
775.513
775.545
775.577
775.61
775.642
775.675
775.708
775.741
775.774
775.808
775.841
775.875
775.909
775.944
775.978
776.012
776.049
776.079
776.121
776.15
776.188
776.225
776.256
776.293
773.154
773.154
773.154
773.154
773.154
773.155
773.155
773.156
773.156
773.157
773.158
773.158
773.159
773.16
773.161
773.162
773.163
773.165
773.166
773.167
773.169
773.17
773.172
773.174
773.176
773.178
773.18
773.182
773.184
773.186
773.189
773.191
773.194
773.197
773.2
773.203
773.206
773.21
773.213
773.217
773.22
773.224
773.228
773.231
773.235
773.239
773.243
773.248
773.253
773.258
773.263
773.268
773.273
773.279
773.285
773.29
773.296
773.301
773.307
773.313
773.319
773.326
773.333
773.34
773.347
773.355
773.362
773.37
773.378
773.386
773.394
773.403
773.411
773.42
773.429
773.438
773.447
773.457
773.467
773.477
773.488
773.498
773.509
773.52
773.531
773.543
773.554
773.566
773.578
773.59
773.603
773.615
773.628
773.641
773.655
773.668
773.682
773.696
773.71
773.724
773.739
773.754
773.769
773.784
773.799
773.815
773.831
773.847
773.863
773.88
773.897
773.914
773.931
773.949
773.966
773.984
774.002
774.021
774.039
774.058
774.077
774.097
774.116
774.136
774.156
774.176
774.197
774.217
774.238
774.259
774.281
774.302
774.324
774.346
774.369
774.391
774.414
774.437
774.46
774.484
774.508
774.532
774.556
774.58
774.605
774.63
774.655
774.68
774.706
774.732
774.758
774.784
774.81
774.837
774.864
774.891
774.919
774.946
774.974
775.002
775.031
775.059
775.088
775.117
775.146
775.175
775.205
775.235
775.265
775.295
775.326
775.356
775.387
775.419
775.45
775.481
775.513
775.545
775.577
775.61
775.642
775.675
775.708
775.741
775.774
775.807
775.842
775.874
775.911
775.941
775.981
776.01
776.051
776.079
776.122
776.148
776.193
776.216
776.271
776.26
773.154
773.154
773.154
773.154
773.154
773.155
773.155
773.156
773.156
773.157
773.158
773.158
773.159
773.16
773.161
773.162
773.163
773.165
773.166
773.167
773.169
773.17
773.172
773.174
773.176
773.178
773.18
773.182
773.184
773.186
773.189
773.191
773.194
773.197
773.2
773.203
773.206
773.21
773.213
773.217
773.22
773.224
773.227
773.231
773.235
773.239
773.243
773.248
773.253
773.258
773.263
773.268
773.273
773.279
773.285
773.29
773.296
773.301
773.307
773.313
773.319
773.326
773.333
773.34
773.347
773.355
773.362
773.37
773.378
773.386
773.394
773.403
773.411
773.42
773.429
773.438
773.447
773.457
773.467
773.477
773.488
773.498
773.509
773.52
773.531
773.543
773.554
773.566
773.578
773.59
773.603
773.615
773.628
773.641
773.655
773.668
773.682
773.696
773.71
773.724
773.739
773.754
773.769
773.784
773.799
773.815
773.831
773.847
773.863
773.88
773.897
773.914
773.931
773.949
773.966
773.984
774.002
774.021
774.039
774.058
774.077
774.097
774.116
774.136
774.156
774.176
774.197
774.217
774.238
774.259
774.281
774.302
774.324
774.346
774.369
774.391
774.414
774.437
774.46
774.484
774.508
774.532
774.556
774.58
774.605
774.63
774.655
774.68
774.706
774.732
774.758
774.784
774.81
774.837
774.864
774.891
774.919
774.946
774.974
775.002
775.031
775.059
775.088
775.117
775.146
775.175
775.205
775.235
775.265
775.295
775.326
775.356
775.387
775.419
775.45
775.481
775.513
775.545
775.577
775.61
775.642
775.675
775.708
775.741
775.774
775.807
775.842
775.874
775.911
775.941
775.981
776.009
776.051
776.078
776.122
776.148
776.193
776.216
776.279
776.183
773.154
773.154
773.154
773.154
773.154
773.155
773.155
773.156
773.156
773.157
773.158
773.158
773.159
773.16
773.161
773.162
773.163
773.165
773.166
773.167
773.169
773.17
773.172
773.174
773.176
773.178
773.18
773.182
773.184
773.186
773.189
773.191
773.194
773.197
773.2
773.203
773.206
773.21
773.213
773.217
773.22
773.224
773.227
773.231
773.235
773.239
773.243
773.248
773.253
773.258
773.263
773.268
773.273
773.279
773.285
773.29
773.296
773.301
773.307
773.313
773.319
773.326
773.333
773.34
773.347
773.355
773.362
773.37
773.378
773.386
773.394
773.403
773.411
773.42
773.429
773.438
773.447
773.457
773.467
773.477
773.488
773.498
773.509
773.52
773.531
773.543
773.554
773.566
773.578
773.59
773.603
773.615
773.628
773.641
773.655
773.668
773.682
773.696
773.71
773.724
773.739
773.754
773.769
773.784
773.799
773.815
773.831
773.847
773.863
773.88
773.897
773.914
773.931
773.949
773.966
773.984
774.002
774.021
774.039
774.058
774.077
774.097
774.116
774.136
774.156
774.176
774.197
774.217
774.238
774.259
774.281
774.302
774.324
774.346
774.369
774.391
774.414
774.437
774.46
774.484
774.508
774.532
774.556
774.58
774.605
774.63
774.655
774.68
774.706
774.732
774.758
774.784
774.81
774.837
774.864
774.891
774.919
774.946
774.974
775.002
775.031
775.059
775.088
775.117
775.146
775.176
775.205
775.235
775.265
775.295
775.326
775.356
775.387
775.419
775.45
775.481
775.513
775.545
775.577
775.61
775.642
775.675
775.708
775.741
775.774
775.807
775.842
775.874
775.911
775.941
775.981
776.009
776.051
776.078
776.122
776.147
776.194
776.216
776.283
776.138
773.162
773.162
773.162
773.162
773.162
773.162
773.163
773.163
773.164
773.164
773.165
773.166
773.167
773.167
773.168
773.169
773.171
773.172
773.173
773.174
773.176
773.177
773.179
773.181
773.183
773.184
773.186
773.189
773.191
773.193
773.195
773.198
773.201
773.203
773.206
773.209
773.213
773.216
773.22
773.223
773.227
773.23
773.234
773.237
773.241
773.245
773.25
773.254
773.259
773.264
773.269
773.274
773.279
773.285
773.291
773.296
773.301
773.307
773.312
773.318
773.325
773.331
773.338
773.345
773.353
773.36
773.368
773.376
773.384
773.392
773.4
773.408
773.416
773.425
773.434
773.443
773.452
773.462
773.472
773.482
773.492
773.503
773.514
773.525
773.536
773.547
773.559
773.571
773.583
773.595
773.608
773.62
773.633
773.646
773.659
773.673
773.687
773.701
773.715
773.729
773.744
773.759
773.774
773.789
773.804
773.82
773.836
773.852
773.868
773.885
773.902
773.919
773.936
773.953
773.971
773.989
774.007
774.026
774.044
774.063
774.082
774.102
774.121
774.141
774.161
774.181
774.202
774.222
774.243
774.264
774.286
774.307
774.329
774.351
774.374
774.396
774.419
774.442
774.465
774.489
774.513
774.536
774.561
774.585
774.61
774.635
774.66
774.685
774.711
774.737
774.763
774.789
774.815
774.842
774.869
774.896
774.924
774.951
774.979
775.007
775.036
775.064
775.093
775.122
775.151
775.18
775.21
775.24
775.27
775.3
775.331
775.361
775.392
775.423
775.455
775.486
775.518
775.55
775.582
775.614
775.647
775.68
775.713
775.746
775.779
775.812
775.847
775.879
775.916
775.946
775.986
776.014
776.056
776.083
776.127
776.152
776.199
776.22
776.293
776.098
776.379
776.403
776.418
776.427
776.435
776.443
776.451
776.458
776.465
776.472
776.477
776.483
776.489
776.495
776.501
776.508
776.515
776.52
776.522
776.511
776.378
776.396
776.406
776.412
776.418
776.425
776.432
776.438
776.445
776.452
776.459
776.466
776.472
776.479
776.486
776.493
776.499
776.502
776.504
776.494
776.379
776.397
776.407
776.414
776.419
776.425
776.432
776.439
776.445
776.453
776.459
776.466
776.472
776.477
776.484
776.488
776.492
776.496
776.496
776.491
776.364
776.377
776.387
776.393
776.401
776.408
776.415
776.421
776.428
776.434
776.442
776.45
776.458
776.468
776.476
776.485
776.492
776.497
776.501
776.5
776.339
776.354
776.366
776.377
776.387
776.395
776.403
776.41
776.416
776.421
776.424
776.428
776.43
776.432
776.434
776.436
776.437
776.44
776.444
776.447
776.31
776.313
776.316
776.32
776.325
776.331
776.337
776.345
776.354
776.364
776.377
776.388
776.402
776.414
776.428
776.44
776.455
776.465
776.478
776.486
776.27
776.275
776.28
776.286
776.293
776.298
776.303
776.307
776.31
776.312
776.313
776.313
776.314
776.315
776.316
776.318
776.322
776.327
776.336
776.348
776.224
776.216
776.209
776.21
776.214
776.22
776.226
776.233
776.241
776.25
776.26
776.271
776.286
776.299
776.316
776.331
776.351
776.368
776.389
776.407
776.187
776.178
776.172
776.169
776.17
776.172
776.175
776.179
776.182
776.186
776.192
776.197
776.204
776.213
776.222
776.234
776.248
776.265
776.286
776.31
776.167
776.152
776.139
776.135
776.138
776.143
776.15
776.159
776.169
776.18
776.193
776.206
776.222
776.239
776.257
776.276
776.297
776.32
776.347
776.375
776.508
776.518
776.541
776.563
776.588
776.616
776.645
776.675
776.704
776.732
776.761
776.79
776.819
776.849
776.879
776.908
776.938
776.969
776.999
777.03
777.06
777.091
777.121
777.152
777.182
777.213
777.243
777.274
777.304
777.335
777.366
777.397
777.428
777.459
777.49
777.522
777.553
777.584
777.615
777.646
777.677
777.709
777.74
777.771
777.803
777.834
777.865
777.897
777.928
777.959
777.991
778.022
778.054
778.085
778.117
778.149
778.18
778.212
778.244
778.275
778.307
778.338
778.369
778.401
778.433
778.464
778.496
778.527
778.559
778.59
778.621
778.652
778.683
778.715
778.746
778.778
778.809
778.84
778.869
778.898
778.926
778.955
778.985
779.017
779.048
779.074
779.094
779.111
779.137
779.193
779.348
779.829
780.656
781.473
782.195
782.764
783.154
783.364
783.433
783.425
783.278
782.643
781.66
780.857
780.267
779.881
779.664
779.565
779.535
779.536
779.574
779.673
779.761
779.832
779.889
779.936
779.976
780.012
780.046
780.077
780.107
780.137
780.166
780.194
780.223
780.251
780.279
780.307
780.334
780.362
780.389
780.417
780.444
780.471
780.498
780.525
780.551
780.578
780.604
780.631
780.657
780.683
780.709
780.735
780.761
780.786
780.812
780.837
780.862
780.887
780.912
780.937
780.962
780.987
781.011
781.036
781.06
781.084
781.108
781.132
781.156
781.179
781.203
781.226
781.249
781.272
781.295
781.318
781.341
781.363
781.386
781.408
781.43
781.452
781.474
781.496
781.518
781.539
781.561
781.581
781.604
781.622
781.646
781.662
781.688
781.703
781.729
781.742
781.77
781.782
781.809
781.821
781.848
781.859
781.886
781.897
781.924
781.934
781.968
781.973
776.495
776.504
776.527
776.55
776.575
776.602
776.631
776.66
776.689
776.718
776.746
776.775
776.804
776.834
776.864
776.893
776.923
776.953
776.984
777.014
777.045
777.075
777.106
777.136
777.167
777.197
777.228
777.258
777.289
777.32
777.35
777.381
777.412
777.444
777.475
777.506
777.537
777.568
777.599
777.63
777.661
777.693
777.724
777.755
777.787
777.818
777.849
777.881
777.912
777.943
777.975
778.006
778.037
778.069
778.101
778.132
778.164
778.196
778.227
778.259
778.29
778.322
778.353
778.385
778.416
778.448
778.479
778.511
778.542
778.574
778.605
778.636
778.668
778.699
778.73
778.762
778.793
778.824
778.854
778.885
778.915
778.945
778.977
779.01
779.041
779.068
779.091
779.11
779.128
779.144
779.158
779.169
779.176
779.188
779.216
779.294
779.44
779.601
779.754
779.883
779.975
780.024
780.037
780.03
779.98
779.878
779.81
779.776
779.763
779.761
779.766
779.796
779.838
779.878
779.914
779.949
779.982
780.013
780.044
780.074
780.103
780.133
780.161
780.19
780.218
780.246
780.274
780.302
780.33
780.358
780.385
780.412
780.439
780.466
780.493
780.52
780.547
780.573
780.6
780.626
780.652
780.678
780.704
780.73
780.756
780.782
780.807
780.833
780.858
780.883
780.908
780.933
780.958
780.982
781.007
781.031
781.056
781.08
781.104
781.128
781.151
781.175
781.198
781.222
781.245
781.268
781.291
781.314
781.337
781.359
781.382
781.404
781.426
781.448
781.47
781.491
781.513
781.534
781.556
781.576
781.599
781.617
781.642
781.658
781.684
781.698
781.725
781.738
781.765
781.777
781.805
781.816
781.843
781.855
781.882
781.893
781.92
781.93
781.96
781.972
776.495
776.505
776.529
776.553
776.578
776.605
776.634
776.663
776.692
776.72
776.748
776.777
776.807
776.837
776.866
776.896
776.926
776.956
776.987
777.017
777.048
777.078
777.109
777.139
777.17
777.2
777.231
777.261
777.292
777.322
777.353
777.384
777.415
777.446
777.478
777.509
777.54
777.571
777.602
777.633
777.664
777.696
777.727
777.758
777.79
777.821
777.852
777.884
777.915
777.946
777.978
778.009
778.04
778.072
778.104
778.135
778.167
778.198
778.23
778.262
778.293
778.325
778.356
778.388
778.419
778.45
778.482
778.513
778.545
778.576
778.608
778.639
778.671
778.702
778.734
778.765
778.796
778.827
778.858
778.889
778.919
778.948
778.978
779.01
779.044
779.078
779.11
779.132
779.141
779.141
779.13
779.093
779.065
779.054
779.052
779.052
779.058
779.078
779.144
779.263
779.385
779.499
779.595
779.669
779.723
779.759
779.782
779.797
779.809
779.82
779.836
779.855
779.878
779.903
779.93
779.958
779.987
780.017
780.046
780.075
780.104
780.133
780.162
780.19
780.218
780.247
780.274
780.302
780.33
780.358
780.385
780.412
780.439
780.466
780.493
780.52
780.547
780.573
780.6
780.626
780.652
780.678
780.704
780.73
780.756
780.782
780.807
780.833
780.858
780.883
780.908
780.933
780.958
780.982
781.007
781.031
781.056
781.08
781.104
781.128
781.151
781.175
781.198
781.222
781.245
781.268
781.291
781.314
781.337
781.359
781.382
781.404
781.426
781.448
781.47
781.491
781.513
781.534
781.556
781.576
781.599
781.617
781.642
781.658
781.684
781.698
781.725
781.738
781.765
781.777
781.805
781.816
781.843
781.855
781.882
781.893
781.919
781.93
781.958
781.97
776.513
776.524
776.548
776.58
776.61
776.637
776.665
776.695
776.725
776.755
776.784
776.813
776.843
776.872
776.902
776.932
776.962
776.993
777.023
777.053
777.084
777.114
777.145
777.175
777.206
777.236
777.267
777.298
777.328
777.359
777.39
777.421
777.452
777.483
777.514
777.545
777.576
777.607
777.638
777.67
777.701
777.732
777.764
777.795
777.826
777.857
777.889
777.92
777.951
777.983
778.014
778.045
778.077
778.109
778.14
778.172
778.203
778.235
778.267
778.298
778.33
778.361
778.393
778.424
778.455
778.487
778.518
778.55
778.581
778.612
778.644
778.675
778.706
778.737
778.769
778.799
778.83
778.86
778.89
778.919
778.948
778.977
779.008
779.041
779.074
779.106
779.132
779.147
779.15
779.146
779.124
779.099
779.089
779.086
779.087
779.091
779.105
779.145
779.221
779.305
779.388
779.465
779.533
779.59
779.638
779.678
779.712
779.742
779.769
779.795
779.822
779.849
779.876
779.905
779.933
779.962
779.991
780.02
780.049
780.077
780.106
780.135
780.163
780.191
780.219
780.247
780.275
780.303
780.33
780.358
780.385
780.412
780.439
780.466
780.493
780.52
780.547
780.573
780.6
780.626
780.652
780.678
780.704
780.73
780.756
780.782
780.807
780.833
780.858
780.883
780.908
780.933
780.958
780.982
781.007
781.031
781.056
781.08
781.104
781.128
781.151
781.175
781.198
781.222
781.245
781.268
781.291
781.314
781.337
781.359
781.382
781.404
781.426
781.448
781.47
781.492
781.513
781.534
781.556
781.577
781.599
781.618
781.641
781.659
781.682
781.7
781.723
781.739
781.765
781.777
781.805
781.817
781.843
781.855
781.882
781.893
781.919
781.93
781.954
781.971
776.465
776.487
776.511
776.535
776.561
776.591
776.621
776.65
776.679
776.709
776.738
776.768
776.798
776.828
776.858
776.887
776.917
776.947
776.978
777.008
777.038
777.068
777.099
777.129
777.16
777.191
777.221
777.252
777.283
777.314
777.344
777.375
777.406
777.437
777.468
777.499
777.53
777.562
777.593
777.624
777.655
777.686
777.718
777.749
777.78
777.812
777.843
777.875
777.906
777.937
777.969
778
778.032
778.063
778.095
778.126
778.158
778.189
778.221
778.252
778.284
778.316
778.347
778.379
778.41
778.442
778.473
778.505
778.537
778.568
778.6
778.631
778.663
778.694
778.726
778.758
778.789
778.821
778.852
778.884
778.916
778.947
778.978
779.009
779.04
779.073
779.107
779.141
779.168
779.186
779.196
779.2
779.203
779.207
779.212
779.222
779.239
779.267
779.306
779.353
779.405
779.459
779.511
779.559
779.604
779.645
779.683
779.718
779.752
779.784
779.815
779.845
779.875
779.905
779.934
779.963
779.992
780.021
780.05
780.078
780.107
780.135
780.163
780.192
780.22
780.247
780.275
780.303
780.33
780.358
780.385
780.412
780.439
780.467
780.493
780.52
780.547
780.573
780.6
780.626
780.652
780.678
780.704
780.73
780.756
780.782
780.807
780.833
780.858
780.883
780.908
780.933
780.958
780.982
781.007
781.031
781.056
781.08
781.104
781.128
781.151
781.175
781.198
781.222
781.245
781.268
781.291
781.314
781.337
781.359
781.381
781.404
781.426
781.448
781.47
781.492
781.513
781.535
781.556
781.577
781.598
781.619
781.639
781.661
781.68
781.701
781.722
781.741
781.761
781.782
781.799
781.823
781.837
781.86
781.878
781.895
781.917
781.933
781.953
781.969
776.514
776.552
776.589
776.625
776.661
776.696
776.729
776.762
776.794
776.825
776.855
776.886
776.916
776.946
776.976
777.006
777.036
777.066
777.096
777.127
777.157
777.188
777.218
777.249
777.279
777.31
777.341
777.371
777.402
777.433
777.463
777.494
777.525
777.556
777.587
777.618
777.649
777.681
777.712
777.743
777.774
777.806
777.837
777.868
777.899
777.931
777.962
777.993
778.025
778.056
778.087
778.118
778.15
778.181
778.212
778.244
778.275
778.306
778.338
778.369
778.4
778.431
778.462
778.492
778.523
778.553
778.584
778.614
778.644
778.674
778.704
778.734
778.763
778.792
778.82
778.849
778.878
778.906
778.935
778.965
778.997
779.029
779.06
779.088
779.112
779.127
779.135
779.139
779.141
779.144
779.151
779.165
779.18
779.196
779.215
779.241
779.274
779.314
779.358
779.406
779.453
779.5
779.544
779.586
779.625
779.661
779.696
779.729
779.761
779.791
779.822
779.851
779.881
779.91
779.939
779.967
779.996
780.024
780.052
780.08
780.109
780.137
780.165
780.192
780.22
780.248
780.276
780.303
780.331
780.358
780.385
780.412
780.44
780.467
780.493
780.52
780.547
780.573
780.6
780.626
780.652
780.678
780.704
780.73
780.756
780.782
780.807
780.833
780.858
780.883
780.908
780.933
780.958
780.982
781.007
781.031
781.056
781.08
781.104
781.128
781.151
781.175
781.198
781.222
781.245
781.268
781.291
781.314
781.337
781.359
781.381
781.404
781.426
781.448
781.47
781.492
781.513
781.535
781.555
781.578
781.597
781.62
781.638
781.662
781.679
781.704
781.719
781.745
781.758
781.785
781.797
781.824
781.836
781.863
781.874
781.901
781.912
781.938
781.949
781.975
776.386
776.419
776.448
776.476
776.504
776.534
776.564
776.594
776.624
776.654
776.685
776.715
776.745
776.775
776.805
776.834
776.864
776.894
776.924
776.954
776.985
777.015
777.045
777.076
777.106
777.137
777.168
777.198
777.229
777.26
777.291
777.322
777.353
777.384
777.415
777.446
777.477
777.508
777.539
777.57
777.601
777.633
777.664
777.695
777.727
777.758
777.79
777.821
777.853
777.884
777.916
777.947
777.979
778.01
778.042
778.073
778.105
778.136
778.168
778.199
778.231
778.262
778.294
778.326
778.357
778.389
778.42
778.451
778.482
778.514
778.545
778.577
778.608
778.64
778.671
778.703
778.735
778.767
778.798
778.829
778.86
778.892
778.925
778.958
778.989
779.019
779.05
779.082
779.115
779.15
779.189
779.228
779.263
779.288
779.305
779.318
779.327
779.332
779.338
779.352
779.386
779.432
779.484
779.537
779.587
779.633
779.676
779.715
779.751
779.785
779.818
779.849
779.879
779.909
779.938
779.967
779.996
780.024
780.052
780.081
780.109
780.137
780.165
780.193
780.22
780.248
780.276
780.303
780.331
780.358
780.385
780.413
780.44
780.467
780.493
780.52
780.547
780.573
780.6
780.626
780.652
780.678
780.704
780.73
780.756
780.782
780.807
780.833
780.858
780.883
780.908
780.933
780.958
780.982
781.007
781.031
781.055
781.08
781.104
781.128
781.151
781.175
781.198
781.222
781.245
781.268
781.291
781.314
781.337
781.359
781.382
781.404
781.426
781.448
781.47
781.492
781.513
781.535
781.555
781.578
781.597
781.62
781.638
781.662
781.679
781.704
781.719
781.745
781.758
781.785
781.797
781.824
781.836
781.863
781.874
781.9
781.912
781.936
781.953
781.971
776.471
776.517
776.557
776.596
776.635
776.674
776.711
776.748
776.782
776.816
776.848
776.88
776.911
776.941
776.971
777.002
777.032
777.062
777.092
777.122
777.153
777.183
777.213
777.244
777.275
777.305
777.336
777.367
777.398
777.429
777.459
777.49
777.521
777.551
777.582
777.614
777.645
777.676
777.707
777.738
777.769
777.8
777.832
777.863
777.894
777.925
777.956
777.987
778.018
778.049
778.08
778.111
778.142
778.173
778.205
778.236
778.268
778.3
778.331
778.363
778.395
778.427
778.459
778.49
778.52
778.551
778.583
778.614
778.644
778.674
778.703
778.732
778.761
778.79
778.818
778.847
778.877
778.909
778.941
778.973
779.005
779.037
779.071
779.104
779.135
779.164
779.188
779.204
779.214
779.221
779.224
779.228
779.236