/*--------------------------------*- C++ -*----------------------------------*\
| =========                 |                                                 |
| \\      /  F ield         | OpenFOAM: The Open Source CFD Toolbox           |
|  \\    /   O peration     | Version:  3.0.x                                 |
|   \\  /    A nd           | Web:      www.OpenFOAM.org                      |
|    \\/     M anipulation  |                                                 |
\*---------------------------------------------------------------------------*/
FoamFile
{
    version     2.0;
    format      ascii;
    class       volScalarField;
    location    "0.22";
    object      rho;
}
// * * * * * * * * * * * * * * * * * * * * * * * * * * * * * * * * * * * * * //

dimensions      [1 -3 0 0 0 0 0];

internalField   nonuniform List<scalar> 
6900
(
50.8046
50.8046
50.8046
50.8047
50.8048
50.805
50.8052
50.8055
50.8058
50.8062
50.8065
50.8069
50.8073
50.8077
50.808
50.8083
50.8086
50.8089
50.8091
50.8093
50.8096
50.81
50.8104
50.8109
50.8114
50.8119
50.8123
50.8128
50.8132
50.8136
50.8141
50.8145
50.815
50.8155
50.816
50.8166
50.8171
50.8178
50.8184
50.819
50.8197
50.8204
50.8211
50.8218
50.8225
50.8233
50.824
50.8247
50.8254
50.8261
50.8268
50.8275
50.8282
50.8288
50.8294
50.8299
50.8304
50.8309
50.8314
50.8318
50.8322
50.8325
50.8328
50.8331
50.8333
50.8335
50.8337
50.8339
50.834
50.8341
50.8342
50.8343
50.8343
50.8344
50.8345
50.8345
50.8346
50.8347
50.8347
50.8348
50.8349
50.835
50.8351
50.8352
50.8353
50.8354
50.8355
50.8355
50.8356
50.8357
50.8358
50.8358
50.8359
50.8359
50.8359
50.8359
50.8359
50.8358
50.8357
50.8356
50.8355
50.8353
50.8351
50.8349
50.8347
50.8344
50.8342
50.8339
50.8335
50.8332
50.8328
50.8325
50.8321
50.8317
50.8313
50.8308
50.8304
50.83
50.8295
50.829
50.8285
50.828
50.8275
50.8269
50.8263
50.8257
50.8251
50.8245
50.8238
50.8232
50.8225
50.8218
50.821
50.8203
50.8195
50.8188
50.818
50.8172
50.8165
50.8157
50.8149
50.8141
50.8133
50.8126
50.8118
50.8111
50.8104
50.8097
50.809
50.8083
50.8077
50.8071
50.8065
50.8059
50.8053
50.8048
50.8043
50.8038
50.8033
50.8027
50.8022
50.8017
50.8012
50.8006
50.8001
50.7995
50.7989
50.7983
50.7976
50.797
50.7964
50.7957
50.795
50.7944
50.7937
50.7931
50.7924
50.7917
50.7911
50.7904
50.7898
50.7891
50.7885
50.7879
50.7873
50.7867
50.7862
50.7856
50.7852
50.7847
50.7843
50.7839
50.7836
50.7833
50.783
50.7826
50.7823
50.782
50.782
50.7789
50.8047
50.8047
50.8048
50.8048
50.8049
50.8051
50.8053
50.8056
50.8059
50.8063
50.8066
50.807
50.8074
50.8078
50.8081
50.8084
50.8087
50.8089
50.8092
50.8094
50.8097
50.8101
50.8105
50.811
50.8115
50.812
50.8124
50.8129
50.8133
50.8137
50.8141
50.8146
50.8151
50.8156
50.8161
50.8166
50.8172
50.8178
50.8184
50.8191
50.8198
50.8205
50.8212
50.8219
50.8226
50.8233
50.8241
50.8248
50.8255
50.8262
50.8269
50.8276
50.8282
50.8288
50.8294
50.83
50.8305
50.831
50.8315
50.8319
50.8323
50.8326
50.8329
50.8332
50.8334
50.8336
50.8338
50.8339
50.8341
50.8342
50.8343
50.8343
50.8344
50.8345
50.8345
50.8346
50.8347
50.8347
50.8348
50.8349
50.835
50.835
50.8351
50.8352
50.8353
50.8354
50.8355
50.8356
50.8357
50.8358
50.8358
50.8359
50.8359
50.836
50.836
50.836
50.8359
50.8359
50.8358
50.8357
50.8355
50.8354
50.8352
50.835
50.8348
50.8345
50.8342
50.8339
50.8336
50.8333
50.8329
50.8325
50.8322
50.8318
50.8313
50.8309
50.8305
50.83
50.8295
50.8291
50.8286
50.8281
50.8275
50.827
50.8264
50.8258
50.8252
50.8245
50.8239
50.8232
50.8225
50.8218
50.8211
50.8204
50.8196
50.8188
50.8181
50.8173
50.8165
50.8157
50.815
50.8142
50.8134
50.8127
50.8119
50.8112
50.8104
50.8097
50.809
50.8084
50.8077
50.8071
50.8065
50.806
50.8054
50.8049
50.8043
50.8038
50.8033
50.8028
50.8023
50.8018
50.8012
50.8007
50.8001
50.7995
50.7989
50.7983
50.7977
50.7971
50.7964
50.7958
50.7951
50.7945
50.7938
50.7931
50.7925
50.7918
50.7912
50.7905
50.7898
50.7892
50.7886
50.7879
50.7873
50.7868
50.7862
50.7857
50.7852
50.7848
50.7844
50.784
50.7837
50.7833
50.783
50.7827
50.7824
50.782
50.782
50.7792
50.8047
50.8047
50.8047
50.8048
50.8049
50.8051
50.8053
50.8056
50.8059
50.8063
50.8066
50.807
50.8074
50.8078
50.8081
50.8084
50.8087
50.8089
50.8092
50.8094
50.8097
50.8101
50.8105
50.811
50.8115
50.812
50.8124
50.8129
50.8133
50.8137
50.8141
50.8146
50.8151
50.8156
50.8161
50.8166
50.8172
50.8178
50.8184
50.8191
50.8198
50.8205
50.8212
50.8219
50.8226
50.8233
50.8241
50.8248
50.8255
50.8262
50.8269
50.8276
50.8282
50.8288
50.8294
50.83
50.8305
50.831
50.8315
50.8319
50.8323
50.8326
50.8329
50.8332
50.8334
50.8336
50.8338
50.8339
50.8341
50.8342
50.8343
50.8343
50.8344
50.8345
50.8345
50.8346
50.8347
50.8347
50.8348
50.8349
50.835
50.835
50.8351
50.8352
50.8353
50.8354
50.8355
50.8356
50.8357
50.8358
50.8358
50.8359
50.8359
50.836
50.836
50.836
50.8359
50.8359
50.8358
50.8357
50.8355
50.8354
50.8352
50.835
50.8348
50.8345
50.8342
50.8339
50.8336
50.8333
50.8329
50.8325
50.8322
50.8318
50.8313
50.8309
50.8305
50.83
50.8295
50.8291
50.8286
50.8281
50.8275
50.827
50.8264
50.8258
50.8252
50.8245
50.8239
50.8232
50.8225
50.8218
50.8211
50.8204
50.8196
50.8188
50.8181
50.8173
50.8165
50.8157
50.815
50.8142
50.8134
50.8127
50.8119
50.8112
50.8104
50.8097
50.809
50.8084
50.8077
50.8071
50.8065
50.806
50.8054
50.8049
50.8043
50.8038
50.8033
50.8028
50.8023
50.8018
50.8012
50.8007
50.8001
50.7995
50.7989
50.7983
50.7977
50.7971
50.7964
50.7958
50.7951
50.7945
50.7938
50.7931
50.7925
50.7918
50.7912
50.7905
50.7898
50.7892
50.7885
50.7879
50.7873
50.7868
50.7862
50.7857
50.7852
50.7848
50.7844
50.784
50.7837
50.7833
50.783
50.7827
50.7824
50.782
50.7817
50.7812
50.8047
50.8047
50.8048
50.8048
50.8049
50.8051
50.8053
50.8056
50.8059
50.8063
50.8066
50.807
50.8074
50.8078
50.8081
50.8084
50.8087
50.8089
50.8092
50.8094
50.8097
50.8101
50.8105
50.811
50.8115
50.812
50.8124
50.8129
50.8133
50.8137
50.8141
50.8146
50.8151
50.8156
50.8161
50.8166
50.8172
50.8178
50.8184
50.8191
50.8198
50.8205
50.8212
50.8219
50.8226
50.8233
50.8241
50.8248
50.8255
50.8262
50.8269
50.8276
50.8282
50.8288
50.8294
50.83
50.8305
50.831
50.8315
50.8319
50.8323
50.8326
50.8329
50.8332
50.8334
50.8336
50.8338
50.8339
50.8341
50.8342
50.8343
50.8343
50.8344
50.8345
50.8345
50.8346
50.8347
50.8347
50.8348
50.8349
50.835
50.835
50.8351
50.8352
50.8353
50.8354
50.8355
50.8356
50.8357
50.8358
50.8358
50.8359
50.8359
50.836
50.836
50.836
50.8359
50.8359
50.8358
50.8357
50.8355
50.8354
50.8352
50.835
50.8348
50.8345
50.8342
50.8339
50.8336
50.8333
50.8329
50.8325
50.8322
50.8318
50.8313
50.8309
50.8305
50.83
50.8295
50.8291
50.8286
50.8281
50.8275
50.827
50.8264
50.8258
50.8252
50.8245
50.8239
50.8232
50.8225
50.8218
50.8211
50.8204
50.8196
50.8188
50.8181
50.8173
50.8165
50.8157
50.815
50.8142
50.8134
50.8127
50.8119
50.8112
50.8104
50.8097
50.809
50.8084
50.8077
50.8071
50.8065
50.806
50.8054
50.8049
50.8043
50.8038
50.8033
50.8028
50.8023
50.8018
50.8012
50.8007
50.8001
50.7995
50.7989
50.7983
50.7977
50.7971
50.7964
50.7958
50.7951
50.7945
50.7938
50.7931
50.7925
50.7918
50.7911
50.7905
50.7898
50.7892
50.7885
50.7879
50.7873
50.7868
50.7862
50.7857
50.7852
50.7848
50.7844
50.784
50.7837
50.7833
50.783
50.7827
50.7824
50.7821
50.7809
50.7862
50.8046
50.8046
50.8046
50.8047
50.8048
50.805
50.8052
50.8055
50.8058
50.8062
50.8065
50.8069
50.8073
50.8077
50.808
50.8083
50.8086
50.8089
50.8091
50.8093
50.8096
50.81
50.8104
50.8109
50.8114
50.8119
50.8123
50.8128
50.8132
50.8136
50.8141
50.8145
50.815
50.8155
50.816
50.8166
50.8171
50.8178
50.8184
50.819
50.8197
50.8204
50.8211
50.8218
50.8225
50.8233
50.824
50.8247
50.8254
50.8261
50.8268
50.8275
50.8282
50.8288
50.8294
50.8299
50.8304
50.8309
50.8314
50.8318
50.8322
50.8325
50.8328
50.8331
50.8333
50.8335
50.8337
50.8339
50.834
50.8341
50.8342
50.8343
50.8343
50.8344
50.8345
50.8345
50.8346
50.8347
50.8347
50.8348
50.8349
50.835
50.8351
50.8352
50.8353
50.8354
50.8355
50.8355
50.8356
50.8357
50.8358
50.8358
50.8359
50.8359
50.8359
50.8359
50.8359
50.8358
50.8357
50.8356
50.8355
50.8353
50.8351
50.8349
50.8347
50.8344
50.8342
50.8339
50.8335
50.8332
50.8328
50.8325
50.8321
50.8317
50.8313
50.8308
50.8304
50.83
50.8295
50.829
50.8285
50.828
50.8275
50.8269
50.8263
50.8257
50.8251
50.8245
50.8238
50.8232
50.8225
50.8218
50.821
50.8203
50.8195
50.8188
50.818
50.8172
50.8165
50.8157
50.8149
50.8141
50.8133
50.8126
50.8118
50.8111
50.8104
50.8097
50.809
50.8083
50.8077
50.8071
50.8065
50.8059
50.8053
50.8048
50.8043
50.8038
50.8033
50.8027
50.8022
50.8017
50.8012
50.8006
50.8001
50.7995
50.7989
50.7983
50.7976
50.797
50.7963
50.7957
50.795
50.7944
50.7937
50.7931
50.7924
50.7918
50.7911
50.7904
50.7898
50.7891
50.7885
50.7879
50.7873
50.7867
50.7862
50.7857
50.7852
50.7847
50.7843
50.784
50.7836
50.7833
50.7829
50.7827
50.7823
50.7821
50.7803
50.7915
50.796
50.8023
50.8029
50.801
50.7993
50.7975
50.795
50.7915
50.7881
50.7861
50.7888
50.7939
50.7938
50.7855
50.7703
50.757
50.7477
50.7393
50.7317
50.7352
50.7926
50.7957
50.7954
50.7937
50.792
50.7903
50.7878
50.7843
50.781
50.7792
50.7825
50.7879
50.7864
50.7755
50.7587
50.7468
50.7382
50.7306
50.7243
50.7269
50.7817
50.7815
50.7804
50.7783
50.7755
50.7721
50.768
50.7633
50.7575
50.7508
50.7427
50.734
50.7256
50.718
50.7107
50.7022
50.6923
50.6815
50.6701
50.6569
50.76
50.7571
50.7578
50.759
50.7578
50.7541
50.749
50.742
50.7362
50.7291
50.7227
50.7155
50.709
50.7027
50.6963
50.6909
50.686
50.6822
50.6789
50.6766
50.7506
50.7389
50.7346
50.7337
50.7315
50.7266
50.7203
50.7123
50.7051
50.6965
50.6888
50.6805
50.6727
50.6647
50.6576
50.6507
50.6451
50.6401
50.6365
50.6346
50.714
50.6781
50.6647
50.6649
50.6647
50.6622
50.6599
50.6594
50.6593
50.6589
50.6584
50.6579
50.6577
50.6575
50.6571
50.6567
50.6564
50.6561
50.6558
50.6554
50.655
50.6546
50.6542
50.6538
50.6535
50.6531
50.6524
50.6516
50.6509
50.6502
50.6496
50.649
50.6487
50.6487
50.6483
50.6471
50.6457
50.6448
50.6443
50.6439
50.6436
50.6433
50.6431
50.643
50.6427
50.6414
50.6345
50.6149
50.5999
50.5955
50.5973
50.6103
50.6327
50.6461
50.6516
50.6528
50.6524
50.6506
50.6489
50.6478
50.6472
50.6469
50.6467
50.6466
50.6465
50.6465
50.6465
50.6466
50.6466
50.6466
50.6466
50.6467
50.6466
50.6466
50.6466
50.6465
50.6465
50.6464
50.6463
50.6461
50.646
50.6458
50.6456
50.6454
50.6452
50.645
50.6447
50.6445
50.6443
50.6441
50.6438
50.6436
50.6434
50.6432
50.6431
50.6429
50.6428
50.6427
50.6426
50.6425
50.6425
50.6424
50.6424
50.6424
50.6425
50.6425
50.6426
50.6427
50.6428
50.6429
50.643
50.6431
50.6432
50.6434
50.6435
50.6436
50.6437
50.6438
50.6439
50.6439
50.644
50.644
50.644
50.644
50.644
50.6439
50.6438
50.6437
50.6436
50.6435
50.6433
50.6431
50.6429
50.6427
50.6425
50.6423
50.6421
50.6418
50.6416
50.6414
50.6411
50.6409
50.6407
50.6405
50.6403
50.6402
50.64
50.6399
50.6398
50.6397
50.6397
50.6396
50.6396
50.6396
50.6396
50.6396
50.6396
50.6396
50.6396
50.6396
50.6396
50.6396
50.6395
50.6394
50.6393
50.6392
50.6391
50.6389
50.6387
50.6384
50.6381
50.6379
50.6375
50.6372
50.6368
50.6364
50.636
50.6355
50.635
50.6345
50.634
50.6335
50.6329
50.6324
50.6318
50.6312
50.6306
50.63
50.6294
50.6289
50.6283
50.6278
50.6273
50.6269
50.6264
50.6261
50.6256
50.6254
50.624
50.632
50.7122
50.6771
50.6643
50.6642
50.6637
50.6611
50.6589
50.6583
50.6581
50.6577
50.6572
50.6568
50.6565
50.6562
50.6559
50.6556
50.6553
50.655
50.6547
50.6543
50.6539
50.6535
50.6531
50.6527
50.6522
50.6517
50.651
50.6501
50.6494
50.6488
50.6482
50.6476
50.6471
50.6467
50.646
50.6449
50.6437
50.643
50.6425
50.6422
50.6419
50.6416
50.6415
50.6414
50.641
50.6387
50.6299
50.6188
50.6134
50.6128
50.6155
50.6263
50.6379
50.6445
50.6474
50.6483
50.6484
50.6481
50.6475
50.6471
50.6469
50.6467
50.6466
50.6466
50.6465
50.6465
50.6466
50.6466
50.6466
50.6467
50.6467
50.6467
50.6467
50.6467
50.6467
50.6466
50.6465
50.6464
50.6463
50.6462
50.646
50.6459
50.6457
50.6455
50.6453
50.645
50.6448
50.6446
50.6444
50.6441
50.6439
50.6437
50.6435
50.6433
50.6431
50.643
50.6428
50.6427
50.6426
50.6426
50.6425
50.6425
50.6425
50.6425
50.6425
50.6426
50.6427
50.6428
50.6429
50.643
50.6431
50.6432
50.6433
50.6434
50.6435
50.6437
50.6438
50.6438
50.6439
50.644
50.644
50.644
50.6441
50.644
50.644
50.644
50.6439
50.6438
50.6437
50.6435
50.6434
50.6432
50.643
50.6428
50.6426
50.6424
50.6421
50.6419
50.6417
50.6414
50.6412
50.641
50.6408
50.6406
50.6404
50.6402
50.6401
50.64
50.6399
50.6398
50.6397
50.6397
50.6397
50.6396
50.6396
50.6397
50.6397
50.6397
50.6397
50.6397
50.6397
50.6396
50.6396
50.6395
50.6394
50.6393
50.6391
50.6389
50.6387
50.6385
50.6382
50.6379
50.6376
50.6372
50.6369
50.6365
50.636
50.6356
50.6351
50.6346
50.6341
50.6336
50.633
50.6324
50.6318
50.6313
50.6307
50.6301
50.6295
50.6289
50.6284
50.6279
50.6274
50.6269
50.6265
50.6261
50.6257
50.6254
50.6244
50.6276
50.6234
50.636
50.6446
50.6457
50.6439
50.6427
50.6422
50.642
50.6417
50.6414
50.6411
50.6408
50.6406
50.6404
50.6401
50.6398
50.6395
50.6391
50.6387
50.6382
50.6376
50.637
50.6365
50.636
50.6353
50.6346
50.6339
50.6331
50.6323
50.6316
50.6309
50.6303
50.6299
50.6303
50.633
50.6366
50.6395
50.6416
50.6428
50.6435
50.6438
50.6438
50.6438
50.6437
50.6436
50.6435
50.6436
50.6437
50.6443
50.645
50.6456
50.646
50.6463
50.6464
50.6464
50.6463
50.6463
50.6462
50.6462
50.6462
50.6462
50.6463
50.6463
50.6464
50.6464
50.6465
50.6465
50.6466
50.6466
50.6467
50.6467
50.6467
50.6467
50.6467
50.6467
50.6466
50.6465
50.6464
50.6463
50.6462
50.646
50.6459
50.6457
50.6455
50.6453
50.645
50.6448
50.6446
50.6444
50.6441
50.6439
50.6437
50.6435
50.6433
50.6431
50.643
50.6428
50.6427
50.6426
50.6426
50.6425
50.6425
50.6425
50.6425
50.6425
50.6426
50.6427
50.6428
50.6429
50.643
50.6431
50.6432
50.6433
50.6434
50.6435
50.6437
50.6438
50.6438
50.6439
50.644
50.644
50.644
50.6441
50.644
50.644
50.644
50.6439
50.6438
50.6437
50.6435
50.6434
50.6432
50.643
50.6428
50.6426
50.6424
50.6421
50.6419
50.6417
50.6414
50.6412
50.641
50.6408
50.6406
50.6404
50.6402
50.6401
50.64
50.6399
50.6398
50.6397
50.6397
50.6397
50.6396
50.6396
50.6397
50.6397
50.6397
50.6397
50.6397
50.6397
50.6396
50.6396
50.6395
50.6394
50.6393
50.6391
50.6389
50.6387
50.6385
50.6382
50.6379
50.6376
50.6372
50.6369
50.6365
50.636
50.6356
50.6351
50.6346
50.6341
50.6336
50.633
50.6324
50.6318
50.6313
50.6307
50.6301
50.6295
50.6289
50.6284
50.6279
50.6274
50.6269
50.6265
50.6261
50.6258
50.6254
50.6252
50.625
50.6688
50.6649
50.6633
50.6619
50.6604
50.6593
50.659
50.6588
50.6585
50.6581
50.6577
50.6574
50.6571
50.6568
50.6565
50.6562
50.6559
50.6555
50.6552
50.6548
50.6545
50.6541
50.6537
50.6533
50.6529
50.6523
50.6518
50.6513
50.6507
50.6502
50.6497
50.6491
50.6485
50.6477
50.6469
50.646
50.6452
50.6446
50.644
50.6433
50.6422
50.6413
50.6409
50.6404
50.6393
50.6362
50.6333
50.6321
50.632
50.6328
50.6363
50.6414
50.6448
50.6466
50.6474
50.6476
50.6475
50.6474
50.6471
50.6468
50.6467
50.6466
50.6465
50.6465
50.6465
50.6465
50.6466
50.6466
50.6466
50.6467
50.6467
50.6467
50.6467
50.6467
50.6467
50.6466
50.6465
50.6464
50.6463
50.6462
50.646
50.6459
50.6457
50.6455
50.6453
50.645
50.6448
50.6446
50.6444
50.6441
50.6439
50.6437
50.6435
50.6433
50.6431
50.643
50.6428
50.6427
50.6426
50.6426
50.6425
50.6425
50.6425
50.6425
50.6425
50.6426
50.6427
50.6428
50.6429
50.643
50.6431
50.6432
50.6433
50.6434
50.6435
50.6437
50.6438
50.6438
50.6439
50.644
50.644
50.644
50.6441
50.644
50.644
50.644
50.6439
50.6438
50.6437
50.6435
50.6434
50.6432
50.643
50.6428
50.6426
50.6424
50.6421
50.6419
50.6417
50.6414
50.6412
50.641
50.6408
50.6406
50.6404
50.6402
50.6401
50.64
50.6399
50.6398
50.6397
50.6397
50.6397
50.6396
50.6396
50.6397
50.6397
50.6397
50.6397
50.6397
50.6397
50.6396
50.6396
50.6395
50.6394
50.6393
50.6391
50.6389
50.6387
50.6385
50.6382
50.6379
50.6376
50.6372
50.6369
50.6365
50.636
50.6356
50.6351
50.6346
50.6341
50.6336
50.633
50.6324
50.6318
50.6313
50.6307
50.6301
50.6295
50.6289
50.6284
50.6279
50.6274
50.6269
50.6265
50.6261
50.6258
50.6255
50.6256
50.6242
50.6542
50.6562
50.6553
50.6542
50.6528
50.6518
50.6514
50.6512
50.6509
50.6505
50.6501
50.6498
50.6495
50.6492
50.6488
50.6485
50.6482
50.6479
50.6476
50.6473
50.647
50.6467
50.6463
50.6459
50.6454
50.6449
50.6443
50.6438
50.6433
50.6427
50.6421
50.6415
50.6407
50.6399
50.6391
50.6384
50.6377
50.6369
50.6359
50.6354
50.6352
50.6351
50.6349
50.6337
50.6271
50.6129
50.6037
50.6006
50.6009
50.6049
50.6165
50.6269
50.6342
50.6391
50.6421
50.644
50.645
50.6456
50.6459
50.6461
50.6461
50.6462
50.6463
50.6463
50.6464
50.6464
50.6465
50.6465
50.6466
50.6466
50.6466
50.6466
50.6466
50.6466
50.6466
50.6465
50.6465
50.6464
50.6463
50.6461
50.646
50.6458
50.6456
50.6454
50.6452
50.645
50.6447
50.6445
50.6443
50.6441
50.6438
50.6436
50.6434
50.6432
50.6431
50.6429
50.6428
50.6427
50.6426
50.6425
50.6425
50.6424
50.6424
50.6424
50.6425
50.6425
50.6426
50.6427
50.6428
50.6429
50.643
50.6431
50.6432
50.6434
50.6435
50.6436
50.6437
50.6438
50.6439
50.6439
50.644
50.644
50.644
50.644
50.644
50.6439
50.6438
50.6437
50.6436
50.6435
50.6433
50.6431
50.6429
50.6427
50.6425
50.6423
50.6421
50.6418
50.6416
50.6414
50.6411
50.6409
50.6407
50.6405
50.6403
50.6402
50.64
50.6399
50.6398
50.6397
50.6397
50.6396
50.6396
50.6396
50.6396
50.6396
50.6396
50.6396
50.6396
50.6396
50.6396
50.6396
50.6395
50.6394
50.6393
50.6392
50.6391
50.6389
50.6387
50.6384
50.6381
50.6378
50.6375
50.6372
50.6368
50.6364
50.636
50.6355
50.635
50.6345
50.634
50.6335
50.6329
50.6324
50.6318
50.6312
50.6306
50.63
50.6294
50.6289
50.6283
50.6278
50.6273
50.6268
50.6264
50.626
50.6257
50.6254
50.6255
50.624
50.5969
50.5846
50.5801
50.5792
50.5769
50.5721
50.5656
50.5589
50.5512
50.5436
50.5357
50.5276
50.5202
50.5127
50.5063
50.5001
50.4951
50.4906
50.4873
50.4858
50.6053
50.6023
50.6028
50.6039
50.6027
50.5991
50.5934
50.5883
50.5814
50.5755
50.5688
50.5622
50.5557
50.5498
50.5443
50.5391
50.5348
50.5312
50.5284
50.5265
50.6256
50.6254
50.6244
50.6224
50.6198
50.6165
50.6126
50.6077
50.6019
50.595
50.588
50.5812
50.5747
50.567
50.5581
50.5483
50.5379
50.5265
50.5134
50.5008
50.6356
50.6389
50.6387
50.637
50.6354
50.6337
50.6315
50.6295
50.6298
50.6329
50.6322
50.6249
50.6126
50.6026
50.5949
50.5878
50.5819
50.5798
50.5889
50.5996
50.6389
50.6453
50.646
50.6441
50.6424
50.6406
50.6384
50.6363
50.6363
50.6391
50.6389
50.6333
50.6219
50.6111
50.603
50.5954
50.5887
50.5857
50.5941
50.6067
50.5045
50.5069
50.5065
50.5055
50.5044
50.504
50.5038
50.5038
50.5036
50.5034
50.5032
50.5029
50.5026
50.5024
50.502
50.5017
50.5013
50.5008
50.5004
50.4999
50.4994
50.4989
50.4983
50.4977
50.4971
50.4965
50.4959
50.4953
50.4946
50.494
50.4933
50.4926
50.4918
50.4909
50.4901
50.4894
50.4888
50.4881
50.4872
50.4863
50.4858
50.4856
50.4855
50.4852
50.4837
50.4763
50.4621
50.4535
50.4507
50.451
50.4555
50.4671
50.4771
50.4841
50.4887
50.4915
50.4932
50.4941
50.4945
50.4946
50.4945
50.4943
50.4941
50.4938
50.4936
50.4932
50.4929
50.4925
50.4921
50.4918
50.4913
50.4909
50.4905
50.49
50.4896
50.4891
50.4887
50.4882
50.4877
50.4873
50.4868
50.4863
50.4858
50.4854
50.4849
50.4845
50.4841
50.4837
50.4833
50.483
50.4827
50.4824
50.4822
50.482
50.4819
50.4818
50.4817
50.4818
50.4807
50.4884
50.5187
50.5155
50.5144
50.5131
50.5119
50.5115
50.5113
50.5112
50.511
50.5107
50.5105
50.5103
50.51
50.5097
50.5094
50.509
50.5086
50.5082
50.5077
50.5072
50.5067
50.5062
50.5056
50.505
50.5044
50.5037
50.5031
50.5025
50.5019
50.5013
50.5007
50.5001
50.4993
50.4985
50.4976
50.4968
50.4961
50.4955
50.4949
50.4942
50.4934
50.4922
50.4914
50.4909
50.4904
50.4893
50.4862
50.4834
50.4822
50.4821
50.4829
50.4864
50.4912
50.4943
50.496
50.4967
50.4968
50.4965
50.4962
50.4957
50.4953
50.4949
50.4945
50.4941
50.4937
50.4934
50.493
50.4926
50.4922
50.4918
50.4914
50.491
50.4906
50.4901
50.4897
50.4892
50.4887
50.4883
50.4878
50.4873
50.4868
50.4864
50.4859
50.4854
50.485
50.4846
50.4842
50.4838
50.4834
50.4831
50.4828
50.4825
50.4823
50.4821
50.482
50.4819
50.4818
50.4818
50.4811
50.4842
50.4779
50.4892
50.4967
50.4973
50.4958
50.4952
50.4951
50.4951
50.4949
50.4947
50.4945
50.4943
50.494
50.4937
50.4934
50.493
50.4926
50.4921
50.4915
50.4909
50.4903
50.4896
50.4889
50.4882
50.4875
50.4868
50.486
50.4852
50.4843
50.4834
50.4826
50.4818
50.4811
50.4805
50.4811
50.4841
50.4873
50.4899
50.4917
50.4928
50.4933
50.4935
50.4935
50.4934
50.4933
50.4932
50.4932
50.4932
50.4934
50.494
50.4947
50.4952
50.4955
50.4957
50.4957
50.4956
50.4955
50.4953
50.4951
50.4949
50.4947
50.4944
50.4942
50.4939
50.4936
50.4933
50.4929
50.4926
50.4922
50.4918
50.4914
50.491
50.4906
50.4901
50.4897
50.4892
50.4887
50.4883
50.4878
50.4873
50.4868
50.4864
50.4859
50.4854
50.485
50.4846
50.4842
50.4838
50.4834
50.4831
50.4828
50.4825
50.4823
50.4821
50.482
50.4819
50.4818
50.4818
50.4818
50.4819
50.5497
50.5153
50.5156
50.5202
50.5168
50.5121
50.511
50.5111
50.5109
50.5104
50.51
50.5097
50.5095
50.5091
50.5088
50.5084
50.508
50.5076
50.5071
50.5065
50.506
50.5055
50.505
50.5044
50.5038
50.503
50.5021
50.5014
50.5006
50.5
50.4994
50.4988
50.4982
50.4977
50.4968
50.4956
50.4946
50.494
50.4936
50.4931
50.4926
50.492
50.4916
50.4913
50.4911
50.4905
50.488
50.479
50.4685
50.4636
50.4631
50.4656
50.4762
50.4875
50.4939
50.4968
50.4976
50.4975
50.497
50.4962
50.4956
50.4951
50.4946
50.4942
50.4938
50.4934
50.493
50.4926
50.4922
50.4918
50.4914
50.491
50.4906
50.4901
50.4897
50.4892
50.4887
50.4883
50.4878
50.4873
50.4868
50.4864
50.4859
50.4854
50.485
50.4846
50.4842
50.4838
50.4834
50.4831
50.4828
50.4825
50.4823
50.4821
50.482
50.4819
50.4818
50.4819
50.4823
50.4814
50.5539
50.516
50.5161
50.521
50.5177
50.513
50.5119
50.5122
50.5121
50.5115
50.511
50.5108
50.5106
50.5103
50.5099
50.5095
50.5092
50.5087
50.5082
50.5077
50.5071
50.5066
50.5061
50.5056
50.5051
50.5043
50.5035
50.5027
50.502
50.5013
50.5007
50.5003
50.5001
50.4998
50.4989
50.4976
50.4964
50.4957
50.4951
50.4947
50.4942
50.4938
50.4934
50.493
50.4928
50.4925
50.4912
50.4847
50.4662
50.4517
50.4471
50.4484
50.4598
50.4814
50.4947
50.5005
50.5017
50.5013
50.4995
50.4976
50.4963
50.4954
50.4948
50.4943
50.4938
50.4934
50.493
50.4926
50.4922
50.4918
50.4914
50.4909
50.4905
50.4901
50.4896
50.4891
50.4887
50.4882
50.4877
50.4873
50.4868
50.4863
50.4858
50.4854
50.4849
50.4845
50.4841
50.4837
50.4833
50.483
50.4827
50.4824
50.4822
50.482
50.4819
50.4818
50.4818
50.4818
50.4822
50.4812
50.4549
50.443
50.4386
50.4377
50.4355
50.4309
50.4245
50.418
50.4104
50.4031
50.3955
50.3876
50.3804
50.3731
50.3668
50.3608
50.3559
50.3515
50.3483
50.3467
50.4632
50.4603
50.4608
50.4619
50.4607
50.4573
50.4517
50.4467
50.44
50.4344
50.4278
50.4215
50.4152
50.4094
50.4041
50.3989
50.3948
50.3913
50.3885
50.3867
50.4827
50.4826
50.4817
50.4798
50.4774
50.4742
50.4705
50.4658
50.4601
50.4534
50.4466
50.44
50.4336
50.4263
50.4176
50.4081
50.398
50.3868
50.3741
50.3617
50.4924
50.4956
50.4956
50.4941
50.4925
50.4909
50.4888
50.4868
50.4869
50.4904
50.4902
50.4834
50.4712
50.4612
50.4537
50.4468
50.4409
50.4387
50.4469
50.4581
50.4956
50.502
50.5027
50.501
50.4994
50.4977
50.4956
50.4935
50.4934
50.4965
50.4967
50.4915
50.4804
50.4696
50.4616
50.4543
50.4476
50.4446
50.4521
50.465
50.365
50.3676
50.3679
50.3673
50.3665
50.3663
50.3665
50.3668
50.3669
50.3671
50.3672
50.3674
50.3675
50.3676
50.3676
50.3676
50.3676
50.3676
50.3675
50.3675
50.3673
50.3672
50.3671
50.3669
50.3667
50.3666
50.3665
50.3663
50.3662
50.366
50.3659
50.3657
50.3653
50.3649
50.3647
50.3644
50.3642
50.3636
50.3633
50.3633
50.3636
50.364
50.364
50.3614
50.3505
50.3386
50.3331
50.3325
50.3345
50.3429
50.3551
50.3641
50.3703
50.3745
50.3771
50.3787
50.3798
50.3804
50.3809
50.3812
50.3814
50.3816
50.3818
50.3819
50.382
50.3821
50.3821
50.3822
50.3822
50.3822
50.3822
50.3821
50.382
50.382
50.3818
50.3817
50.3816
50.3814
50.3813
50.3811
50.381
50.3808
50.3806
50.3805
50.3803
50.3802
50.38
50.3799
50.3798
50.3797
50.3796
50.3796
50.3795
50.3795
50.3795
50.3795
50.3795
50.3795
50.3796
50.3796
50.3797
50.3798
50.3799
50.38
50.3801
50.3802
50.3804
50.3805
50.3806
50.3807
50.3808
50.3809
50.3809
50.381
50.381
50.3811
50.3811
50.3811
50.3811
50.3811
50.381
50.381
50.3809
50.3809
50.3808
50.3807
50.3806
50.3805
50.3803
50.3802
50.3801
50.38
50.3799
50.3797
50.3796
50.3795
50.3794
50.3794
50.3793
50.3793
50.3792
50.3792
50.3792
50.3792
50.3793
50.3793
50.3794
50.3794
50.3795
50.3796
50.3797
50.3798
50.3799
50.38
50.3801
50.3801
50.3802
50.3802
50.3803
50.3803
50.3803
50.3803
50.3802
50.3802
50.3802
50.3801
50.3801
50.38
50.3799
50.3799
50.3798
50.3797
50.3796
50.3795
50.3794
50.3793
50.3792
50.3791
50.379
50.3788
50.3787
50.3786
50.3786
50.3785
50.3784
50.3784
50.3783
50.3783
50.3784
50.3784
50.3785
50.3785
50.3787
50.3788
50.3789
50.3791
50.3793
50.3795
50.3801
50.379
50.3787
50.3761
50.3756
50.3748
50.3739
50.3737
50.3739
50.3742
50.3743
50.3745
50.3746
50.3748
50.3749
50.375
50.375
50.3751
50.375
50.375
50.3749
50.3748
50.3747
50.3746
50.3744
50.3743
50.3741
50.3739
50.3738
50.3736
50.3735
50.3734
50.3733
50.3731
50.3729
50.3725
50.372
50.3717
50.3715
50.3715
50.3713
50.3708
50.3701
50.3699
50.37
50.3697
50.3681
50.3653
50.3638
50.3638
50.3646
50.367
50.3722
50.3766
50.3792
50.3807
50.3814
50.3817
50.3819
50.3818
50.3818
50.3818
50.3818
50.3819
50.382
50.3821
50.3821
50.3822
50.3822
50.3823
50.3823
50.3823
50.3822
50.3822
50.3821
50.382
50.3819
50.3818
50.3817
50.3815
50.3813
50.3812
50.381
50.3809
50.3807
50.3805
50.3804
50.3802
50.3801
50.38
50.3799
50.3798
50.3797
50.3796
50.3796
50.3795
50.3795
50.3795
50.3795
50.3796
50.3796
50.3797
50.3798
50.3799
50.38
50.3801
50.3802
50.3803
50.3804
50.3805
50.3806
50.3807
50.3808
50.3809
50.381
50.3811
50.3811
50.3811
50.3812
50.3812
50.3812
50.3811
50.3811
50.3811
50.381
50.3809
50.3808
50.3807
50.3806
50.3805
50.3804
50.3803
50.3802
50.38
50.3799
50.3798
50.3797
50.3796
50.3795
50.3794
50.3794
50.3793
50.3793
50.3793
50.3793
50.3793
50.3793
50.3794
50.3794
50.3795
50.3796
50.3797
50.3798
50.3799
50.3799
50.38
50.3801
50.3802
50.3802
50.3803
50.3803
50.3803
50.3803
50.3803
50.3803
50.3803
50.3802
50.3802
50.3801
50.3801
50.38
50.3799
50.3798
50.3797
50.3797
50.3796
50.3795
50.3793
50.3792
50.3791
50.379
50.3789
50.3788
50.3787
50.3786
50.3785
50.3785
50.3784
50.3784
50.3784
50.3784
50.3785
50.3785
50.3786
50.3787
50.3789
50.379
50.3792
50.3794
50.3796
50.3802
50.3792
50.3384
50.3505
50.3582
50.359
50.3579
50.3576
50.3579
50.3582
50.3584
50.3585
50.3587
50.3588
50.359
50.3591
50.3591
50.3591
50.3591
50.3591
50.359
50.3588
50.3586
50.3583
50.358
50.3577
50.3574
50.357
50.3565
50.356
50.3556
50.3552
50.355
50.3548
50.3549
50.3559
50.3594
50.3632
50.3662
50.3685
50.37
50.371
50.3717
50.3721
50.3726
50.373
50.3734
50.3739
50.3745
50.3753
50.3764
50.3774
50.3783
50.379
50.3795
50.3799
50.3802
50.3804
50.3806
50.3809
50.3811
50.3813
50.3815
50.3817
50.3818
50.3819
50.3821
50.3821
50.3822
50.3822
50.3823
50.3823
50.3822
50.3822
50.3821
50.382
50.3819
50.3818
50.3817
50.3815
50.3813
50.3812
50.381
50.3809
50.3807
50.3805
50.3804
50.3802
50.3801
50.38
50.3799
50.3798
50.3797
50.3796
50.3796
50.3795
50.3795
50.3795
50.3795
50.3796
50.3796
50.3797
50.3798
50.3799
50.38
50.3801
50.3802
50.3803
50.3804
50.3805
50.3806
50.3807
50.3808
50.3809
50.381
50.3811
50.3811
50.3811
50.3812
50.3812
50.3812
50.3811
50.3811
50.3811
50.381
50.3809
50.3808
50.3807
50.3806
50.3805
50.3804
50.3803
50.3802
50.38
50.3799
50.3798
50.3797
50.3796
50.3795
50.3794
50.3794
50.3793
50.3793
50.3793
50.3793
50.3793
50.3793
50.3794
50.3794
50.3795
50.3796
50.3797
50.3798
50.3799
50.3799
50.38
50.3801
50.3802
50.3802
50.3803
50.3803
50.3803
50.3803
50.3803
50.3803
50.3803
50.3802
50.3802
50.3801
50.3801
50.38
50.3799
50.3798
50.3797
50.3797
50.3796
50.3795
50.3793
50.3792
50.3791
50.379
50.3789
50.3788
50.3787
50.3786
50.3785
50.3785
50.3784
50.3784
50.3784
50.3784
50.3785
50.3785
50.3786
50.3787
50.3789
50.379
50.3792
50.3793
50.3795
50.3797
50.3799
50.4093
50.3763
50.377
50.3814
50.3781
50.3742
50.3737
50.3741
50.3742
50.3742
50.3741
50.3742
50.3743
50.3744
50.3744
50.3745
50.3745
50.3744
50.3743
50.3742
50.3741
50.374
50.3738
50.3737
50.3734
50.3732
50.3729
50.3726
50.3724
50.3722
50.372
50.3718
50.3717
50.3717
50.3711
50.3703
50.3699
50.3698
50.3698
50.3699
50.37
50.3703
50.3705
50.3707
50.3701
50.3654
50.3545
50.3474
50.3456
50.3469
50.3538
50.3668
50.3754
50.38
50.3819
50.3825
50.3827
50.3824
50.3822
50.382
50.382
50.382
50.3821
50.3821
50.3822
50.3822
50.3823
50.3823
50.3823
50.3823
50.3822
50.3822
50.3821
50.382
50.3819
50.3818
50.3817
50.3815
50.3813
50.3812
50.381
50.3809
50.3807
50.3805
50.3804
50.3802
50.3801
50.38
50.3799
50.3798
50.3797
50.3796
50.3796
50.3795
50.3795
50.3795
50.3795
50.3796
50.3796
50.3797
50.3798
50.3799
50.38
50.3801
50.3802
50.3803
50.3804
50.3805
50.3806
50.3807
50.3808
50.3809
50.381
50.3811
50.3811
50.3811
50.3812
50.3812
50.3812
50.3811
50.3811
50.3811
50.381
50.3809
50.3808
50.3807
50.3806
50.3805
50.3804
50.3803
50.3802
50.38
50.3799
50.3798
50.3797
50.3796
50.3795
50.3794
50.3794
50.3793
50.3793
50.3793
50.3793
50.3793
50.3793
50.3794
50.3794
50.3795
50.3796
50.3797
50.3798
50.3799
50.3799
50.38
50.3801
50.3802
50.3802
50.3803
50.3803
50.3803
50.3803
50.3803
50.3803
50.3803
50.3802
50.3802
50.3801
50.3801
50.38
50.3799
50.3798
50.3797
50.3797
50.3796
50.3795
50.3793
50.3792
50.3791
50.379
50.3789
50.3788
50.3787
50.3786
50.3785
50.3785
50.3784
50.3784
50.3784
50.3784
50.3785
50.3785
50.3786
50.3787
50.3789
50.379
50.3792
50.3793
50.3795
50.379
50.3826
50.4134
50.377
50.3774
50.3822
50.3791
50.3751
50.3746
50.3752
50.3754
50.3752
50.3752
50.3753
50.3754
50.3755
50.3755
50.3755
50.3755
50.3755
50.3754
50.3753
50.3752
50.3751
50.3749
50.3747
50.3745
50.3743
50.374
50.3738
50.3736
50.3734
50.3733
50.3732
50.3736
50.374
50.3734
50.3724
50.3717
50.3716
50.3716
50.3716
50.3717
50.3718
50.3721
50.3724
50.3722
50.3696
50.3568
50.3388
50.3306
50.3303
50.3363
50.3563
50.3741
50.383
50.3861
50.3866
50.3858
50.3841
50.383
50.3825
50.3822
50.3821
50.3821
50.3821
50.3821
50.3822
50.3822
50.3822
50.3822
50.3822
50.3822
50.3821
50.382
50.382
50.3818
50.3817
50.3816
50.3814
50.3813
50.3811
50.381
50.3808
50.3806
50.3805
50.3803
50.3802
50.38
50.3799
50.3798
50.3797
50.3796
50.3796
50.3795
50.3795