/*--------------------------------*- C++ -*----------------------------------*\
| =========                 |                                                 |
| \\      /  F ield         | OpenFOAM: The Open Source CFD Toolbox           |
|  \\    /   O peration     | Version:  3.0.x                                 |
|   \\  /    A nd           | Web:      www.OpenFOAM.org                      |
|    \\/     M anipulation  |                                                 |
\*---------------------------------------------------------------------------*/
FoamFile
{
    version     2.0;
    format      ascii;
    class       volVectorField;
    location    "0.22";
    object      U;
}
// * * * * * * * * * * * * * * * * * * * * * * * * * * * * * * * * * * * * * //

dimensions      [0 1 -1 0 0 0 0];

internalField   nonuniform List<vector> 
6900
(
(42.6981 0.000101344 0)
(42.6962 9.27772e-05 0)
(42.6941 9.01422e-05 0)
(42.6918 9.1108e-05 0)
(42.6895 9.18703e-05 0)
(42.6872 9.23296e-05 0)
(42.6848 9.26574e-05 0)
(42.6823 9.29782e-05 0)
(42.6796 9.32286e-05 0)
(42.6769 9.34335e-05 0)
(42.674 9.36038e-05 0)
(42.6709 9.37461e-05 0)
(42.6677 9.38651e-05 0)
(42.6644 9.39647e-05 0)
(42.6609 9.40475e-05 0)
(42.6572 9.41162e-05 0)
(42.6533 9.41714e-05 0)
(42.6492 9.42152e-05 0)
(42.6449 9.42375e-05 0)
(42.6404 9.42379e-05 0)
(42.6357 9.41723e-05 0)
(42.6307 9.41571e-05 0)
(42.6255 9.38798e-05 0)
(42.62 9.35746e-05 0)
(42.6142 9.30558e-05 0)
(42.6082 9.22735e-05 0)
(42.6018 9.1154e-05 0)
(42.5952 8.96142e-05 0)
(42.5882 8.75875e-05 0)
(42.581 8.49963e-05 0)
(42.5734 8.17977e-05 0)
(42.5655 7.79759e-05 0)
(42.5573 7.35472e-05 0)
(42.5489 6.8563e-05 0)
(42.5401 6.31129e-05 0)
(42.5311 5.73154e-05 0)
(42.5218 5.13114e-05 0)
(42.5122 4.52535e-05 0)
(42.5024 3.92943e-05 0)
(42.4923 3.3575e-05 0)
(42.4821 2.82163e-05 0)
(42.4716 2.33117e-05 0)
(42.4609 1.89238e-05 0)
(42.45 1.50849e-05 0)
(42.439 1.17985e-05 0)
(42.4278 9.04418e-06 0)
(42.4165 6.78319e-06 0)
(42.4051 4.9642e-06 0)
(42.3936 3.52912e-06 0)
(42.3821 2.41887e-06 0)
(42.3705 1.57631e-06 0)
(42.3589 9.49871e-07 0)
(42.3473 4.94867e-07 0)
(42.3358 1.73964e-07 0)
(42.3243 -6.27546e-08 0)
(42.3128 -2.34067e-07 0)
(42.3014 -3.50373e-07 0)
(42.2901 -4.28659e-07 0)
(42.2788 -4.81187e-07 0)
(42.2676 -5.1647e-07 0)
(42.2565 -5.40269e-07 0)
(42.2454 -5.5653e-07 0)
(42.2343 -5.67837e-07 0)
(42.2232 -5.75952e-07 0)
(42.2122 -5.81977e-07 0)
(42.2011 -5.86647e-07 0)
(42.19 -5.90508e-07 0)
(42.1788 -5.9354e-07 0)
(42.1675 -5.96041e-07 0)
(42.1561 -5.98161e-07 0)
(42.1445 -5.99931e-07 0)
(42.1328 -6.01389e-07 0)
(42.121 -6.02611e-07 0)
(42.1089 -6.03557e-07 0)
(42.0966 -6.0425e-07 0)
(42.0842 -6.04769e-07 0)
(42.0715 -6.05183e-07 0)
(42.0587 -6.05521e-07 0)
(42.0457 -6.05887e-07 0)
(42.0325 -6.0623e-07 0)
(42.0192 -6.0655e-07 0)
(42.0057 -6.06872e-07 0)
(41.9922 -6.07134e-07 0)
(41.9786 -6.06544e-07 0)
(41.9649 -6.07466e-07 0)
(41.9513 -6.08763e-07 0)
(41.9377 -6.0943e-07 0)
(41.9242 -6.09806e-07 0)
(41.9107 -6.10341e-07 0)
(41.8974 -6.11223e-07 0)
(41.8843 -6.12386e-07 0)
(41.8713 -6.13845e-07 0)
(41.8586 -6.15498e-07 0)
(41.8461 -6.17266e-07 0)
(41.8337 -6.19007e-07 0)
(41.8216 -6.20426e-07 0)
(41.8098 -6.22685e-07 0)
(41.7981 -6.24472e-07 0)
(41.7867 -6.26962e-07 0)
(41.7755 -6.31872e-07 0)
(41.7646 -6.32015e-07 0)
(41.7537 -6.33427e-07 0)
(41.7431 -6.3575e-07 0)
(41.7325 -6.38108e-07 0)
(41.722 -6.40314e-07 0)
(41.7116 -6.42421e-07 0)
(41.7013 -6.44453e-07 0)
(41.6909 -6.4636e-07 0)
(41.6805 -6.48128e-07 0)
(41.6701 -6.4971e-07 0)
(41.6596 -6.51148e-07 0)
(41.6491 -6.52424e-07 0)
(41.6384 -6.53562e-07 0)
(41.6276 -6.54591e-07 0)
(41.6167 -6.5553e-07 0)
(41.6057 -6.56409e-07 0)
(41.5947 -6.57235e-07 0)
(41.5835 -6.58036e-07 0)
(41.5722 -6.58823e-07 0)
(41.561 -6.59639e-07 0)
(41.5497 -6.60481e-07 0)
(41.5385 -6.61354e-07 0)
(41.5273 -6.62324e-07 0)
(41.5162 -6.63332e-07 0)
(41.5053 -6.64014e-07 0)
(41.4945 -6.64658e-07 0)
(41.4838 -6.65373e-07 0)
(41.4734 -6.66223e-07 0)
(41.4632 -6.6712e-07 0)
(41.4533 -6.67978e-07 0)
(41.4435 -6.68618e-07 0)
(41.434 -6.6897e-07 0)
(41.4248 -6.69068e-07 0)
(41.4157 -6.69132e-07 0)
(41.4069 -6.69357e-07 0)
(41.3982 -6.69697e-07 0)
(41.3897 -6.69976e-07 0)
(41.3814 -6.70003e-07 0)
(41.3733 -6.69662e-07 0)
(41.3652 -6.68978e-07 0)
(41.3572 -6.68e-07 0)
(41.3493 -6.66806e-07 0)
(41.3414 -6.65402e-07 0)
(41.3334 -6.64191e-07 0)
(41.3255 -6.62863e-07 0)
(41.3174 -6.61197e-07 0)
(41.3093 -6.59015e-07 0)
(41.3009 -6.56452e-07 0)
(41.2924 -6.53839e-07 0)
(41.2837 -6.51302e-07 0)
(41.2748 -6.49053e-07 0)
(41.2656 -6.46607e-07 0)
(41.2563 -6.43856e-07 0)
(41.2467 -6.40728e-07 0)
(41.2369 -6.37852e-07 0)
(41.227 -6.35822e-07 0)
(41.217 -6.34392e-07 0)
(41.2069 -6.33364e-07 0)
(41.1969 -6.32307e-07 0)
(41.187 -6.31624e-07 0)
(41.1772 -6.30865e-07 0)
(41.1676 -6.30694e-07 0)
(41.1583 -6.30314e-07 0)
(41.1493 -6.30495e-07 0)
(41.1406 -6.30366e-07 0)
(41.1322 -6.30619e-07 0)
(41.1242 -6.30684e-07 0)
(41.1165 -6.3084e-07 0)
(41.1091 -6.30908e-07 0)
(41.102 -6.30857e-07 0)
(41.0952 -6.30667e-07 0)
(41.0886 -6.30475e-07 0)
(41.0822 -6.30065e-07 0)
(41.076 -6.29851e-07 0)
(41.07 -6.29477e-07 0)
(41.0642 -6.29014e-07 0)
(41.0585 -6.28499e-07 0)
(41.0531 -6.27906e-07 0)
(41.0477 -6.2704e-07 0)
(41.0425 -6.25954e-07 0)
(41.0374 -6.24421e-07 0)
(41.0323 -6.22915e-07 0)
(41.0271 -6.21279e-07 0)
(41.0218 -6.196e-07 0)
(41.0162 -6.17308e-07 0)
(41.0104 -6.14912e-07 0)
(41.0042 -6.12183e-07 0)
(40.9976 -6.09469e-07 0)
(40.9905 -6.06804e-07 0)
(40.983 -6.03855e-07 0)
(40.975 -5.9888e-07 0)
(40.9665 -5.81854e-07 0)
(40.9576 -5.07356e-07 0)
(40.9484 4.97692e-08 0)
(40.9387 4.47844e-06 0)
(40.9281 3.47102e-05 0)
(40.9128 0.000250084 0)
(40.8646 0.00176503 0)
(40.6828 0.0160248 0)
(38.2368 0.082496 0)
(42.6999 0.000128555 0)
(42.6997 9.9269e-05 0)
(42.6994 8.61171e-05 0)
(42.699 8.5619e-05 0)
(42.6985 8.56292e-05 0)
(42.6979 8.52812e-05 0)
(42.6973 8.4991e-05 0)
(42.6966 8.48925e-05 0)
(42.6958 8.48211e-05 0)
(42.6948 8.47783e-05 0)
(42.6937 8.47575e-05 0)
(42.6925 8.47523e-05 0)
(42.6911 8.4757e-05 0)
(42.6895 8.47684e-05 0)
(42.6878 8.47834e-05 0)
(42.6859 8.48003e-05 0)
(42.6838 8.48164e-05 0)
(42.6816 8.48318e-05 0)
(42.6791 8.48345e-05 0)
(42.6764 8.48238e-05 0)
(42.6735 8.47392e-05 0)
(42.6703 8.47843e-05 0)
(42.6669 8.44769e-05 0)
(42.6632 8.42287e-05 0)
(42.6592 8.37741e-05 0)
(42.6549 8.30834e-05 0)
(42.6504 8.20929e-05 0)
(42.6454 8.07251e-05 0)
(42.6402 7.89256e-05 0)
(42.6346 7.66157e-05 0)
(42.6286 7.37584e-05 0)
(42.6223 7.03396e-05 0)
(42.6155 6.63725e-05 0)
(42.6084 6.19019e-05 0)
(42.6009 5.70081e-05 0)
(42.5931 5.17969e-05 0)
(42.5848 4.63951e-05 0)
(42.5762 4.09405e-05 0)
(42.5672 3.55707e-05 0)
(42.5578 3.04137e-05 0)
(42.5481 2.55786e-05 0)
(42.5381 2.11507e-05 0)
(42.5278 1.7187e-05 0)
(42.5173 1.37175e-05 0)
(42.5065 1.0746e-05 0)
(42.4955 8.25444e-06 0)
(42.4844 6.20856e-06 0)
(42.4731 4.56226e-06 0)
(42.4617 3.2632e-06 0)
(42.4502 2.25794e-06 0)
(42.4386 1.49353e-06 0)
(42.4271 9.21859e-07 0)
(42.4155 5.00289e-07 0)
(42.4039 1.94518e-07 0)
(42.3924 -2.38849e-08 0)
(42.381 -1.72277e-07 0)
(42.3696 -2.75516e-07 0)
(42.3582 -3.47264e-07 0)
(42.3469 -3.96845e-07 0)
(42.3357 -4.31327e-07 0)
(42.3246 -4.55598e-07 0)
(42.3135 -4.73095e-07 0)
(42.3024 -4.86062e-07 0)
(42.2913 -4.96048e-07 0)
(42.2803 -5.04011e-07 0)
(42.2692 -5.10552e-07 0)
(42.258 -5.16253e-07 0)
(42.2468 -5.20873e-07 0)
(42.2355 -5.2486e-07 0)
(42.2241 -5.28259e-07 0)
(42.2125 -5.31042e-07 0)
(42.2008 -5.3326e-07 0)
(42.1889 -5.35045e-07 0)
(42.1768 -5.36325e-07 0)
(42.1646 -5.3716e-07 0)
(42.1521 -5.37674e-07 0)
(42.1395 -5.3794e-07 0)
(42.1266 -5.37983e-07 0)
(42.1136 -5.3797e-07 0)
(42.1004 -5.37905e-07 0)
(42.087 -5.37814e-07 0)
(42.0736 -5.37748e-07 0)
(42.06 -5.3762e-07 0)
(42.0464 -5.36303e-07 0)
(42.0327 -5.37822e-07 0)
(42.019 -5.39719e-07 0)
(42.0054 -5.40295e-07 0)
(41.9919 -5.40491e-07 0)
(41.9785 -5.41156e-07 0)
(41.9652 -5.42527e-07 0)
(41.952 -5.44324e-07 0)
(41.9391 -5.46694e-07 0)
(41.9263 -5.49266e-07 0)
(41.9137 -5.52013e-07 0)
(41.9014 -5.54751e-07 0)
(41.8893 -5.56875e-07 0)
(41.8774 -5.6082e-07 0)
(41.8658 -5.63792e-07 0)
(41.8543 -5.68228e-07 0)
(41.8431 -5.76441e-07 0)
(41.8322 -5.76444e-07 0)
(41.8213 -5.78879e-07 0)
(41.8106 -5.82922e-07 0)
(41.8 -5.86946e-07 0)
(41.7895 -5.90674e-07 0)
(41.7791 -5.94234e-07 0)
(41.7688 -5.97655e-07 0)
(41.7584 -6.00878e-07 0)
(41.748 -6.03853e-07 0)
(41.7376 -6.06566e-07 0)
(41.7271 -6.0901e-07 0)
(41.7165 -6.11201e-07 0)
(41.7058 -6.13176e-07 0)
(41.695 -6.14972e-07 0)
(41.6841 -6.16631e-07 0)
(41.6731 -6.182e-07 0)
(41.662 -6.1971e-07 0)
(41.6508 -6.21201e-07 0)
(41.6396 -6.22709e-07 0)
(41.6283 -6.24294e-07 0)
(41.617 -6.25967e-07 0)
(41.6058 -6.27743e-07 0)
(41.5946 -6.29714e-07 0)
(41.5835 -6.31759e-07 0)
(41.5725 -6.33396e-07 0)
(41.5617 -6.35101e-07 0)
(41.5511 -6.36972e-07 0)
(41.5406 -6.39002e-07 0)
(41.5304 -6.41026e-07 0)
(41.5204 -6.42923e-07 0)
(41.5107 -6.44452e-07 0)
(41.5012 -6.45533e-07 0)
(41.4919 -6.46246e-07 0)
(41.4828 -6.46867e-07 0)
(41.474 -6.47581e-07 0)
(41.4653 -6.48279e-07 0)
(41.4568 -6.48758e-07 0)
(41.4485 -6.48823e-07 0)
(41.4403 -6.48401e-07 0)
(41.4322 -6.47529e-07 0)
(41.4242 -6.46245e-07 0)
(41.4163 -6.44608e-07 0)
(41.4084 -6.4262e-07 0)
(41.4004 -6.40766e-07 0)
(41.3924 -6.38595e-07 0)
(41.3844 -6.35843e-07 0)
(41.3762 -6.32375e-07 0)
(41.3679 -6.28427e-07 0)
(41.3593 -6.2439e-07 0)
(41.3506 -6.20399e-07 0)
(41.3417 -6.16675e-07 0)
(41.3325 -6.1265e-07 0)
(41.3231 -6.08266e-07 0)
(41.3135 -6.03579e-07 0)
(41.3037 -5.99383e-07 0)
(41.2938 -5.96371e-07 0)
(41.2838 -5.94133e-07 0)
(41.2737 -5.92513e-07 0)
(41.2637 -5.9099e-07 0)
(41.2538 -5.90267e-07 0)
(41.244 -5.89546e-07 0)
(41.2344 -5.89932e-07 0)
(41.225 -5.89968e-07 0)
(41.216 -5.91086e-07 0)
(41.2073 -5.91582e-07 0)
(41.1989 -5.92892e-07 0)
(41.1909 -5.93534e-07 0)
(41.1832 -5.9457e-07 0)
(41.1758 -5.9501e-07 0)
(41.1687 -5.95579e-07 0)
(41.1618 -5.95468e-07 0)
(41.1552 -5.95668e-07 0)
(41.1488 -5.94999e-07 0)
(41.1426 -5.9465e-07 0)
(41.1366 -5.93879e-07 0)
(41.1307 -5.93076e-07 0)
(41.1251 -5.92487e-07 0)
(41.1196 -5.91917e-07 0)
(41.1143 -5.90892e-07 0)
(41.109 -5.89894e-07 0)
(41.1039 -5.87939e-07 0)
(41.0988 -5.86246e-07 0)
(41.0936 -5.83738e-07 0)
(41.0882 -5.81341e-07 0)
(41.0827 -5.77275e-07 0)
(41.0768 -5.73574e-07 0)
(41.0706 -5.68733e-07 0)
(41.064 -5.63683e-07 0)
(41.0569 -5.58454e-07 0)
(41.0494 -5.51803e-07 0)
(41.0413 -5.35142e-07 0)
(41.0329 -4.47793e-07 0)
(41.024 1.18999e-07 0)
(41.0147 3.79667e-06 0)
(41.005 3.04603e-05 0)
(40.9945 0.000213886 0)
(40.9792 0.00150989 0)
(40.9321 0.0104726 0)
(40.7552 0.0755889 0)
(38.8611 0.356392 0)
(42.6999 1.73396e-12 0)
(42.6997 9.83533e-13 0)
(42.6994 -3.79415e-13 0)
(42.6989 -6.3144e-13 0)
(42.6984 -6.78375e-13 0)
(42.6979 -3.37597e-12 0)
(42.6973 -5.71008e-12 0)
(42.6966 -7.05121e-12 0)
(42.6957 -5.67971e-12 0)
(42.6948 -4.12858e-12 0)
(42.6937 -3.71971e-12 0)
(42.6924 -7.1638e-12 0)
(42.691 -1.03063e-11 0)
(42.6895 -1.22187e-11 0)
(42.6878 -1.36053e-11 0)
(42.6859 -1.34648e-11 0)
(42.6838 -1.41822e-11 0)
(42.6816 -1.46069e-11 0)
(42.6791 -1.46581e-11 0)
(42.6764 -1.45318e-11 0)
(42.6735 -1.49166e-11 0)
(42.6703 -1.5791e-11 0)
(42.6669 -1.83423e-11 0)
(42.6632 -1.94706e-11 0)
(42.6592 -1.97911e-11 0)
(42.6549 -1.96861e-11 0)
(42.6503 -1.85213e-11 0)
(42.6454 -1.73202e-11 0)
(42.6402 -1.54299e-11 0)
(42.6346 -1.45665e-11 0)
(42.6286 -1.45535e-11 0)
(42.6222 -1.53037e-11 0)
(42.6155 -1.41592e-11 0)
(42.6084 -1.38159e-11 0)
(42.6009 -1.38299e-11 0)
(42.593 -1.52448e-11 0)
(42.5848 -1.49037e-11 0)
(42.5762 -1.37312e-11 0)
(42.5672 -1.44426e-11 0)
(42.5578 -1.39696e-11 0)
(42.5481 -1.42275e-11 0)
(42.5381 -1.51999e-11 0)
(42.5278 -1.62106e-11 0)
(42.5173 -1.57776e-11 0)
(42.5065 -1.45479e-11 0)
(42.4955 -1.29514e-11 0)
(42.4844 -1.10851e-11 0)
(42.4731 -1.04748e-11 0)
(42.4617 -8.46194e-12 0)
(42.4502 -9.4379e-12 0)
(42.4386 -9.24823e-12 0)
(42.4271 -5.60025e-12 0)
(42.4155 -4.611e-13 0)
(42.4039 2.75776e-12 0)
(42.3924 1.52072e-12 0)
(42.381 5.23101e-13 0)
(42.3696 9.45149e-13 0)
(42.3582 -1.95261e-14 0)
(42.347 1.09346e-14 0)
(42.3357 -1.78132e-14 0)
(42.3246 2.72876e-12 0)
(42.3135 5.77077e-12 0)
(42.3024 6.73857e-12 0)
(42.2913 6.71402e-12 0)
(42.2803 6.31123e-12 0)
(42.2692 5.72043e-12 0)
(42.258 4.60432e-12 0)
(42.2468 4.03844e-12 0)
(42.2355 4.58945e-12 0)
(42.2241 3.64144e-12 0)
(42.2125 2.89665e-12 0)
(42.2008 1.26184e-12 0)
(42.1889 2.83655e-12 0)
(42.1769 3.16884e-12 0)
(42.1646 2.71626e-12 0)
(42.1521 2.22982e-12 0)
(42.1395 1.29037e-12 0)
(42.1266 6.11228e-14 0)
(42.1136 -2.0896e-12 0)
(42.1004 -5.52614e-12 0)
(42.087 -1.07093e-11 0)
(42.0736 -1.45175e-11 0)
(42.06 -1.61896e-11 0)
(42.0464 -1.81293e-11 0)
(42.0327 -1.80891e-11 0)
(42.0191 -1.66548e-11 0)
(42.0055 -1.4376e-11 0)
(41.9919 -1.36587e-11 0)
(41.9785 -1.45028e-11 0)
(41.9652 -1.66475e-11 0)
(41.952 -1.7694e-11 0)
(41.9391 -1.86987e-11 0)
(41.9263 -1.88978e-11 0)
(41.9137 -1.73002e-11 0)
(41.9014 -1.69073e-11 0)
(41.8893 -1.74411e-11 0)
(41.8774 -1.81848e-11 0)
(41.8658 -1.93792e-11 0)
(41.8543 -1.97746e-11 0)
(41.8431 -1.88894e-11 0)
(41.8322 -1.88867e-11 0)
(41.8213 -1.8684e-11 0)
(41.8106 -1.85386e-11 0)
(41.8 -1.83771e-11 0)
(41.7896 -1.78204e-11 0)
(41.7791 -1.65416e-11 0)
(41.7688 -1.56461e-11 0)
(41.7584 -1.56403e-11 0)
(41.748 -1.52624e-11 0)
(41.7376 -1.47011e-11 0)
(41.7271 -1.18449e-11 0)
(41.7165 -6.04798e-12 0)
(41.7058 5.3757e-13 0)
(41.695 4.77826e-12 0)
(41.6841 6.35322e-12 0)
(41.6731 6.09799e-12 0)
(41.662 5.99402e-12 0)
(41.6508 7.23644e-12 0)
(41.6396 7.13048e-12 0)
(41.6283 7.48861e-12 0)
(41.617 7.03123e-12 0)
(41.6058 9.795e-12 0)
(41.5946 1.19339e-11 0)
(41.5835 1.28775e-11 0)
(41.5725 1.41108e-11 0)
(41.5617 1.45758e-11 0)
(41.5511 1.49653e-11 0)
(41.5406 1.3624e-11 0)
(41.5304 1.33942e-11 0)
(41.5205 1.23119e-11 0)
(41.5107 1.11987e-11 0)
(41.5012 9.74956e-12 0)
(41.4919 8.20166e-12 0)
(41.4828 6.87412e-12 0)
(41.474 6.3713e-12 0)
(41.4653 7.42877e-12 0)
(41.4568 6.89803e-12 0)
(41.4485 5.27483e-12 0)
(41.4403 2.63171e-12 0)
(41.4322 4.50541e-13 0)
(41.4242 -6.09031e-14 0)
(41.4163 -1.86902e-12 0)
(41.4084 -2.87497e-12 0)
(41.4004 -3.84305e-12 0)
(41.3925 -3.77632e-12 0)
(41.3844 -2.09499e-12 0)
(41.3762 -1.73696e-12 0)
(41.3679 -7.36001e-13 0)
(41.3594 5.87091e-13 0)
(41.3506 6.24367e-13 0)
(41.3417 -3.91843e-13 0)
(41.3325 5.9187e-13 0)
(41.3231 4.22234e-12 0)
(41.3135 4.59889e-12 0)
(41.3037 1.48002e-11 0)
(41.2938 3.31876e-12 0)
(41.2838 2.5286e-11 0)
(41.2737 -1.51256e-11 0)
(41.2637 4.17135e-11 0)
(41.2538 -5.91771e-11 0)
(41.244 7.51122e-11 0)
(41.2344 -1.21805e-10 0)
(41.2251 1.45418e-10 0)
(41.216 -1.66688e-10 0)
(41.2073 2.42008e-10 0)
(41.1989 -2.60502e-10 0)
(41.1909 3.78798e-10 0)
(41.1832 -3.51153e-10 0)
(41.1758 5.34967e-10 0)
(41.1687 -5.02413e-10 0)
(41.1618 5.33829e-10 0)
(41.1552 -7.45126e-10 0)
(41.1488 -1.41414e-12 0)
(41.1426 -8.93648e-10 0)
(41.1366 -7.06263e-10 0)
(41.1307 -1.02678e-09 0)
(41.1251 -1.35018e-09 0)
(41.1196 -1.86643e-09 0)
(41.1143 -1.75887e-09 0)
(41.1091 -2.64027e-09 0)
(41.1039 -1.75624e-09 0)
(41.0988 -2.62188e-09 0)
(41.0936 -1.83384e-09 0)
(41.0882 -2.73148e-09 0)
(41.0827 -1.65248e-09 0)
(41.0768 -3.03937e-09 0)
(41.0706 -2.17897e-09 0)
(41.064 -2.53778e-09 0)
(41.0569 -1.24976e-09 0)
(41.0494 4.47534e-11 0)
(41.0414 2.03675e-08 0)
(41.0329 1.58915e-07 0)
(41.024 1.23994e-06 0)
(41.0147 8.74005e-06 0)
(41.0052 6.2706e-05 0)
(40.9953 0.000434717 0)
(40.9852 0.00309329 0)
(40.9734 0.0217378 0)
(40.9475 0.154716 0)
(40.7932 0.705323 0)
(42.6999 -0.000128555 0)
(42.6997 -9.9269e-05 0)
(42.6994 -8.61171e-05 0)
(42.699 -8.5619e-05 0)
(42.6985 -8.56292e-05 0)
(42.6979 -8.52812e-05 0)
(42.6973 -8.4991e-05 0)
(42.6966 -8.48925e-05 0)
(42.6958 -8.48211e-05 0)
(42.6948 -8.47783e-05 0)
(42.6937 -8.47575e-05 0)
(42.6925 -8.47523e-05 0)
(42.6911 -8.4757e-05 0)
(42.6895 -8.47684e-05 0)
(42.6878 -8.47833e-05 0)
(42.6859 -8.48003e-05 0)
(42.6838 -8.48164e-05 0)
(42.6816 -8.48318e-05 0)
(42.6791 -8.48345e-05 0)
(42.6764 -8.48238e-05 0)
(42.6735 -8.47392e-05 0)
(42.6703 -8.47843e-05 0)
(42.6669 -8.44769e-05 0)
(42.6632 -8.42287e-05 0)
(42.6592 -8.37741e-05 0)
(42.6549 -8.30834e-05 0)
(42.6504 -8.20929e-05 0)
(42.6454 -8.0725e-05 0)
(42.6402 -7.89256e-05 0)
(42.6346 -7.66157e-05 0)
(42.6286 -7.37584e-05 0)
(42.6223 -7.03396e-05 0)
(42.6155 -6.63725e-05 0)
(42.6084 -6.19019e-05 0)
(42.6009 -5.70081e-05 0)
(42.5931 -5.17969e-05 0)
(42.5848 -4.63951e-05 0)
(42.5762 -4.09405e-05 0)
(42.5672 -3.55707e-05 0)
(42.5578 -3.04137e-05 0)
(42.5481 -2.55786e-05 0)
(42.5381 -2.11507e-05 0)
(42.5278 -1.7187e-05 0)
(42.5173 -1.37175e-05 0)
(42.5065 -1.07459e-05 0)
(42.4955 -8.25444e-06 0)
(42.4844 -6.20855e-06 0)
(42.4731 -4.56226e-06 0)
(42.4617 -3.2632e-06 0)
(42.4502 -2.25793e-06 0)
(42.4386 -1.49353e-06 0)
(42.4271 -9.21858e-07 0)
(42.4155 -5.00289e-07 0)
(42.4039 -1.94519e-07 0)
(42.3924 2.38842e-08 0)
(42.381 1.72276e-07 0)
(42.3696 2.75515e-07 0)
(42.3582 3.47266e-07 0)
(42.3469 3.96848e-07 0)
(42.3357 4.31327e-07 0)
(42.3246 4.556e-07 0)
(42.3135 4.73094e-07 0)
(42.3024 4.8606e-07 0)
(42.2913 4.96046e-07 0)
(42.2803 5.04009e-07 0)
(42.2692 5.1055e-07 0)
(42.258 5.16256e-07 0)
(42.2468 5.20867e-07 0)
(42.2355 5.24861e-07 0)
(42.2241 5.2826e-07 0)
(42.2125 5.31043e-07 0)
(42.2008 5.33261e-07 0)
(42.1889 5.35042e-07 0)
(42.1768 5.36323e-07 0)
(42.1646 5.37161e-07 0)
(42.1521 5.37676e-07 0)
(42.1395 5.37942e-07 0)
(42.1266 5.37983e-07 0)
(42.1136 5.37972e-07 0)
(42.1004 5.37915e-07 0)
(42.087 5.37823e-07 0)
(42.0736 5.37754e-07 0)
(42.06 5.37625e-07 0)
(42.0464 5.3631e-07 0)
(42.0327 5.37826e-07 0)
(42.019 5.39723e-07 0)
(42.0054 5.40293e-07 0)
(41.9919 5.40491e-07 0)
(41.9785 5.41157e-07 0)
(41.9652 5.4253e-07 0)
(41.952 5.44328e-07 0)
(41.9391 5.46697e-07 0)
(41.9263 5.49271e-07 0)
(41.9137 5.52015e-07 0)
(41.9014 5.54753e-07 0)
(41.8893 5.56877e-07 0)
(41.8774 5.60822e-07 0)
(41.8658 5.63795e-07 0)
(41.8543 5.68231e-07 0)
(41.8431 5.76444e-07 0)
(41.8322 5.76448e-07 0)
(41.8213 5.78882e-07 0)
(41.8106 5.82929e-07 0)
(41.8 5.8695e-07 0)
(41.7895 5.90676e-07 0)
(41.7791 5.94237e-07 0)
(41.7688 5.97662e-07 0)
(41.7584 6.00882e-07 0)
(41.748 6.03856e-07 0)
(41.7376 6.06565e-07 0)
(41.7271 6.09004e-07 0)
(41.7165 6.11194e-07 0)
(41.7058 6.13169e-07 0)
(41.695 6.14969e-07 0)
(41.6841 6.16628e-07 0)
(41.6731 6.18199e-07 0)
(41.662 6.19709e-07 0)
(41.6508 6.21201e-07 0)
(41.6396 6.2271e-07 0)
(41.6283 6.24293e-07 0)
(41.617 6.25969e-07 0)
(41.6058 6.27744e-07 0)
(41.5946 6.29712e-07 0)
(41.5835 6.31756e-07 0)
(41.5725 6.3339e-07 0)
(41.5617 6.35096e-07 0)
(41.5511 6.3697e-07 0)
(41.5406 6.38998e-07 0)
(41.5304 6.41024e-07 0)
(41.5204 6.42921e-07 0)
(41.5107 6.44448e-07 0)
(41.5012 6.45529e-07 0)
(41.4919 6.46243e-07 0)
(41.4828 6.46865e-07 0)
(41.474 6.47579e-07 0)
(41.4653 6.48275e-07 0)
(41.4568 6.48752e-07 0)
(41.4485 6.48821e-07 0)
(41.4403 6.48403e-07 0)
(41.4322 6.47528e-07 0)
(41.4242 6.46243e-07 0)
(41.4163 6.44606e-07 0)
(41.4084 6.42622e-07 0)
(41.4004 6.40768e-07 0)
(41.3924 6.38596e-07 0)
(41.3844 6.35843e-07 0)
(41.3762 6.32379e-07 0)
(41.3679 6.28429e-07 0)
(41.3593 6.2439e-07 0)
(41.3506 6.20401e-07 0)
(41.3417 6.16679e-07 0)
(41.3325 6.1265e-07 0)
(41.3231 6.08268e-07 0)
(41.3135 6.03569e-07 0)
(41.3037 5.99393e-07 0)
(41.2938 5.96348e-07 0)
(41.2838 5.9417e-07 0)
(41.2737 5.92451e-07 0)
(41.2637 5.91081e-07 0)
(41.2538 5.90141e-07 0)
(41.244 5.89728e-07 0)
(41.2344 5.89709e-07 0)
(41.225 5.9024e-07 0)
(41.216 5.90785e-07 0)
(41.2073 5.91933e-07 0)
(41.1989 5.92505e-07 0)
(41.1909 5.93988e-07 0)
(41.1832 5.94068e-07 0)
(41.1758 5.95622e-07 0)
(41.1687 5.9489e-07 0)
(41.1618 5.96208e-07 0)
(41.1552 5.94851e-07 0)
(41.1488 5.95448e-07 0)
(41.1426 5.94029e-07 0)
(41.1366 5.93723e-07 0)
(41.1307 5.92729e-07 0)
(41.1251 5.91961e-07 0)
(41.1196 5.91127e-07 0)
(41.1143 5.90588e-07 0)
(41.109 5.88543e-07 0)
(41.1039 5.87742e-07 0)
(41.0988 5.84856e-07 0)
(41.0936 5.83381e-07 0)
(41.0882 5.79841e-07 0)
(41.0827 5.77314e-07 0)
(41.0768 5.71879e-07 0)
(41.0706 5.68224e-07 0)
(41.064 5.62563e-07 0)
(41.0569 5.58705e-07 0)
(41.0494 5.53459e-07 0)
(41.0413 5.62427e-07 0)
(41.0329 6.46572e-07 0)
(41.024 1.36416e-06 0)
(41.0147 6.56744e-06 0)
(41.0053 4.41895e-05 0)
(40.9966 0.000302437 0)
(40.9942 0.00217391 0)
(41.0384 0.0156947 0)
(41.2273 0.130554 0)
(44.2328 0.548531 0)
(42.6981 -0.000101344 0)
(42.6962 -9.27772e-05 0)
(42.6941 -9.01422e-05 0)
(42.6918 -9.1108e-05 0)
(42.6895 -9.18703e-05 0)
(42.6872 -9.23296e-05 0)
(42.6848 -9.26574e-05 0)
(42.6823 -9.29782e-05 0)
(42.6796 -9.32286e-05 0)
(42.6769 -9.34335e-05 0)
(42.674 -9.36038e-05 0)
(42.6709 -9.37461e-05 0)
(42.6677 -9.38651e-05 0)
(42.6644 -9.39647e-05 0)
(42.6609 -9.40475e-05 0)
(42.6572 -9.41162e-05 0)
(42.6533 -9.41714e-05 0)
(42.6492 -9.42152e-05 0)
(42.6449 -9.42375e-05 0)
(42.6404 -9.42379e-05 0)
(42.6357 -9.41723e-05 0)
(42.6307 -9.41571e-05 0)
(42.6255 -9.38798e-05 0)
(42.62 -9.35746e-05 0)
(42.6142 -9.30558e-05 0)
(42.6082 -9.22735e-05 0)
(42.6018 -9.1154e-05 0)
(42.5952 -8.96142e-05 0)
(42.5882 -8.75875e-05 0)
(42.581 -8.49963e-05 0)
(42.5734 -8.17977e-05 0)
(42.5655 -7.79759e-05 0)
(42.5573 -7.35472e-05 0)
(42.5489 -6.8563e-05 0)
(42.5401 -6.31129e-05 0)
(42.5311 -5.73154e-05 0)
(42.5218 -5.13114e-05 0)
(42.5122 -4.52535e-05 0)
(42.5024 -3.92943e-05 0)
(42.4923 -3.3575e-05 0)
(42.4821 -2.82163e-05 0)
(42.4716 -2.33117e-05 0)
(42.4609 -1.89238e-05 0)
(42.45 -1.50849e-05 0)
(42.439 -1.17985e-05 0)
(42.4278 -9.04417e-06 0)
(42.4165 -6.78319e-06 0)
(42.4051 -4.9642e-06 0)
(42.3936 -3.52912e-06 0)
(42.3821 -2.41887e-06 0)
(42.3705 -1.57631e-06 0)
(42.3589 -9.4987e-07 0)
(42.3473 -4.94865e-07 0)
(42.3358 -1.73961e-07 0)
(42.3243 6.27573e-08 0)
(42.3128 2.34067e-07 0)
(42.3014 3.50373e-07 0)
(42.2901 4.28656e-07 0)
(42.2788 4.81185e-07 0)
(42.2676 5.16468e-07 0)
(42.2565 5.40274e-07 0)
(42.2454 5.56534e-07 0)
(42.2343 5.6784e-07 0)
(42.2232 5.75954e-07 0)
(42.2122 5.81978e-07 0)
(42.2011 5.86647e-07 0)
(42.19 5.9051e-07 0)
(42.1788 5.93543e-07 0)
(42.1675 5.9604e-07 0)
(42.1561 5.98157e-07 0)
(42.1445 5.99928e-07 0)
(42.1328 6.01387e-07 0)
(42.121 6.02613e-07 0)
(42.1089 6.03558e-07 0)
(42.0966 6.04247e-07 0)
(42.0842 6.04769e-07 0)
(42.0715 6.05181e-07 0)
(42.0587 6.0552e-07 0)
(42.0457 6.05866e-07 0)
(42.0325 6.06216e-07 0)
(42.0192 6.06541e-07 0)
(42.0057 6.06865e-07 0)
(41.9922 6.07128e-07 0)
(41.9786 6.06538e-07 0)
(41.9649 6.0746e-07 0)
(41.9513 6.08764e-07 0)
(41.9377 6.09431e-07 0)
(41.9242 6.09806e-07 0)
(41.9107 6.10343e-07 0)
(41.8974 6.11226e-07 0)
(41.8843 6.12387e-07 0)
(41.8713 6.13843e-07 0)
(41.8586 6.15499e-07 0)
(41.8461 6.17265e-07 0)
(41.8337 6.19005e-07 0)
(41.8216 6.2042e-07 0)
(41.8098 6.22681e-07 0)
(41.7981 6.24471e-07 0)
(41.7867 6.2696e-07 0)
(41.7755 6.31869e-07 0)
(41.7646 6.32009e-07 0)
(41.7537 6.33423e-07 0)
(41.7431 6.35745e-07 0)
(41.7325 6.38105e-07 0)
(41.722 6.40309e-07 0)
(41.7116 6.4242e-07 0)
(41.7013 6.44448e-07 0)
(41.6909 6.46359e-07 0)
(41.6805 6.48125e-07 0)
(41.6701 6.49728e-07 0)
(41.6596 6.51157e-07 0)
(41.6491 6.5243e-07 0)
(41.6384 6.53568e-07 0)
(41.6276 6.54595e-07 0)
(41.6167 6.55533e-07 0)
(41.6057 6.56409e-07 0)
(41.5947 6.57235e-07 0)
(41.5835 6.58032e-07 0)
(41.5722 6.58819e-07 0)
(41.561 6.59637e-07 0)
(41.5497 6.60477e-07 0)
(41.5385 6.61354e-07 0)
(41.5273 6.62324e-07 0)
(41.5162 6.63331e-07 0)
(41.5053 6.64019e-07 0)
(41.4945 6.64658e-07 0)
(41.4838 6.65373e-07 0)
(41.4734 6.66223e-07 0)
(41.4632 6.6712e-07 0)
(41.4533 6.67977e-07 0)
(41.4435 6.68624e-07 0)
(41.434 6.68971e-07 0)
(41.4248 6.69065e-07 0)
(41.4157 6.69133e-07 0)
(41.4069 6.6936e-07 0)
(41.3982 6.697e-07 0)
(41.3897 6.69981e-07 0)
(41.3814 6.70001e-07 0)
(41.3733 6.69661e-07 0)
(41.3652 6.68979e-07 0)
(41.3572 6.68005e-07 0)
(41.3493 6.66804e-07 0)
(41.3414 6.65398e-07 0)
(41.3334 6.64188e-07 0)
(41.3255 6.62859e-07 0)
(41.3174 6.612e-07 0)
(41.3093 6.59012e-07 0)
(41.3009 6.56451e-07 0)
(41.2924 6.53838e-07 0)
(41.2837 6.513e-07 0)
(41.2748 6.49053e-07 0)
(41.2656 6.46608e-07 0)
(41.2563 6.43859e-07 0)
(41.2467 6.40727e-07 0)
(41.2369 6.37863e-07 0)
(41.227 6.35808e-07 0)
(41.217 6.3442e-07 0)
(41.2069 6.33331e-07 0)
(41.1969 6.32357e-07 0)
(41.187 6.31547e-07 0)
(41.1772 6.30951e-07 0)
(41.1676 6.30576e-07 0)
(41.1583 6.30424e-07 0)
(41.1493 6.30356e-07 0)
(41.1406 6.30476e-07 0)
(41.1322 6.30495e-07 0)
(41.1242 6.30758e-07 0)
(41.1165 6.30687e-07 0)
(41.1091 6.30987e-07 0)
(41.102 6.30677e-07 0)
(41.0952 6.30886e-07 0)
(41.0886 6.30414e-07 0)
(41.0822 6.30526e-07 0)
(41.076 6.30133e-07 0)
(41.07 6.30034e-07 0)
(41.0642 6.29705e-07 0)
(41.0585 6.29334e-07 0)
(41.0531 6.28995e-07 0)
(41.0477 6.28507e-07 0)
(41.0425 6.27255e-07 0)
(41.0374 6.25982e-07 0)
(41.0323 6.24151e-07 0)
(41.0271 6.22754e-07 0)
(41.0218 6.20834e-07 0)
(41.0162 6.1901e-07 0)
(41.0104 6.16258e-07 0)
(41.0042 6.1385e-07 0)
(40.9976 6.10882e-07 0)
(40.9905 6.08294e-07 0)
(40.983 6.0545e-07 0)
(40.975 6.05786e-07 0)
(40.9665 6.21766e-07 0)
(40.9576 7.50934e-07 0)
(40.9484 1.5768e-06 0)
(40.939 7.48342e-06 0)
(40.9303 4.70288e-05 0)
(40.9281 0.000341702 0)
(40.9755 0.00269369 0)
(41.1811 0.0381562 0)
(46.2425 0.155431 0)
(36.8698 1.25533 -3.17299e-15)
(35.8264 3.60169 6.36405e-15)
(35.422 6.27086 -1.19314e-14)
(35.0354 8.97571 2.46497e-14)
(34.4372 11.6655 -2.54256e-14)
(33.6612 14.3401 -1.58742e-15)
(32.689 16.9707 1.03225e-19)
(31.3766 19.4413 -2.22065e-14)
(29.6195 21.6281 -1.0313e-13)
(27.5469 23.5401 1.01676e-13)
(25.7729 25.7446 -2.53608e-14)
(24.7539 28.9268 -5.18773e-14)
(24.0017 33.0811 2.64573e-14)
(22.6692 37.2197 0)
(20.3206 39.8915 2.47289e-14)
(17.1437 40.8408 2.4729e-14)
(13.6942 40.7992 -2.48058e-14)
(10.2502 40.1894 2.49204e-14)
(6.96389 39.1976 1.958e-16)
(4.0038 40.7856 -1.92908e-16)
(38.0148 1.97468 0)
(37.3951 4.81922 0)
(36.9949 7.9514 -1.61579e-15)
(36.5015 11.0634 -3.22789e-15)
(35.7766 14.1253 8.05797e-15)
(34.8421 17.1679 1.60883e-14)
(33.6287 20.2435 0)
(31.936 23.278 9.64098e-15)
(29.7426 25.9571 1.60617e-14)
(27.2851 28.0793 -3.85738e-14)
(25.5599 29.7705 2.56398e-14)
(24.7619 32.1704 1.2693e-14)
(23.9379 35.9468 -1.2549e-14)
(21.8707 40.6292 1.24633e-14)
(18.1875 44.5433 0)
(13.8247 46.3505 -1.55698e-15)
(9.29468 46.7385 1.55766e-15)
(4.84815 46.081 -5.46844e-15)
(0.906937 44.376 -7.86209e-16)
(1.93113 43.2085 0)
(40.7448 1.55132 -4.12433e-17)
(40.7449 2.55824 -2.09599e-14)
(40.8451 3.58209 2.12877e-14)
(41.0277 4.60208 -2.04609e-14)
(41.2452 5.68335 -2.24435e-14)
(41.4628 6.89027 8.35407e-14)
(41.6662 8.25906 -4.22912e-14)
(41.843 9.83651 4.09891e-14)
(41.9301 11.6862 -8.33289e-14)
(41.8145 13.8476 1.33044e-15)
(41.3056 16.284 4.10367e-14)
(40.3736 18.755 0)
(39.3206 20.9857 -4.11363e-14)
(38.5316 22.941 4.12275e-14)
(38.0736 24.9112 -3.32871e-16)
(37.5138 27.2084 0)
(36.5384 29.7904 3.32941e-16)
(35.0416 32.5373 0)
(32.9559 35.342 0)
(30.1527 37.9579 0)
(44.7445 2.53326 6.3231e-16)
(44.4763 5.83038 -6.34367e-15)
(43.5026 9.75119 -1.27127e-15)
(42.3573 13.769 2.5392e-15)
(41.3134 17.7323 -2.52849e-15)
(40.2983 21.6319 -4.54016e-19)
(39.1528 25.4625 -9.99997e-15)
(37.735 29.1815 0)
(36.009 32.7725 0)
(33.98 36.2297 -4.92195e-15)
(31.627 39.5076 4.89735e-15)
(28.9735 42.6061 0)
(26.0065 45.4825 -4.85077e-15)
(22.7337 48.0994 4.83441e-15)
(19.1741 50.4138 -4.81871e-15)
(15.3697 52.3834 9.60827e-15)
(11.375 53.9799 -4.79423e-15)
(7.26059 55.1868 0)
(3.12415 56.0191 -2.3857e-15)
(-0.645876 56.4681 0)
(47.6479 1.75571 -9.65125e-16)
(48.5807 4.50044 7.39835e-15)
(48.2988 7.79551 5.14672e-15)
(47.5185 11.2486 1.0284e-14)
(46.7232 14.8269 0)
(45.927 18.5262 0)
(44.9943 22.3044 1.01835e-14)
(43.8066 26.0779 2.53474e-15)
(42.2982 29.8324 -5.04689e-15)
(40.4782 33.5035 2.51321e-15)
(38.3099 37.0663 2.00195e-14)
(35.8195 40.4721 -1.24633e-14)
(33.0064 43.6626 1.24227e-14)
(29.8835 46.577 -2.47657e-15)
(26.4693 49.1591 -9.88472e-15)
(22.7902 51.3615 -1.72769e-14)
(18.887 53.1396 -8.63297e-15)
(14.8069 54.4321 -1.2334e-15)
(10.6329 55.112 7.0987e-15)
(6.61942 54.8512 3.09524e-16)
(1.06547 53.0593 0)
(0.90378 58.004 0)
(1.04138 57.255 0)
(1.06619 55.8963 0)
(1.02143 55.9506 0)
(1.00105 56.6204 0)
(1.0231 56.9563 0)
(1.03429 56.9113 0)
(1.03592 56.8114 0)
(1.03157 56.8058 0)
(1.0291 56.8595 0)
(1.03138 56.8934 0)
(1.03321 56.8899 0)
(1.03323 56.8808 0)
(1.03301 56.8807 0)
(1.03296 56.8769 0)
(1.03282 56.864 0)
(1.0324 56.846 0)
(1.03169 56.8246 0)
(1.03076 56.8007 0)
(1.02971 56.7749 0)
(1.02862 56.7479 0)
(1.02746 56.7213 0)
(1.02591 56.7007 0)
(1.02248 56.7028 0)
(1.01919 56.7392 0)
(1.01945 56.7812 0)
(1.02026 56.795 0)
(1.01895 56.7822 0)
(1.01525 56.7533 0)
(1.00885 56.7108 0)
(0.998804 56.6609 0)
(0.982348 56.6274 0)
(0.954952 56.6784 0)
(0.927497 56.8344 0)
(0.908249 56.9796 0)
(0.887598 57.0047 0)
(0.85869 56.9213 0)
(0.821639 56.7725 0)
(0.778255 56.566 0)
(0.729971 56.3017 0)
(0.678135 55.9783 0)
(0.624012 55.5919 0)
(0.568732 55.1355 0)
(0.513243 54.5991 0)
(0.458233 53.9711 0)
(0.404399 53.2384 0)
(0.352402 52.3918 0)
(0.302602 51.4308 0)
(0.25611 50.3663 0)
(0.21363 49.2223 0)
(0.175401 48.0388 0)
(0.142376 46.8633 0)
(0.114204 45.7435 0)
(0.0907054 44.7223 0)
(0.0714799 43.8291 0)
(0.0559516 43.0779 0)
(0.0435158 42.4676 0)
(0.0335553 41.987 0)
(0.0256396 41.6183 0)
(0.0193786 41.3417 0)
(0.0144678 41.1382 0)
(0.0106593 40.9908 0)
(0.00774526 40.8856 0)
(0.0055486 40.8114 0)
(0.00391851 40.7597 0)
(0.00272814 40.724 0)
(0.00187272 40.6998 0)
(0.00126771 40.6835 0)
(0.000846453 40.6727 0)
(0.000557609 40.6658 0)
(0.000362505 40.6614 0)
(0.00023263 40.6589 0)
(0.000147446 40.6575 0)
(9.23044e-05 40.657 0)
(5.71163e-05 40.657 0)
(3.49693e-05 40.6574 0)
(2.12009e-05 40.658 0)
(1.27562e-05 40.6588 0)
(7.64039e-06 40.6597 0)
(4.57948e-06 40.6606 0)
(2.77143e-06 40.6614 0)
(1.71591e-06 40.6623 0)
(1.10778e-06 40.6631 0)
(7.64822e-07 40.6639 0)
(5.66433e-07 40.6646 0)
(4.56035e-07 40.6652 0)
(3.95467e-07 40.6656 0)
(3.62337e-07 40.666 0)
(3.44063e-07 40.6662 0)
(3.33757e-07 40.6662 0)
(3.27955e-07 40.6661 0)
(3.23836e-07 40.6658 0)
(3.21079e-07 40.6654 0)
(3.18765e-07 40.6647 0)
(3.16662e-07 40.6639 0)