/*--------------------------------*- C++ -*----------------------------------*\
| =========                 |                                                 |
| \\      /  F ield         | OpenFOAM: The Open Source CFD Toolbox           |
|  \\    /   O peration     | Version:  3.0.x                                 |
|   \\  /    A nd           | Web:      www.OpenFOAM.org                      |
|    \\/     M anipulation  |                                                 |
\*---------------------------------------------------------------------------*/
FoamFile
{
    version     2.0;
    format      ascii;
    class       volVectorField;
    location    "0.65";
    object      U;
}
// * * * * * * * * * * * * * * * * * * * * * * * * * * * * * * * * * * * * * //

dimensions      [0 1 -1 0 0 0 0];

internalField   nonuniform List<vector> 
1000
(
(50 0 0)
(50 0 0)
(50 0 0)
(50 0 0)
(50 0 0)
(50 0 0)
(50 0 0)
(50 0 0)
(50 0 0)
(50 0 0)
(50 0 0)
(50 0 0)
(50 0 0)
(50 0 0)
(50 0 0)
(50 0 0)
(50 0 0)
(50 0 0)
(50 0 0)
(50 0 0)
(50 0 0)
(50 0 0)
(50 0 0)
(50 0 0)
(50 0 0)
(50 0 0)
(50 0 0)
(50 0 0)
(50 0 0)
(50 0 0)
(50 0 0)
(50 0 0)
(50 0 0)
(50 0 0)
(50 0 0)
(50 0 0)
(50 0 0)
(50 0 0)
(50 0 0)
(50 0 0)
(50 0 0)
(50 0 0)
(50 0 0)
(50 0 0)
(50 0 0)
(50 0 0)
(50 0 0)
(50 0 0)
(50 0 0)
(50 0 0)
(50 0 0)
(50 0 0)
(50 0 0)
(50 0 0)
(50 0 0)
(50 0 0)
(50 0 0)
(50 0 0)
(50 0 0)
(50 0 0)
(50 0 0)
(50 0 0)
(50 0 0)
(50 0 0)
(50 0 0)
(50 0 0)
(50 0 0)
(50 0 0)
(50 0 0)
(50 0 0)
(50 0 0)
(50 0 0)
(50 0 0)
(50 0 0)
(50 0 0)
(50 0 0)
(50 0 0)
(50 0 0)
(50 0 0)
(50 0 0)
(50 0 0)
(50 0 0)
(50 0 0)
(50 0 0)
(50 0 0)
(50 0 0)
(50 0 0)
(50 0 0)
(50 0 0)
(50 0 0)
(50 0 0)
(50 0 0)
(50 0 0)
(50 0 0)
(50 0 0)
(50 0 0)
(50 0 0)
(50 0 0)
(50 0 0)
(50 0 0)
(50 0 0)
(50 0 0)
(50 0 0)
(50 0 0)
(50 0 0)
(50 0 0)
(50 0 0)
(50 0 0)
(50 0 0)
(50 0 0)
(50 0 0)
(50 0 0)
(50 0 0)
(50 0 0)
(50 0 0)
(50 0 0)
(50 0 0)
(50 0 0)
(50 0 0)
(50 0 0)
(50 0 0)
(50 0 0)
(50 0 0)
(50 0 0)
(50 0 0)
(50 0 0)
(50 0 0)
(50 0 0)
(50 0 0)
(50 0 0)
(50 0 0)
(50 0 0)
(50 0 0)
(50 0 0)
(50 0 0)
(50 0 0)
(50 0 0)
(50 0 0)
(50 0 0)
(50 0 0)
(50 0 0)
(50 0 0)
(50 0 0)
(50 0 0)
(50 0 0)
(50 0 0)
(50 0 0)
(50 0 0)
(50 0 0)
(50 0 0)
(50 0 0)
(50 0 0)
(50 0 0)
(50 0 0)
(50 0 0)
(50 0 0)
(50 0 0)
(50 0 0)
(50 0 0)
(50 0 0)
(50 0 0)
(50 0 0)
(50 0 0)
(50 0 0)
(50 0 0)
(50 0 0)
(50 0 0)
(50 0 0)
(50 0 0)
(50 0 0)
(50 0 0)
(50 0 0)
(50 0 0)
(50 0 0)
(50 0 0)
(50 0 0)
(50 0 0)
(50 0 0)
(50 0 0)
(50 0 0)
(50 0 0)
(50 0 0)
(50 0 0)
(50 0 0)
(50 0 0)
(50 0 0)
(50 0 0)
(50 0 0)
(50 0 0)
(50 0 0)
(50 0 0)
(50 0 0)
(50 0 0)
(50 0 0)
(50 0 0)
(50 0 0)
(50 0 0)
(50 0 0)
(50 0 0)
(50 0 0)
(50 0 0)
(50 0 0)
(50 0 0)
(50 0 0)
(50 0 0)
(50 0 0)
(50 0 0)
(50 0 0)
(50 0 0)
(50 0 0)
(50 0 0)
(50 0 0)
(50 0 0)
(50 0 0)
(50 0 0)
(50 0 0)
(50 0 0)
(50 0 0)
(50 0 0)
(50 0 0)
(50 0 0)
(50 0 0)
(50 0 0)
(50 0 0)
(50 0 0)
(50 0 0)
(50 0 0)
(50 0 0)
(50 0 0)
(50 0 0)
(50 0 0)
(50 0 0)
(50 0 0)
(50 0 0)
(50 0 0)
(50 0 0)
(50 0 0)
(50 0 0)
(50 0 0)
(50 0 0)
(50 0 0)
(50 0 0)
(50 0 0)
(50 0 0)
(50 0 0)
(50 0 0)
(50 0 0)
(50 0 0)
(50 0 0)
(50 0 0)
(50 0 0)
(50 0 0)
(50 0 0)
(50 0 0)
(50 0 0)
(50 0 0)
(50 0 0)
(50 0 0)
(50 0 0)
(50 0 0)
(50 0 0)
(50 0 0)
(50 0 0)
(50 0 0)
(50 0 0)
(50 0 0)
(50 0 0)
(50 0 0)
(50 0 0)
(50 0 0)
(50 0 0)
(50 0 0)
(50 0 0)
(50 0 0)
(50 0 0)
(50 0 0)
(50 0 0)
(50 0 0)
(50 0 0)
(50 0 0)
(50 0 0)
(50 0 0)
(50 0 0)
(50 0 0)
(50 0 0)
(50 0 0)
(50 0 0)
(50 0 0)
(50 0 0)
(50 0 0)
(50 0 0)
(50 0 0)
(50 0 0)
(50 0 0)
(50 0 0)
(50 0 0)
(50 0 0)
(50 0 0)
(50 0 0)
(50 0 0)
(50 0 0)
(50 0 0)
(50 0 0)
(50 0 0)
(50 0 0)
(50 0 0)
(50 0 0)
(50 0 0)
(50 0 0)
(50 0 0)
(50 0 0)
(50 0 0)
(50 0 0)
(50 0 0)
(50 0 0)
(50 0 0)
(50 0 0)
(50 0 0)
(50 0 0)
(50 0 0)
(50 0 0)
(50 0 0)
(50 0 0)
(50 0 0)
(50 0 0)
(50 0 0)
(50 0 0)
(50 0 0)
(50 0 0)
(50 0 0)
(50 0 0)
(50 0 0)
(50 0 0)
(50 0 0)
(50 0 0)
(50 0 0)
(50 0 0)
(50 0 0)
(50 0 0)
(50 0 0)
(50 0 0)
(50 0 0)
(50 0 0)
(50 0 0)
(50 0 0)
(50 0 0)
(50 0 0)
(50 0 0)
(50 0 0)
(50 0 0)
(50 0 0)
(50 0 0)
(50 0 0)
(50 0 0)
(50 0 0)
(50 0 0)
(50 0 0)
(50 0 0)
(50 0 0)
(50 0 0)
(50 0 0)
(50 0 0)
(50 0 0)
(50 0 0)
(50 0 0)
(50 0 0)
(50 0 0)
(50 0 0)
(50 0 0)
(50 0 0)
(50 0 0)
(50 0 0)
(50 0 0)
(50 0 0)
(50 0 0)
(50 0 0)
(50 0 0)
(50 0 0)
(50 0 0)
(50 0 0)
(50 0 0)
(50 0 0)
(50 0 0)
(50 0 0)
(50 0 0)
(50 0 0)
(50 0 0)
(50 0 0)
(50 0 0)
(50 0 0)
(50 0 0)
(50 0 0)
(50 0 0)
(50 0 0)
(50 0 0)
(50 0 0)
(50 0 0)
(50 0 0)
(50 0 0)
(50 0 0)
(50 0 0)
(50 0 0)
(50 0 0)
(50 0 0)
(50 0 0)
(50 0 0)
(50 0 0)
(50 0 0)
(50 0 0)
(50 0 0)
(50 0 0)
(50 0 0)
(50 0 0)
(50 0 0)
(50 0 0)
(50 0 0)
(50 0 0)
(50 0 0)
(50 0 0)
(50 0 0)
(50 0 0)
(50 0 0)
(50 0 0)
(50 0 0)
(50 0 0)
(50 0 0)
(50 0 0)
(50 0 0)
(50 0 0)
(50 0 0)
(50 0 0)
(50 0 0)
(50 0 0)
(50 0 0)
(50 0 0)
(50 0 0)
(50 0 0)
(50 0 0)
(50 0 0)
(50 0 0)
(50 0 0)
(50 0 0)
(50 0 0)
(50 0 0)
(50 0 0)
(50 0 0)
(50 0 0)
(50 0 0)
(50 0 0)
(50 0 0)
(50 0 0)
(50 0 0)
(50 0 0)
(50 0 0)
(50 0 0)
(50 0 0)
(50 0 0)
(50 0 0)
(50 0 0)
(50 0 0)
(50 0 0)
(50 0 0)
(50 0 0)
(50 0 0)
(50 0 0)
(50 0 0)
(50 0 0)
(50 0 0)
(50 0 0)
(50 0 0)
(50 0 0)
(50 0 0)
(50 0 0)
(50 0 0)
(50 0 0)
(50 0 0)
(50 0 0)
(50 0 0)
(50 0 0)
(50 0 0)
(50 0 0)
(50 0 0)
(50 0 0)
(50 0 0)
(50 0 0)
(50 0 0)
(50 0 0)
(50 0 0)
(50 0 0)
(50 0 0)
(50 0 0)
(50 0 0)
(50 0 0)
(50 0 0)
(50 0 0)
(50 0 0)
(50 0 0)
(50 0 0)
(50 0 0)
(50 0 0)
(50 0 0)
(50 0 0)
(50 0 0)
(50 0 0)
(50 0 0)
(50 0 0)
(50 0 0)
(50 0 0)
(50 0 0)
(50 0 0)
(50 0 0)
(50 0 0)
(50 0 0)
(50 0 0)
(50 0 0)
(50 0 0)
(50 0 0)
(50 0 0)
(50 0 0)
(50 0 0)
(50 0 0)
(50 0 0)
(50 0 0)
(50 0 0)
(50 0 0)
(50 0 0)
(50 0 0)
(50 0 0)
(50 0 0)
(50 0 0)
(50 0 0)
(50 0 0)
(50 0 0)
(50 0 0)
(50 0 0)
(50 0 0)
(50 0 0)
(50 0 0)
(50 0 0)
(50 0 0)
(50 0 0)
(50 0 0)
(50 0 0)
(50 0 0)
(50 0 0)
(50 0 0)
(50 0 0)
(50 0 0)
(50 0 0)
(50 0 0)
(50 0 0)
(50 0 0)
(50 0 0)
(50 0 0)
(50 0 0)
(50 0 0)
(50 0 0)
(50 0 0)
(50 0 0)
(50 0 0)
(50 0 0)
(50 0 0)
(50 0 0)
(50 0 0)
(50 0 0)
(50 0 0)
(50 0 0)
(50 0 0)
(50 0 0)
(50 0 0)
(50 0 0)
(50 0 0)
(50 0 0)
(50 0 0)
(50 0 0)
(50 0 0)
(50 0 0)
(50 0 0)
(50 0 0)
(50 0 0)
(50 0 0)
(50 0 0)
(50 0 0)
(50 0 0)
(50 0 0)
(50 0 0)
(50 0 0)
(50 0 0)
(50 0 0)
(50 0 0)
(50 0 0)
(50 0 0)
(50 0 0)
(50 0 0)
(50 0 0)
(50 0 0)
(50 0 0)
(50 0 0)
(50 0 0)
(50 0 0)
(50 0 0)
(50 0 0)
(50 0 0)
(50 0 0)
(50 0 0)
(50 0 0)
(50 0 0)
(50 0 0)
(50 0 0)
(50 0 0)
(50 0 0)
(50 0 0)
(50 0 0)
(50 0 0)
(50 0 0)
(50 0 0)
(50 0 0)
(50 0 0)
(50 0 0)
(50 0 0)
(50 0 0)
(50 0 0)
(50 0 0)
(50 0 0)
(50 0 0)
(50 0 0)
(50 0 0)
(50 0 0)
(50 0 0)
(50 0 0)
(50 0 0)
(50 0 0)
(50 0 0)
(49.9999 0 0)
(49.9999 0 0)
(49.9999 0 0)
(49.9999 0 0)
(49.9998 0 0)
(49.9998 0 0)
(49.9997 0 0)
(49.9996 0 0)
(49.9995 0 0)
(49.9993 0 0)
(49.9991 0 0)
(49.9988 0 0)
(49.9985 0 0)
(49.9981 0 0)
(49.9975 0 0)
(49.9968 0 0)
(49.996 0 0)
(49.9949 0 0)
(49.9936 0 0)
(49.992 0 0)
(49.9899 0 0)
(49.9875 0 0)
(49.9844 0 0)
(49.9807 0 0)
(49.9762 0 0)
(49.9707 0 0)
(49.9642 0 0)
(49.9563 0 0)
(49.9468 0 0)
(49.9355 0 0)
(49.9222 0 0)
(49.9063 0 0)
(49.8877 0 0)
(49.8658 0 0)
(49.8401 0 0)
(49.8103 0 0)
(49.7756 0 0)
(49.7354 0 0)
(49.6891 0 0)
(49.636 0 0)
(49.5751 0 0)
(49.5058 0 0)
(49.427 0 0)
(49.3377 0 0)
(49.2371 0 0)
(49.1239 0 0)
(48.9972 0 0)
(48.8557 0 0)
(48.6984 0 0)
(48.524 0 0)
(48.3314 0 0)
(48.1194 0 0)
(47.8869 0 0)
(47.6327 0 0)
(47.3559 0 0)
(47.0554 0 0)
(46.7302 0 0)
(46.3797 0 0)
(46.0031 0 0)
(45.5998 0 0)
(45.1693 0 0)
(44.7114 0 0)
(44.2259 0 0)
(43.7129 0 0)
(43.1725 0 0)
(42.6051 0 0)
(42.0111 0 0)
(41.3913 0 0)
(40.7465 0 0)
(40.0776 0 0)
(39.3857 0 0)
(38.6721 0 0)
(37.938 0 0)
(37.1848 0 0)
(36.4141 0 0)
(35.6273 0 0)
(34.8259 0 0)
(34.0116 0 0)
(33.1858 0 0)
(32.3502 0 0)
(31.5064 0 0)
(30.6557 0 0)
(29.7998 0 0)
(28.94 0 0)
(28.0777 0 0)
(27.2143 0 0)
(26.3511 0 0)
(25.4893 0 0)
(24.6301 0 0)
(23.7745 0 0)
(22.9238 0 0)
(22.0788 0 0)
(21.2406 0 0)
(20.4102 0 0)
(19.5884 0 0)
(18.776 0 0)
(17.9739 0 0)
(17.1828 0 0)
(16.4036 0 0)
(15.6369 0 0)
(14.8834 0 0)
(14.1438 0 0)
(13.4187 0 0)
(12.7089 0 0)
(12.0148 0 0)
(11.3372 0 0)
(10.6765 0 0)
(10.0335 0 0)
(9.40852 0 0)
(8.80223 0 0)
(8.21511 0 0)
(7.64766 0 0)
(7.10034 0 0)
(6.57356 0 0)
(6.06772 0 0)
(5.58317 0 0)
(5.12019 0 0)
(4.67901 0 0)
(4.25981 0 0)
(3.86269 0 0)
(3.48765 0 0)
(3.13465 0 0)
(2.80352 0 0)
(2.49405 0 0)
(2.20589 0 0)
(1.93863 0 0)
(1.69176 0 0)
(1.4647 0 0)
(1.25676 0 0)
(1.06722 0 0)
(0.895254 0 0)
(0.740016 0 0)
(0.600606 0 0)
(0.476102 0 0)
(0.365571 0 0)
(0.268085 0 0)
(0.182747 0 0)
(0.108729 0 0)
(0.0453831 0 0)
(-0.0064287 0 0)
(-0.0467022 0 0)
(-0.0792846 0 0)
(-0.107072 0 0)
(-0.130453 0 0)
(-0.149769 0 0)
(-0.165738 0 0)
(-0.178911 0 0)
(-0.189477 0 0)
(-0.197876 0 0)
(-0.204476 0 0)
(-0.209586 0 0)
(-0.213476 0 0)
(-0.216379 0 0)
(-0.218497 0 0)
(-0.219998 0 0)
(-0.22102 0 0)
(-0.221673 0 0)
(-0.22205 0 0)
(-0.22222 0 0)
(-0.22224 0 0)
(-0.222154 0 0)
(-0.221995 0 0)
(-0.221788 0 0)
(-0.221551 0 0)
(-0.221296 0 0)
(-0.221034 0 0)
(-0.220768 0 0)
(-0.220504 0 0)
(-0.22024 0 0)
(-0.219923 0 0)
(-0.219676 0 0)
(-0.219512 0 0)
(-0.219328 0 0)
(-0.219157 0 0)
(-0.218996 0 0)
(-0.218836 0 0)
(-0.218708 0 0)
(-0.218529 0 0)
(-0.218414 0 0)
(-0.218388 0 0)
(-0.218294 0 0)
(-0.218201 0 0)
(-0.218106 0 0)
(-0.218012 0 0)
(-0.217921 0 0)
(-0.217832 0 0)
(-0.217747 0 0)
(-0.217665 0 0)
(-0.217588 0 0)
(-0.217514 0 0)
(-0.217445 0 0)
(-0.21738 0 0)
(-0.21732 0 0)
(-0.217265 0 0)
(-0.217215 0 0)
(-0.21717 0 0)
(-0.217129 0 0)
(-0.217092 0 0)
(-0.217059 0 0)
(-0.217027 0 0)
(-0.216997 0 0)
(-0.216966 0 0)
(-0.216936 0 0)
(-0.216902 0 0)
(-0.216876 0 0)
(-0.216828 0 0)
(-0.216819 0 0)
(-0.216751 0 0)
(-0.216691 0 0)
(-0.216705 0 0)
(-0.216673 0 0)
(-0.216657 0 0)
(-0.216638 0 0)
(-0.216619 0 0)
(-0.216601 0 0)
(-0.216576 0 0)
(-0.216566 0 0)
(-0.216516 0 0)
(-0.216503 0 0)
(-0.21652 0 0)
(-0.216486 0 0)
(-0.216465 0 0)
(-0.216437 0 0)
(-0.216409 0 0)
(-0.21638 0 0)
(-0.21635 0 0)
(-0.216321 0 0)
(-0.216292 0 0)
(-0.216263 0 0)
(-0.216235 0 0)
(-0.216207 0 0)
(-0.21618 0 0)
(-0.216154 0 0)
(-0.216127 0 0)
(-0.216101 0 0)
(-0.216076 0 0)
(-0.21605 0 0)
(-0.216025 0 0)
(-0.216 0 0)
(-0.215976 0 0)
(-0.215952 0 0)
(-0.215928 0 0)
(-0.215904 0 0)
(-0.215881 0 0)
(-0.215858 0 0)
(-0.215836 0 0)
(-0.215814 0 0)
(-0.215793 0 0)
(-0.215772 0 0)
(-0.215752 0 0)
(-0.215732 0 0)
(-0.215713 0 0)
(-0.215695 0 0)
(-0.215676 0 0)
(-0.215659 0 0)
(-0.215642 0 0)
(-0.215626 0 0)
(-0.21561 0 0)
(-0.215595 0 0)
(-0.21558 0 0)
(-0.215566 0 0)
(-0.215553 0 0)
(-0.21554 0 0)
(-0.215529 0 0)
(-0.215518 0 0)
(-0.215508 0 0)
(-0.2155 0 0)
(-0.215492 0 0)
(-0.215487 0 0)
(-0.215484 0 0)
(-0.215474 0 0)
(-0.215475 0 0)
(-0.215481 0 0)
(-0.215482 0 0)
(-0.215487 0 0)
(-0.215492 0 0)
(-0.215498 0 0)
(-0.215504 0 0)
(-0.21551 0 0)
(-0.215516 0 0)
(-0.215522 0 0)
(-0.215527 0 0)
(-0.215532 0 0)
(-0.215537 0 0)
(-0.21554 0 0)
(-0.215544 0 0)
(-0.215547 0 0)
(-0.21555 0 0)
(-0.215552 0 0)
(-0.215554 0 0)
(-0.215555 0 0)
(-0.215556 0 0)
(-0.215557 0 0)
(-0.215556 0 0)
(-0.215555 0 0)
(-0.215553 0 0)
(-0.215549 0 0)
(-0.215545 0 0)
(-0.215539 0 0)
(-0.215532 0 0)
(-0.215523 0 0)
(-0.215514 0 0)
(-0.215504 0 0)
(-0.215492 0 0)
(-0.215481 0 0)
(-0.215468 0 0)
(-0.215456 0 0)
(-0.215443 0 0)
(-0.215431 0 0)
(-0.215419 0 0)
(-0.215406 0 0)
(-0.215395 0 0)
(-0.215383 0 0)
(-0.215373 0 0)
(-0.215358 0 0)
(-0.215355 0 0)
(-0.215337 0 0)
(-0.215326 0 0)
(-0.215326 0 0)
(-0.215311 0 0)
(-0.215305 0 0)
(-0.215295 0 0)
(-0.215286 0 0)
(-0.215277 0 0)
(-0.215267 0 0)
(-0.215257 0 0)
(-0.215248 0 0)
(-0.215238 0 0)
(-0.215228 0 0)
(-0.215218 0 0)
(-0.215208 0 0)
(-0.215198 0 0)
(-0.215188 0 0)
(-0.215178 0 0)
(-0.215169 0 0)
(-0.21516 0 0)
(-0.215151 0 0)
(-0.215143 0 0)
(-0.215135 0 0)
(-0.215127 0 0)
(-0.21512 0 0)
(-0.215113 0 0)
(-0.215107 0 0)
(-0.215101 0 0)
(-0.215095 0 0)
(-0.215093 0 0)
(-0.215074 0 0)
(-0.215101 0 0)
(-0.215056 0 0)
(-0.215062 0 0)
(-0.21509 0 0)
(-0.21505 0 0)
(-0.215068 0 0)
(-0.215056 0 0)
(-0.215055 0 0)
(-0.215052 0 0)
(-0.21505 0 0)
(-0.215038 0 0)
(-0.215079 0 0)
(-0.214903 0 0)
(-0.215442 0 0)
(-0.212941 0 0)
(-0.218838 0 0)
(-0.207504 0 0)
(-0.223063 0 0)
(-0.20975 0 0)
(-0.214615 0 0)
)
;

boundaryField
{
    inlet
    {
        type            fixedValue;
        value           uniform (50 0 0);
    }
    backWall
    {
        type            zeroGradient;
    }
    sides
    {
        type            empty;
    }
}


// ************************************************************************* //
