/*--------------------------------*- C++ -*----------------------------------*\
| =========                 |                                                 |
| \\      /  F ield         | OpenFOAM: The Open Source CFD Toolbox           |
|  \\    /   O peration     | Version:  3.0.x                                 |
|   \\  /    A nd           | Web:      www.OpenFOAM.org                      |
|    \\/     M anipulation  |                                                 |
\*---------------------------------------------------------------------------*/
FoamFile
{
    version     2.0;
    format      ascii;
    class       volVectorField;
    location    "0.25005";
    object      U;
}
// * * * * * * * * * * * * * * * * * * * * * * * * * * * * * * * * * * * * * //

dimensions      [0 1 -1 0 0 0 0];

internalField   nonuniform List<vector> 
27600
(
(42.689 0.000288076 0)
(42.6836 0.000241454 0)
(42.6786 0.000238383 0)
(42.6726 0.000240684 0)
(42.6664 0.000242988 0)
(42.6599 0.000245024 0)
(42.6529 0.000246803 0)
(42.6454 0.000248338 0)
(42.6374 0.000249653 0)
(42.6287 0.000250888 0)
(42.6195 0.000251877 0)
(42.6095 0.000252802 0)
(42.5989 0.000253752 0)
(42.5876 0.000254429 0)
(42.5755 0.000255178 0)
(42.5627 0.000255836 0)
(42.5492 0.000256443 0)
(42.535 0.000257003 0)
(42.52 0.000257521 0)
(42.5044 0.000257992 0)
(42.4881 0.000258421 0)
(42.4712 0.000258802 0)
(42.4536 0.000259121 0)
(42.4355 0.00025936 0)
(42.4169 0.000259488 0)
(42.3978 0.000259456 0)
(42.3783 0.000259199 0)
(42.3584 0.000258624 0)
(42.3382 0.000257612 0)
(42.3178 0.00025602 0)
(42.2973 0.00025368 0)
(42.2767 0.000250411 0)
(42.2562 0.000246028 0)
(42.2359 0.000240361 0)
(42.2158 0.000233268 0)
(42.1962 0.000224659 0)
(42.1771 0.000214506 0)
(42.1587 0.000202859 0)
(42.1411 0.000189849 0)
(42.1243 0.000175685 0)
(42.1085 0.000160643 0)
(42.0938 0.000145049 0)
(42.0801 0.00012926 0)
(42.0675 0.000113634 0)
(42.056 9.85093e-05 0)
(42.0456 8.4186e-05 0)
(42.0361 7.09061e-05 0)
(42.0276 5.88464e-05 0)
(42.02 4.81148e-05 0)
(42.0132 3.87525e-05 0)
(42.0071 3.07422e-05 0)
(42.0017 2.40178e-05 0)
(41.9968 1.84773e-05 0)
(41.9925 1.39947e-05 0)
(41.9886 1.0433e-05 0)
(41.9851 7.65194e-06 0)
(41.982 5.51769e-06 0)
(41.9792 3.90758e-06 0)
(41.9766 2.71302e-06 0)
(41.9743 1.84116e-06 0)
(41.9722 1.21535e-06 0)
(41.9703 7.73918e-07 0)
(41.9686 4.68142e-07 0)
(41.9671 2.6015e-07 0)
(41.9657 1.20516e-07 0)
(41.9644 2.55165e-08 0)
(41.9633 -3.2486e-08 0)
(41.9623 -6.93073e-08 0)
(41.9613 -9.18847e-08 0)
(41.9605 -1.0515e-07 0)
(41.9598 -1.12561e-07 0)
(41.9591 -1.16404e-07 0)
(41.9585 -1.18133e-07 0)
(41.958 -1.18666e-07 0)
(41.9575 -1.18551e-07 0)
(41.957 -1.18103e-07 0)
(41.9566 -1.17502e-07 0)
(41.9563 -1.16853e-07 0)
(41.9559 -1.16244e-07 0)
(41.9557 -1.15592e-07 0)
(41.9554 -1.14957e-07 0)
(41.9551 -1.14372e-07 0)
(41.9549 -1.13803e-07 0)
(41.9547 -1.13296e-07 0)
(41.9545 -1.12808e-07 0)
(41.9543 -1.12545e-07 0)
(41.9541 -1.12645e-07 0)
(41.954 -1.12612e-07 0)
(41.9538 -1.12814e-07 0)
(41.9537 -1.13465e-07 0)
(41.9535 -1.14566e-07 0)
(41.9534 -1.15611e-07 0)
(41.9532 -1.15647e-07 0)
(41.9531 -1.14245e-07 0)
(41.9529 -1.13258e-07 0)
(41.9528 -1.11301e-07 0)
(41.9526 -1.10111e-07 0)
(41.9525 -1.09411e-07 0)
(41.9524 -1.09033e-07 0)
(41.9522 -1.08784e-07 0)
(41.9521 -1.08549e-07 0)
(41.952 -1.08295e-07 0)
(41.9518 -1.07979e-07 0)
(41.9517 -1.07646e-07 0)
(41.9516 -1.07408e-07 0)
(41.9515 -1.07251e-07 0)
(41.9514 -1.07119e-07 0)
(41.9513 -1.06936e-07 0)
(41.9512 -1.06715e-07 0)
(41.9511 -1.0644e-07 0)
(41.951 -1.06206e-07 0)
(41.9509 -1.06008e-07 0)
(41.9509 -1.05843e-07 0)
(41.9508 -1.05626e-07 0)
(41.9508 -1.05326e-07 0)
(41.9508 -1.04946e-07 0)
(41.9507 -1.04515e-07 0)
(41.9507 -1.04082e-07 0)
(41.9507 -1.03624e-07 0)
(41.9507 -1.03256e-07 0)
(41.9508 -1.02816e-07 0)
(41.9508 -1.02379e-07 0)
(41.9508 -1.02055e-07 0)
(41.9509 -1.01607e-07 0)
(41.9509 -1.01619e-07 0)
(41.9509 -1.01274e-07 0)
(41.951 -1.0083e-07 0)
(41.9511 -1.00567e-07 0)
(41.9511 -1.0021e-07 0)
(41.9512 -1.00192e-07 0)
(41.9512 -9.9862e-08 0)
(41.9513 -1.00833e-07 0)
(41.9513 -1.0005e-07 0)
(41.9514 -1.00219e-07 0)
(41.9514 -9.94764e-08 0)
(41.9515 -9.95478e-08 0)
(41.9515 -9.96295e-08 0)
(41.9515 -9.84407e-08 0)
(41.9516 -9.98568e-08 0)
(41.9516 -9.92165e-08 0)
(41.9516 -9.88795e-08 0)
(41.9515 -9.85025e-08 0)
(41.9515 -9.81543e-08 0)
(41.9515 -9.78668e-08 0)
(41.9515 -9.75413e-08 0)
(41.9514 -9.71578e-08 0)
(41.9514 -9.66952e-08 0)
(41.9513 -9.59727e-08 0)
(41.9513 -9.52181e-08 0)
(41.9512 -9.42999e-08 0)
(41.9512 -9.31739e-08 0)
(41.9512 -9.19969e-08 0)
(41.9513 -9.02361e-08 0)
(41.9514 -8.86535e-08 0)
(41.9515 -8.70345e-08 0)
(41.9517 -8.50261e-08 0)
(41.9519 -8.28705e-08 0)
(41.9522 -8.04046e-08 0)
(41.9526 -7.77944e-08 0)
(41.9531 -7.49871e-08 0)
(41.9537 -7.1871e-08 0)
(41.9544 -6.87034e-08 0)
(41.9553 -6.51924e-08 0)
(41.9563 -6.15345e-08 0)
(41.9574 -5.78063e-08 0)
(41.9587 -5.37504e-08 0)
(41.9602 -4.9788e-08 0)
(41.9619 -4.56836e-08 0)
(41.9638 -4.14372e-08 0)
(41.9658 -3.74722e-08 0)
(41.9681 -3.33646e-08 0)
(41.9705 -2.93964e-08 0)
(41.9732 -2.58478e-08 0)
(41.976 -2.22112e-08 0)
(41.9791 -1.91745e-08 0)
(41.9823 -1.66877e-08 0)
(41.9857 -1.36999e-08 0)
(41.9893 -1.20353e-08 0)
(41.993 -1.07381e-08 0)
(41.9968 -9.93742e-09 0)
(42.0008 -1.00988e-08 0)
(42.0048 -1.04215e-08 0)
(42.0088 -1.19618e-08 0)
(42.0129 -1.41075e-08 0)
(42.0169 -1.6901e-08 0)
(42.0209 -2.16698e-08 0)
(42.0248 -2.86274e-08 0)
(42.0285 -3.80706e-08 0)
(42.0321 -4.83688e-08 0)
(42.0355 -4.47492e-08 0)
(42.0387 -3.11664e-08 0)
(42.0416 1.11567e-07 0)
(42.0441 9.51446e-07 0)
(42.0461 5.26158e-06 0)
(42.0465 2.67019e-05 0)
(42.0406 0.000132522 0)
(42.0067 0.000649593 0)
(41.8424 0.00309124 0)
(41.3733 0.0154767 0)
(36.7793 0.0558665 0)
(42.7042 0.000462837 0)
(42.714 0.000329978 0)
(42.7242 0.000313332 0)
(42.7335 0.000310498 0)
(42.7424 0.000308281 0)
(42.7511 0.000306452 0)
(42.7593 0.000304955 0)
(42.767 0.000303643 0)
(42.7741 0.000302425 0)
(42.7807 0.000301482 0)
(42.7866 0.000300398 0)
(42.7918 0.000299484 0)
(42.7963 0.00029886 0)
(42.8 0.00029791 0)
(42.8031 0.00029728 0)
(42.8054 0.000296633 0)
(42.807 0.000296028 0)
(42.8078 0.000295458 0)
(42.808 0.000294923 0)
(42.8074 0.000294405 0)
(42.8062 0.000293904 0)
(42.8043 0.000293411 0)
(42.8018 0.000292899 0)
(42.7988 0.000292344 0)
(42.7951 0.000291702 0)
(42.791 0.000290914 0)
(42.7865 0.000289896 0)
(42.7815 0.000288535 0)
(42.7762 0.00028669 0)
(42.7706 0.000284191 0)
(42.7647 0.000280844 0)
(42.7586 0.000276443 0)
(42.7523 0.000270782 0)
(42.7459 0.000263678 0)
(42.7394 0.000254987 0)
(42.7329 0.000244625 0)
(42.7264 0.000232588 0)
(42.72 0.000218959 0)
(42.7136 0.000203914 0)
(42.7074 0.000187714 0)
(42.7013 0.000170688 0)
(42.6953 0.000153216 0)
(42.6895 0.000135697 0)
(42.6839 0.000118525 0)
(42.6785 0.000102065 0)
(42.6733 8.66233e-05 0)
(42.6683 7.24412e-05 0)
(42.6636 5.96827e-05 0)
(42.659 4.84347e-05 0)
(42.6547 3.87129e-05 0)
(42.6506 3.04714e-05 0)
(42.6467 2.36163e-05 0)
(42.6431 1.80196e-05 0)
(42.6397 1.35327e-05 0)
(42.6365 1.00004e-05 0)
(42.6335 7.26738e-06 0)
(42.6307 5.18937e-06 0)
(42.6282 3.63651e-06 0)
(42.6258 2.49592e-06 0)
(42.6236 1.67238e-06 0)
(42.6216 1.08779e-06 0)
(42.6198 6.79557e-07 0)
(42.6181 3.99044e-07 0)
(42.6165 2.09251e-07 0)
(42.6151 8.26113e-08 0)
(42.6139 -1.35164e-09 0)
(42.6127 -5.05057e-08 0)
(42.6117 -8.09938e-08 0)
(42.6107 -9.91531e-08 0)
(42.6099 -1.09344e-07 0)
(42.6091 -1.14611e-07 0)
(42.6084 -1.16902e-07 0)
(42.6078 -1.17486e-07 0)
(42.6073 -1.17133e-07 0)
(42.6068 -1.16386e-07 0)
(42.6063 -1.15468e-07 0)
(42.6059 -1.14536e-07 0)
(42.6055 -1.13702e-07 0)
(42.6052 -1.1298e-07 0)
(42.6049 -1.12366e-07 0)
(42.6046 -1.11915e-07 0)
(42.6043 -1.11642e-07 0)
(42.6041 -1.11489e-07 0)
(42.6038 -1.11426e-07 0)
(42.6036 -1.11137e-07 0)
(42.6034 -1.10822e-07 0)
(42.6032 -1.10523e-07 0)
(42.603 -1.0944e-07 0)
(42.6028 -1.08609e-07 0)
(42.6027 -1.0856e-07 0)
(42.6025 -1.09457e-07 0)
(42.6023 -1.10832e-07 0)
(42.6022 -1.11362e-07 0)
(42.602 -1.10185e-07 0)
(42.6019 -1.10588e-07 0)
(42.6017 -1.09452e-07 0)
(42.6015 -1.09809e-07 0)
(42.6014 -1.10783e-07 0)
(42.6012 -1.1194e-07 0)
(42.6011 -1.12888e-07 0)
(42.6009 -1.13468e-07 0)
(42.6008 -1.13707e-07 0)
(42.6006 -1.13711e-07 0)
(42.6005 -1.1357e-07 0)
(42.6003 -1.13572e-07 0)
(42.6002 -1.13689e-07 0)
(42.6001 -1.13855e-07 0)
(42.5999 -1.13942e-07 0)
(42.5998 -1.13979e-07 0)
(42.5997 -1.14003e-07 0)
(42.5996 -1.13972e-07 0)
(42.5995 -1.13967e-07 0)
(42.5995 -1.13999e-07 0)
(42.5994 -1.13913e-07 0)
(42.5993 -1.1368e-07 0)
(42.5993 -1.13305e-07 0)
(42.5993 -1.1291e-07 0)
(42.5992 -1.12488e-07 0)
(42.5992 -1.12053e-07 0)
(42.5992 -1.11777e-07 0)
(42.5992 -1.11422e-07 0)
(42.5992 -1.1106e-07 0)
(42.5992 -1.10901e-07 0)
(42.5992 -1.10502e-07 0)
(42.5993 -1.11041e-07 0)
(42.5993 -1.10882e-07 0)
(42.5993 -1.10571e-07 0)
(42.5994 -1.10642e-07 0)
(42.5994 -1.10585e-07 0)
(42.5994 -1.11152e-07 0)
(42.5995 -1.10877e-07 0)
(42.5995 -1.12916e-07 0)
(42.5996 -1.11686e-07 0)
(42.5996 -1.12409e-07 0)
(42.5996 -1.11202e-07 0)
(42.5996 -1.11737e-07 0)
(42.5997 -1.12303e-07 0)
(42.5997 -1.10505e-07 0)
(42.5997 -1.13729e-07 0)
(42.5997 -1.1312e-07 0)
(42.5996 -1.13189e-07 0)
(42.5996 -1.13208e-07 0)
(42.5996 -1.13309e-07 0)
(42.5995 -1.135e-07 0)
(42.5994 -1.13655e-07 0)
(42.5994 -1.13758e-07 0)
(42.5993 -1.13792e-07 0)
(42.5993 -1.1351e-07 0)
(42.5992 -1.13151e-07 0)
(42.5992 -1.12532e-07 0)
(42.5991 -1.11627e-07 0)
(42.5991 -1.10664e-07 0)
(42.5991 -1.08698e-07 0)
(42.5992 -1.07082e-07 0)
(42.5993 -1.05481e-07 0)
(42.5995 -1.03193e-07 0)
(42.5997 -1.00658e-07 0)
(42.6 -9.75446e-08 0)
(42.6004 -9.41504e-08 0)
(42.6008 -9.03237e-08 0)
(42.6014 -8.58722e-08 0)
(42.6021 -8.12729e-08 0)
(42.603 -7.60361e-08 0)
(42.6039 -7.04113e-08 0)
(42.6051 -6.45365e-08 0)
(42.6064 -5.79988e-08 0)
(42.6078 -5.14783e-08 0)
(42.6095 -4.45779e-08 0)
(42.6113 -3.72271e-08 0)
(42.6134 -3.01231e-08 0)
(42.6156 -2.26973e-08 0)
(42.618 -1.5192e-08 0)
(42.6207 -8.25562e-09 0)
(42.6235 -1.09158e-09 0)
(42.6266 5.3307e-09 0)
(42.6298 1.1232e-08 0)
(42.6332 1.8545e-08 0)
(42.6367 2.38721e-08 0)
(42.6404 2.83457e-08 0)
(42.6442 3.22258e-08 0)
(42.6481 3.43695e-08 0)
(42.6521 3.65061e-08 0)
(42.6561 3.66359e-08 0)
(42.6602 3.58577e-08 0)
(42.6642 3.43856e-08 0)
(42.6682 3.1116e-08 0)
(42.6721 2.79601e-08 0)
(42.6758 2.38387e-08 0)
(42.6794 1.89524e-08 0)
(42.6828 3.81275e-08 0)
(42.6859 1.37693e-07 0)
(42.6888 6.65706e-07 0)
(42.6913 3.37278e-06 0)
(42.6932 1.69762e-05 0)
(42.6936 8.45827e-05 0)
(42.6877 0.000418168 0)
(42.6533 0.00204743 0)
(42.4874 0.00971961 0)
(42.005 0.0476104 0)
(37.5065 0.162441 0)
(42.7042 0.000369045 0)
(42.714 0.000238908 0)
(42.7243 0.000231598 0)
(42.7335 0.000235279 0)
(42.7425 0.000236742 0)
(42.7512 0.000237718 0)
(42.7595 0.000238694 0)
(42.7673 0.000239629 0)
(42.7744 0.000240485 0)
(42.781 0.000241481 0)
(42.787 0.000242218 0)
(42.7923 0.000243025 0)
(42.7969 0.000244012 0)
(42.8008 0.000244609 0)
(42.8039 0.00024543 0)
(42.8063 0.000246164 0)
(42.808 0.000246872 0)
(42.809 0.000247554 0)
(42.8093 0.00024821 0)
(42.8088 0.000248833 0)
(42.8078 0.000249418 0)
(42.806 0.000249965 0)
(42.8037 0.000250451 0)
(42.8008 0.000250855 0)
(42.7973 0.000251138 0)
(42.7934 0.000251244 0)
(42.789 0.000251097 0)
(42.7842 0.000250591 0)
(42.7791 0.000249597 0)
(42.7736 0.000247954 0)
(42.7679 0.000245485 0)
(42.7619 0.000241999 0)
(42.7558 0.000237309 0)
(42.7496 0.000231251 0)
(42.7432 0.000223698 0)
(42.7368 0.000214584 0)
(42.7303 0.000203918 0)
(42.7239 0.00019179 0)
(42.7175 0.000178374 0)
(42.7112 0.000163922 0)
(42.705 0.000148747 0)
(42.699 0.000133202 0)
(42.6931 0.000117655 0)
(42.6873 0.000102464 0)
(42.6818 8.79525e-05 0)
(42.6764 7.4392e-05 0)
(42.6713 6.19887e-05 0)
(42.6664 5.08785e-05 0)
(42.6617 4.11273e-05 0)
(42.6573 3.27376e-05 0)
(42.6531 2.56585e-05 0)
(42.6491 1.9798e-05 0)
(42.6454 1.50361e-05 0)
(42.6419 1.12368e-05 0)
(42.6387 8.26055e-06 0)
(42.6357 5.96903e-06 0)
(42.6329 4.23543e-06 0)
(42.6303 2.94659e-06 0)
(42.6279 2.00483e-06 0)
(42.6257 1.32829e-06 0)
(42.6237 8.50366e-07 0)
(42.6218 5.18391e-07 0)
(42.6201 2.91759e-07 0)
(42.6186 1.39918e-07 0)
(42.6172 4.05017e-08 0)
(42.6159 -2.2923e-08 0)
(42.6148 -6.31006e-08 0)
(42.6137 -8.75043e-08 0)
(42.6128 -1.01775e-07 0)
(42.6119 -1.09666e-07 0)
(42.6112 -1.13614e-07 0)
(42.6105 -1.15203e-07 0)
(42.6099 -1.15459e-07 0)
(42.6093 -1.14996e-07 0)
(42.6088 -1.14227e-07 0)
(42.6083 -1.13343e-07 0)
(42.6079 -1.12484e-07 0)
(42.6075 -1.11708e-07 0)
(42.6072 -1.11012e-07 0)
(42.6069 -1.10417e-07 0)
(42.6066 -1.09925e-07 0)
(42.6063 -1.09543e-07 0)
(42.6061 -1.09242e-07 0)
(42.6059 -1.08966e-07 0)
(42.6056 -1.08622e-07 0)
(42.6054 -1.08478e-07 0)
(42.6053 -1.08628e-07 0)
(42.6051 -1.08482e-07 0)
(42.6049 -1.08917e-07 0)
(42.6047 -1.09927e-07 0)
(42.6045 -1.11347e-07 0)
(42.6044 -1.12809e-07 0)
(42.6042 -1.13319e-07 0)
(42.604 -1.1204e-07 0)
(42.6039 -1.12049e-07 0)
(42.6037 -1.1023e-07 0)
(42.6036 -1.09439e-07 0)
(42.6034 -1.09057e-07 0)
(42.6033 -1.08919e-07 0)
(42.6031 -1.08853e-07 0)
(42.6029 -1.0878e-07 0)
(42.6028 -1.08679e-07 0)
(42.6026 -1.08516e-07 0)
(42.6025 -1.08295e-07 0)
(42.6024 -1.08189e-07 0)
(42.6022 -1.08141e-07 0)
(42.6021 -1.08116e-07 0)
(42.602 -1.08008e-07 0)
(42.6019 -1.07855e-07 0)
(42.6018 -1.07688e-07 0)
(42.6017 -1.07498e-07 0)
(42.6016 -1.07379e-07 0)
(42.6015 -1.07298e-07 0)
(42.6014 -1.0715e-07 0)
(42.6014 -1.06912e-07 0)
(42.6013 -1.06608e-07 0)
(42.6013 -1.06278e-07 0)
(42.6013 -1.05916e-07 0)
(42.6012 -1.05532e-07 0)
(42.6012 -1.05308e-07 0)
(42.6012 -1.05002e-07 0)
(42.6012 -1.0464e-07 0)
(42.6013 -1.04465e-07 0)
(42.6013 -1.04058e-07 0)
(42.6013 -1.04489e-07 0)
(42.6013 -1.04267e-07 0)
(42.6014 -1.03896e-07 0)
(42.6014 -1.03852e-07 0)
(42.6014 -1.03702e-07 0)
(42.6015 -1.04149e-07 0)
(42.6015 -1.03711e-07 0)
(42.6016 -1.0541e-07 0)
(42.6016 -1.04308e-07 0)
(42.6016 -1.0522e-07 0)
(42.6017 -1.04196e-07 0)
(42.6017 -1.04856e-07 0)
(42.6017 -1.05398e-07 0)
(42.6017 -1.03687e-07 0)
(42.6017 -1.06592e-07 0)
(42.6017 -1.06016e-07 0)
(42.6017 -1.06139e-07 0)
(42.6016 -1.0627e-07 0)
(42.6016 -1.06508e-07 0)
(42.6015 -1.06841e-07 0)
(42.6015 -1.07141e-07 0)
(42.6014 -1.07414e-07 0)
(42.6014 -1.0767e-07 0)
(42.6013 -1.07757e-07 0)
(42.6012 -1.07774e-07 0)
(42.6012 -1.07623e-07 0)
(42.6012 -1.07291e-07 0)
(42.6011 -1.06928e-07 0)
(42.6012 -1.05715e-07 0)
(42.6012 -1.04879e-07 0)
(42.6013 -1.04116e-07 0)
(42.6015 -1.02767e-07 0)
(42.6017 -1.01217e-07 0)
(42.602 -9.92386e-08 0)
(42.6024 -9.70341e-08 0)
(42.6029 -9.45128e-08 0)
(42.6035 -9.15173e-08 0)
(42.6042 -8.83724e-08 0)
(42.605 -8.46922e-08 0)
(42.606 -8.06886e-08 0)
(42.6071 -7.64525e-08 0)
(42.6084 -7.1637e-08 0)
(42.6099 -6.67774e-08 0)
(42.6115 -6.15804e-08 0)
(42.6134 -5.59766e-08 0)
(42.6154 -5.05092e-08 0)
(42.6176 -4.47921e-08 0)
(42.6201 -3.89149e-08 0)
(42.6227 -3.34631e-08 0)
(42.6256 -2.78603e-08 0)
(42.6286 -2.28051e-08 0)
(42.6318 -1.83685e-08 0)
(42.6352 -1.49597e-08 0)
(42.6387 -1.19385e-08 0)
(42.6424 -9.00379e-09 0)
(42.6463 -6.39783e-09 0)
(42.6502 -5.13337e-09 0)
(42.6542 -3.93126e-09 0)
(42.6582 -4.27492e-09 0)
(42.6622 -5.47656e-09 0)
(42.6662 -7.36552e-09 0)
(42.6702 -1.09469e-08 0)
(42.6741 -1.44075e-08 0)
(42.6778 -1.63889e-08 0)
(42.6814 -1.50069e-08 0)
(42.6848 1.67255e-08 0)
(42.6879 2.09613e-07 0)
(42.6908 1.19186e-06 0)
(42.6933 6.0588e-06 0)
(42.6953 3.02995e-05 0)
(42.6957 0.000150714 0)
(42.69 0.000744943 0)
(42.6566 0.00364997 0)
(42.4954 0.0173317 0)
(42.0339 0.0845799 0)
(37.6644 0.28502 0)
(42.7042 0.000375153 0)
(42.714 0.0002768 0)
(42.7243 0.000271345 0)
(42.7335 0.000276071 0)
(42.7425 0.000277119 0)
(42.7512 0.000277295 0)
(42.7595 0.00027735 0)
(42.7673 0.000277258 0)
(42.7744 0.000277005 0)
(42.781 0.00027686 0)
(42.787 0.000276439 0)
(42.7923 0.000276094 0)
(42.7969 0.000275932 0)
(42.8007 0.00027543 0)
(42.8039 0.000275162 0)
(42.8063 0.000274847 0)
(42.808 0.000274539 0)
(42.809 0.00027424 0)
(42.8093 0.00027395 0)
(42.8088 0.000273662 0)
(42.8077 0.00027337 0)
(42.806 0.000273074 0)
(42.8037 0.000272748 0)
(42.8008 0.000272371 0)
(42.7973 0.000271902 0)
(42.7934 0.000271286 0)
(42.789 0.000270444 0)
(42.7842 0.00026927 0)
(42.7791 0.000267631 0)
(42.7736 0.000265367 0)
(42.7679 0.000262295 0)
(42.762 0.000258221 0)
(42.7558 0.000252953 0)
(42.7496 0.00024632 0)
(42.7432 0.000238187 0)
(42.7368 0.00022848 0)
(42.7303 0.000217198 0)
(42.7239 0.000204423 0)
(42.7175 0.000190324 0)
(42.7112 0.000175147 0)
(42.705 0.000159205 0)
(42.699 0.000142854 0)
(42.6931 0.000126471 0)
(42.6873 0.000110425 0)
(42.6818 9.50529e-05 0)
(42.6764 8.06422e-05 0)
(42.6713 6.74155e-05 0)
(42.6664 5.55237e-05 0)
(42.6617 4.50458e-05 0)
(42.6573 3.59943e-05 0)
(42.6531 2.83249e-05 0)
(42.6491 2.19486e-05 0)
(42.6454 1.67449e-05 0)
(42.6419 1.25745e-05 0)
(42.6387 9.29248e-06 0)
(42.6357 6.75367e-06 0)
(42.6329 4.82362e-06 0)
(42.6303 3.38129e-06 0)
(42.6279 2.32133e-06 0)
(42.6257 1.55508e-06 0)
(42.6237 1.01047e-06 0)
(42.6218 6.30271e-07 0)
(42.6201 3.69824e-07 0)
(42.6186 1.94758e-07 0)
(42.6172 7.90818e-08 0)
(42.6159 3.73675e-09 0)
(42.6148 -4.40489e-08 0)
(42.6137 -7.34904e-08 0)
(42.6128 -9.09583e-08 0)
(42.6119 -1.00809e-07 0)
(42.6112 -1.05905e-07 0)
(42.6105 -1.08153e-07 0)
(42.6099 -1.08729e-07 0)
(42.6093 -1.08414e-07 0)
(42.6088 -1.07664e-07 0)
(42.6083 -1.06736e-07 0)
(42.6079 -1.05792e-07 0)
(42.6075 -1.04892e-07 0)
(42.6072 -1.04061e-07 0)
(42.6069 -1.0333e-07 0)
(42.6066 -1.02676e-07 0)
(42.6063 -1.0216e-07 0)
(42.6061 -1.01745e-07 0)
(42.6059 -1.01385e-07 0)
(42.6057 -1.00893e-07 0)
(42.6054 -1.00468e-07 0)
(42.6053 -1.00147e-07 0)
(42.6051 -9.93718e-08 0)
(42.6049 -9.88326e-08 0)
(42.6047 -9.86966e-08 0)
(42.6045 -9.91731e-08 0)
(42.6044 -9.99984e-08 0)
(42.6042 -1.00068e-07 0)
(42.6041 -9.85185e-08 0)
(42.6039 -9.83285e-08 0)
(42.6037 -9.67232e-08 0)
(42.6036 -9.64461e-08 0)
(42.6034 -9.68101e-08 0)
(42.6033 -9.74414e-08 0)
(42.6031 -9.79719e-08 0)
(42.6029 -9.82575e-08 0)
(42.6028 -9.82974e-08 0)
(42.6026 -9.81504e-08 0)
(42.6025 -9.79066e-08 0)
(42.6024 -9.78026e-08 0)
(42.6022 -9.77911e-08 0)
(42.6021 -9.7834e-08 0)
(42.602 -9.78041e-08 0)
(42.6019 -9.77455e-08 0)
(42.6018 -9.76603e-08 0)
(42.6017 -9.75272e-08 0)
(42.6016 -9.7429e-08 0)
(42.6015 -9.73477e-08 0)
(42.6014 -9.71576e-08 0)
(42.6014 -9.68429e-08 0)
(42.6013 -9.6413e-08 0)
(42.6013 -9.59322e-08 0)
(42.6013 -9.54319e-08 0)
(42.6012 -9.4912e-08 0)
(42.6012 -9.45253e-08 0)
(42.6012 -9.40713e-08 0)
(42.6012 -9.35785e-08 0)
(42.6013 -9.32694e-08 0)
(42.6013 -9.27603e-08 0)
(42.6013 -9.30745e-08 0)
(42.6013 -9.27502e-08 0)
(42.6014 -9.22733e-08 0)
(42.6014 -9.21495e-08 0)
(42.6014 -9.18986e-08 0)
(42.6015 -9.2195e-08 0)
(42.6015 -9.17065e-08 0)
(42.6016 -9.3216e-08 0)
(42.6016 -9.19588e-08 0)
(42.6016 -9.24483e-08 0)
(42.6017 -9.10915e-08 0)
(42.6017 -9.13557e-08 0)
(42.6017 -9.15595e-08 0)
(42.6017 -8.97383e-08 0)
(42.6017 -9.22907e-08 0)
(42.6017 -9.15323e-08 0)
(42.6017 -9.13581e-08 0)
(42.6016 -9.1142e-08 0)
(42.6016 -9.10143e-08 0)
(42.6015 -9.09614e-08 0)
(42.6015 -9.08797e-08 0)
(42.6014 -9.07874e-08 0)
(42.6014 -9.06347e-08 0)
(42.6013 -9.02968e-08 0)
(42.6012 -8.98386e-08 0)
(42.6012 -8.92084e-08 0)
(42.6012 -8.83734e-08 0)
(42.6011 -8.74566e-08 0)
(42.6012 -8.57184e-08 0)
(42.6012 -8.43389e-08 0)
(42.6013 -8.30088e-08 0)
(42.6015 -8.11171e-08 0)
(42.6017 -7.90272e-08 0)
(42.602 -7.65115e-08 0)
(42.6024 -7.37611e-08 0)
(42.6029 -7.0695e-08 0)
(42.6035 -6.71613e-08 0)
(42.6042 -6.35049e-08 0)
(42.605 -5.93222e-08 0)
(42.606 -5.48473e-08 0)
(42.6071 -5.0191e-08 0)
(42.6084 -4.50063e-08 0)
(42.6099 -3.98278e-08 0)
(42.6115 -3.43594e-08 0)
(42.6134 -2.85579e-08 0)
(42.6154 -2.29148e-08 0)
(42.6176 -1.70304e-08 0)
(42.6201 -1.10901e-08 0)
(42.6227 -5.58194e-09 0)
(42.6256 2.63114e-10 0)
(42.6286 5.54969e-09 0)
(42.6318 1.07938e-08 0)
(42.6352 1.58912e-08 0)
(42.6388 1.99233e-08 0)
(42.6424 2.30781e-08 0)
(42.6463 2.6035e-08 0)
(42.6502 2.72522e-08 0)
(42.6542 2.84939e-08 0)
(42.6582 2.81103e-08 0)
(42.6622 2.66308e-08 0)
(42.6662 2.44782e-08 0)
(42.6702 2.02618e-08 0)
(42.6741 1.40746e-08 0)
(42.6778 9.51069e-09 0)
(42.6814 1.02525e-08 0)
(42.6848 6.18945e-08 0)
(42.6879 3.33225e-07 0)
(42.6908 1.78241e-06 0)
(42.6933 9.03632e-06 0)
(42.6953 4.51605e-05 0)
(42.6957 0.000224589 0)
(42.69 0.00111025 0)
(42.6569 0.00544464 0)
(42.4968 0.0258457 0)
(42.0399 0.126061 0)
(37.7789 0.420898 0)
(42.7042 0.000351848 0)
(42.714 0.000251969 0)
(42.7243 0.000234504 0)
(42.7335 0.000235164 0)
(42.7425 0.000233885 0)
(42.7512 0.00023278 0)
(42.7595 0.000232301 0)
(42.7672 0.000232114 0)
(42.7744 0.000232034 0)
(42.781 0.000232245 0)
(42.787 0.000232297 0)
(42.7923 0.000232501 0)
(42.7969 0.000232916 0)
(42.8007 0.000233047 0)
(42.8039 0.000233403 0)
(42.8063 0.00023372 0)
(42.808 0.000234041 0)
(42.809 0.000234361 0)
(42.8092 0.000234679 0)
(42.8088 0.000234984 0)
(42.8077 0.000235271 0)
(42.806 0.000235538 0)
(42.8037 0.000235762 0)
(42.8008 0.000235922 0)
(42.7973 0.000235983 0)
(42.7934 0.000235892 0)
(42.789 0.000235577 0)
(42.7842 0.000234944 0)
(42.7791 0.000233869 0)
(42.7736 0.000232208 0)
(42.7679 0.000229796 0)
(42.7619 0.000226455 0)
(42.7558 0.000222014 0)
(42.7495 0.000216318 0)
(42.7432 0.000209249 0)
(42.7368 0.000200743 0)
(42.7303 0.000190804 0)
(42.7239 0.000179513 0)
(42.7175 0.000167026 0)
(42.7112 0.000153574 0)
(42.705 0.000139443 0)
(42.699 0.000124958 0)
(42.6931 0.000110459 0)
(42.6873 9.62787e-05 0)
(42.6818 8.27186e-05 0)
(42.6764 7.00328e-05 0)
(42.6713 5.84156e-05 0)
(42.6664 4.79965e-05 0)
(42.6617 3.88402e-05 0)
(42.6573 3.0952e-05 0)
(42.6531 2.42871e-05 0)
(42.6491 1.87621e-05 0)
(42.6454 1.42667e-05 0)
(42.6419 1.0675e-05 0)
(42.6387 7.8573e-06 0)
(42.6357 5.68483e-06 0)
(42.6329 4.03888e-06 0)
(42.6303 2.81338e-06 0)
(42.6279 1.91675e-06 0)
(42.6257 1.27222e-06 0)
(42.6237 8.16955e-07 0)
(42.6218 5.00643e-07 0)
(42.6201 2.84237e-07 0)
(42.6186 1.38455e-07 0)
(42.6172 4.20471e-08 0)
(42.6159 -1.99294e-08 0)
(42.6148 -5.91455e-08 0)
(42.6137 -8.30089e-08 0)
(42.6128 -9.70059e-08 0)
(42.6119 -1.04758e-07 0)
(42.6112 -1.08676e-07 0)
(42.6105 -1.10287e-07 0)
(42.6099 -1.10584e-07 0)
(42.6093 -1.10193e-07 0)
(42.6088 -1.09494e-07 0)
(42.6083 -1.08699e-07 0)
(42.6079 -1.07901e-07 0)
(42.6075 -1.07188e-07 0)
(42.6072 -1.06579e-07 0)
(42.6069 -1.06066e-07 0)
(42.6066 -1.05653e-07 0)
(42.6063 -1.05356e-07 0)
(42.6061 -1.05164e-07 0)
(42.6059 -1.0501e-07 0)
(42.6057 -1.04741e-07 0)
(42.6054 -1.04602e-07 0)
(42.6053 -1.04609e-07 0)
(42.6051 -1.04226e-07 0)
(42.6049 -1.04048e-07 0)
(42.6047 -1.04384e-07 0)
(42.6045 -1.05394e-07 0)
(42.6044 -1.06701e-07 0)
(42.6042 -1.07256e-07 0)
(42.6041 -1.06313e-07 0)
(42.6039 -1.06647e-07 0)
(42.6037 -1.05533e-07 0)
(42.6036 -1.05477e-07 0)
(42.6034 -1.05821e-07 0)
(42.6033 -1.06287e-07 0)
(42.6031 -1.06666e-07 0)
(42.6029 -1.06889e-07 0)
(42.6028 -1.06977e-07 0)
(42.6026 -1.06933e-07 0)
(42.6025 -1.06806e-07 0)
(42.6024 -1.06801e-07 0)
(42.6022 -1.06864e-07 0)
(42.6021 -1.06943e-07 0)
(42.602 -1.06938e-07 0)
(42.6019 -1.06889e-07 0)
(42.6018 -1.06838e-07 0)
(42.6017 -1.06741e-07 0)
(42.6016 -1.06689e-07 0)
(42.6015 -1.06688e-07 0)
(42.6014 -1.06613e-07 0)
(42.6014 -1.06449e-07 0)
(42.6013 -1.06197e-07 0)
(42.6013 -1.05913e-07 0)
(42.6013 -1.05612e-07 0)
(42.6012 -1.05302e-07 0)
(42.6012 -1.05113e-07 0)
(42.6012 -1.04877e-07 0)
(42.6012 -1.04566e-07 0)
(42.6013 -1.04452e-07 0)
(42.6013 -1.0414e-07 0)
(42.6013 -1.04601e-07 0)
(42.6013 -1.04456e-07 0)
(42.6014 -1.0414e-07 0)
(42.6014 -1.04164e-07 0)
(42.6014 -1.04078e-07 0)
(42.6015 -1.04514e-07 0)
(42.6015 -1.04212e-07 0)
(42.6016 -1.05784e-07 0)
(42.6016 -1.04825e-07 0)
(42.6016 -1.05525e-07 0)
(42.6017 -1.04558e-07 0)
(42.6017 -1.0508e-07 0)
(42.6017 -1.05507e-07 0)
(42.6017 -1.04013e-07 0)
(42.6017 -1.06579e-07 0)
(42.6017 -1.0606e-07 0)
(42.6017 -1.0608e-07 0)
(42.6016 -1.06115e-07 0)
(42.6016 -1.0623e-07 0)
(42.6015 -1.06411e-07 0)
(42.6015 -1.06562e-07 0)
(42.6014 -1.06671e-07 0)
(42.6014 -1.06737e-07 0)
(42.6013 -1.06613e-07 0)
(42.6012 -1.06389e-07 0)
(42.6012 -1.06003e-07 0)
(42.6012 -1.05422e-07 0)
(42.6011 -1.04743e-07 0)
(42.6012 -1.03295e-07 0)
(42.6012 -1.02186e-07 0)
(42.6013 -1.01083e-07 0)
(42.6015 -9.94335e-08 0)
(42.6017 -9.75874e-08 0)
(42.602 -9.53291e-08 0)
(42.6024 -9.28423e-08 0)
(42.6029 -9.00478e-08 0)
(42.6035 -8.68098e-08 0)
(42.6042 -8.34231e-08 0)
(42.605 -7.95673e-08 0)
(42.606 -7.54154e-08 0)
(42.6071 -7.10742e-08 0)
(42.6084 -6.6223e-08 0)
(42.6099 -6.13859e-08 0)
(42.6115 -5.62582e-08 0)
(42.6134 -5.0813e-08 0)
(42.6154 -4.54757e-08 0)
(42.6176 -3.99933e-08 0)
(42.6201 -3.44167e-08 0)
(42.6227 -2.92516e-08 0)
(42.6256 -2.38477e-08 0)
(42.6286 -1.91024e-08 0)
(42.6318 -1.47299e-08 0)
(42.6352 -1.02602e-08 0)
(42.6388 -6.46614e-09 0)
(42.6424 -3.36766e-09 0)
(42.6463 -2.06663e-10 0)
(42.6502 1.21157e-09 0)
(42.6542 2.83045e-09 0)
(42.6582 2.95994e-09 0)
(42.6622 2.10552e-09 0)
(42.6662 8.94863e-10 0)
(42.6702 -1.37471e-09 0)
(42.6741 -3.70553e-09 0)
(42.6778 -2.11866e-09 0)
(42.6814 6.14417e-09 0)
(42.6848 8.66572e-08 0)
(42.6879 4.73012e-07 0)
(42.6908 2.46987e-06 0)
(42.6933 1.24481e-05 0)
(42.6953 6.21286e-05 0)
(42.6957 0.000308903 0)
(42.6901 0.00152728 0)
(42.6573 0.00749476 0)
(42.499 0.0355525 0)
(42.0472 0.172978 0)
(37.8994 0.571634 0)
(42.7042 0.000330408 0)
(42.714 0.000244981 0)
(42.7243 0.000230728 0)
(42.7335 0.000236499 0)
(42.7425 0.000238457 0)
(42.7512 0.000239239 0)
(42.7595 0.000239955 0)
(42.7672 0.000240509 0)
(42.7744 0.000240857 0)
(42.781 0.000241291 0)
(42.787 0.000241424 0)
(42.7922 0.000241609 0)
(42.7968 0.000241915 0)
(42.8007 0.000241916 0)
(42.8039 0.000242085 0)
(42.8063 0.000242196 0)
(42.808 0.000242294 0)
(42.809 0.000242381 0)
(42.8092 0.00024246 0)
(42.8088 0.000242525 0)
(42.8077 0.000242573 0)
(42.806 0.000242602 0)
(42.8037 0.000242592 0)
(42.8008 0.000242524 0)
(42.7973 0.000242362 0)
(42.7934 0.000242056 0)
(42.789 0.000241535 0)
(42.7842 0.000240704 0)
(42.7791 0.000239444 0)
(42.7736 0.000237609 0)
(42.7679 0.000235034 0)
(42.7619 0.000231544 0)
(42.7558 0.000226964 0)
(42.7495 0.000221139 0)
(42.7432 0.000213948 0)
(42.7368 0.000205322 0)
(42.7303 0.000195261 0)
(42.7239 0.000183839 0)
(42.7175 0.000171208 0)
(42.7112 0.000157593 0)
(42.705 0.000143277 0)
(42.699 0.000128582 0)
(42.6931 0.000113849 0)
(42.6873 9.9413e-05 0)
(42.6818 8.55793e-05 0)
(42.6764 7.2608e-05 0)
(42.6713 6.07008e-05 0)
(42.6664 4.99942e-05 0)
(42.6617 4.05602e-05 0)
(42.6573 3.24102e-05 0)
(42.6531 2.55045e-05 0)
(42.6491 1.97631e-05 0)
(42.6454 1.50775e-05 0)
(42.6419 1.13224e-05 0)
(42.6387 8.36723e-06 0)
(42.6357 6.0814e-06 0)
(42.6329 4.34376e-06 0)
(42.6303 3.04541e-06 0)
(42.6279 2.09161e-06 0)
(42.6257 1.40242e-06 0)
(42.6237 9.12639e-07 0)
(42.6218 5.70446e-07 0)
(42.6201 3.35615e-07 0)
(42.6186 1.77525e-07 0)
(42.6172 7.31959e-08 0)
(42.6159 5.46369e-09 0)
(42.6148 -3.69333e-08 0)
(42.6137 -6.30048e-08 0)
(42.6128 -7.8542e-08 0)
(42.6119 -8.73345e-08 0)
(42.6112 -9.19338e-08 0)
(42.6105 -9.39885e-08 0)
(42.6099 -9.45552e-08 0)
(42.6093 -9.43211e-08 0)
(42.6088 -9.37055e-08 0)
(42.6083 -9.29345e-08 0)
(42.6079 -9.21387e-08 0)
(42.6075 -9.13863e-08 0)
(42.6072 -9.07048e-08 0)
(42.6069 -9.00999e-08 0)
(42.6066 -8.95801e-08 0)
(42.6063 -8.91667e-08 0)
(42.6061 -8.88333e-08 0)
(42.6059 -8.85602e-08 0)
(42.6057 -8.81906e-08 0)
(42.6054 -8.79644e-08 0)
(42.6053 -8.79187e-08 0)
(42.6051 -8.75636e-08 0)
(42.6049 -8.74183e-08 0)
(42.6047 -8.78232e-08 0)
(42.6045 -8.88199e-08 0)
(42.6044 -8.99498e-08 0)
(42.6042 -9.02475e-08 0)
(42.6041 -8.90077e-08 0)
(42.6039 -8.88456e-08 0)
(42.6037 -8.72674e-08 0)
(42.6036 -8.66913e-08 0)
(42.6034 -8.65987e-08 0)
(42.6033 -8.67554e-08 0)
(42.6031 -8.69311e-08 0)
(42.6029 -8.701e-08 0)
(42.6028 -8.69624e-08 0)
(42.6026 -8.67999e-08 0)
(42.6025 -8.65789e-08 0)
(42.6024 -8.64642e-08 0)
(42.6022 -8.6437e-08 0)
(42.6021 -8.64442e-08 0)
(42.602 -8.6377e-08 0)
(42.6019 -8.62836e-08 0)
(42.6018 -8.61763e-08 0)
(42.6017 -8.6036e-08 0)
(42.6016 -8.59467e-08 0)
(42.6015 -8.5876e-08 0)
(42.6014 -8.57321e-08 0)
(42.6014 -8.54826e-08 0)
(42.6013 -8.51476e-08 0)
(42.6013 -8.47826e-08 0)
(42.6013 -8.43874e-08 0)
(42.6012 -8.39829e-08 0)
(42.6012 -8.37025e-08 0)
(42.6012 -8.33679e-08 0)
(42.6012 -8.29653e-08 0)
(42.6013 -8.27398e-08 0)
(42.6013 -8.23642e-08 0)
(42.6013 -8.27028e-08 0)
(42.6013 -8.24753e-08 0)
(42.6014 -8.20889e-08 0)
(42.6014 -8.20242e-08 0)
(42.6014 -8.18734e-08 0)
(42.6015 -8.21878e-08 0)
(42.6015 -8.18446e-08 0)
(42.6016 -8.32311e-08 0)
(42.6016 -8.22766e-08 0)
(42.6016 -8.28206e-08 0)
(42.6017 -8.18354e-08 0)
(42.6017 -8.22302e-08 0)
(42.6017 -8.25292e-08 0)
(42.6017 -8.10903e-08 0)
(42.6017 -8.34153e-08 0)
(42.6017 -8.28968e-08 0)
(42.6017 -8.28506e-08 0)
(42.6016 -8.28116e-08 0)
(42.6016 -8.28495e-08 0)
(42.6015 -8.29563e-08 0)
(42.6015 -8.30343e-08 0)
(42.6014 -8.30973e-08 0)
(42.6014 -8.30956e-08 0)
(42.6013 -8.29421e-08 0)
(42.6012 -8.2666e-08 0)
(42.6012 -8.22594e-08 0)
(42.6012 -8.16469e-08 0)
(42.6011 -8.09371e-08 0)
(42.6012 -7.95152e-08 0)
(42.6012 -7.84292e-08 0)
(42.6013 -7.73282e-08 0)
(42.6015 -7.57224e-08 0)
(42.6017 -7.39294e-08 0)
(42.602 -7.17514e-08 0)
(42.6024 -6.93364e-08 0)
(42.6029 -6.6649e-08 0)
(42.6035 -6.35279e-08 0)
(42.6042 -6.02666e-08 0)
(42.605 -5.65673e-08 0)
(42.606 -5.25623e-08 0)
(42.6071 -4.84018e-08 0)
(42.6084 -4.37507e-08 0)
(42.6099 -3.9106e-08 0)
(42.6115 -3.41954e-08 0)
(42.6134 -2.89901e-08 0)
(42.6154 -2.38497e-08 0)
(42.6176 -1.86171e-08 0)
(42.6201 -1.32565e-08 0)
(42.6227 -8.29913e-09 0)
(42.6256 -3.08556e-09 0)
(42.6286 1.55256e-09 0)
(42.6318 5.85601e-09 0)
(42.6352 9.8803e-09 0)
(42.6388 1.32306e-08 0)
(42.6424 1.56173e-08 0)
(42.6463 1.83274e-08 0)
(42.6502 1.92178e-08 0)
(42.6542 2.02572e-08 0)
(42.6582 1.99205e-08 0)
(42.6622 1.83801e-08 0)
(42.6662 1.63867e-08 0)
(42.6702 1.29491e-08 0)
(42.6741 8.58692e-09 0)
(42.6778 9.43645e-09 0)
(42.6814 2.01752e-08 0)
(42.6848 1.25261e-07 0)
(42.6879 6.3553e-07 0)
(42.6908 3.2544e-06 0)
(42.6933 1.63279e-05 0)
(42.6953 8.14e-05 0)
(42.6957 0.000404636 0)