/*--------------------------------*- C++ -*----------------------------------*\
| =========                 |                                                 |
| \\      /  F ield         | OpenFOAM: The Open Source CFD Toolbox           |
|  \\    /   O peration     | Version:  3.0.x                                 |
|   \\  /    A nd           | Web:      www.OpenFOAM.org                      |
|    \\/     M anipulation  |                                                 |
\*---------------------------------------------------------------------------*/
FoamFile
{
    version     2.0;
    format      ascii;
    class       surfaceScalarField;
    location    "0.5";
    object      phi;
}
// * * * * * * * * * * * * * * * * * * * * * * * * * * * * * * * * * * * * * //

dimensions      [1 0 -1 0 0 0 0];

internalField   nonuniform List<scalar> 
12415
(
5.80243
0.000327951
5.79695
0.000235032
5.79146
0.000225768
5.78595
0.0002274
5.78043
0.000227818
5.77489
0.000227639
5.76935
0.00022762
5.76381
0.000227646
5.75825
0.000227669
5.75269
0.000227692
5.74713
0.000227717
5.74155
0.000227744
5.73596
0.000227774
5.73036
0.000227805
5.72474
0.000227838
5.7191
0.000227873
5.71343
0.000227909
5.70773
0.000227946
5.702
0.000227985
5.69622
0.000228025
5.69041
0.000228067
5.68454
0.000228111
5.67862
0.000228158
5.67264
0.000228206
5.66659
0.000228257
5.66048
0.00022831
5.65429
0.000228366
5.64803
0.000228426
5.64169
0.000228489
5.63527
0.000228556
5.62876
0.000228627
5.62218
0.000228702
5.6155
0.000228784
5.60875
0.000228871
5.60191
0.000228965
5.59499
0.000229067
5.58798
0.000229175
5.5809
0.00022929
5.57375
0.000229409
5.56652
0.000229533
5.55923
0.000229669
5.55187
0.000229814
5.54446
0.000229971
5.53698
0.000230138
5.52944
0.000230312
5.52184
0.00023049
5.51417
0.000230668
5.50644
0.000230848
5.49864
0.00023103
5.49079
0.000231218
5.48288
0.000231411
5.47491
0.000231607
5.46687
0.000231806
5.45876
0.000232004
5.45058
0.000232196
5.44232
0.000232387
5.43398
0.000232569
5.42556
0.000232739
5.41703
0.000232883
5.4084
0.000232986
5.39966
0.000233028
5.3908
0.000232983
5.38182
0.000232829
5.37271
0.000232539
5.36348
0.000232082
5.35413
0.000231419
5.34464
0.000230506
5.33503
0.000229294
5.32528
0.000227727
5.31541
0.000225747
5.3054
0.000223293
5.29526
0.00022031
5.28499
0.000216744
5.27459
0.000212551
5.26407
0.000207696
5.25343
0.000202159
5.24268
0.000195932
5.23182
0.000189025
5.22086
0.000181465
5.2098
0.000173298
5.19865
0.000164586
5.18741
0.000155407
5.17609
0.000145855
5.16469
0.000136033
5.15322
0.00012605
5.14167
0.000116023
5.13004
0.000106067
5.11834
9.62915e-05
5.10656
8.68017e-05
5.09471
7.76904e-05
5.08277
6.90381e-05
5.07076
6.09105e-05
5.05865
5.3357e-05
5.04645
4.64114e-05
5.03416
4.00914e-05
5.02176
3.43999e-05
5.00925
2.93271e-05
4.99663
2.48518e-05
4.9839
2.09438e-05
4.97103
1.75655e-05
4.95804
1.4674e-05
4.94492
1.22238e-05
4.93165
1.01683e-05
4.91824
8.46136e-06
4.90469
7.05817e-06
4.89099
5.91634e-06
4.87713
4.99676e-06
4.86312
4.26388e-06
4.84896
3.68612e-06
4.83464
3.23559e-06
4.82018
2.88852e-06
4.80556
2.62428e-06
4.7908
2.42556e-06
4.7759
2.27739e-06
4.76086
2.16787e-06
4.74568
2.08727e-06
4.73038
2.02837e-06
4.71496
1.98502e-06
4.69943
1.95256e-06
4.68378
1.92728e-06
4.66804
1.90656e-06
4.65219
1.88892e-06
4.63626
1.87315e-06
4.62023
1.85845e-06
4.60412
1.84386e-06
4.58793
1.82872e-06
4.57166
1.81323e-06
4.55531
1.79746e-06
4.53888
1.78203e-06
4.52237
1.76696e-06
4.50578
1.752e-06
4.48911
1.73727e-06
4.47235
1.72262e-06
4.4555
1.7082e-06
4.43857
1.69434e-06
4.42154
1.68116e-06
4.40442
1.66889e-06
4.3872
1.65721e-06
4.36988
1.64585e-06
4.35246
1.63451e-06
4.33494
1.62314e-06
4.31731
1.61208e-06
4.29958
1.60124e-06
4.28173
1.59045e-06
4.26378
1.5801e-06
4.2457
1.57047e-06
4.22751
1.56153e-06
4.20921
1.55339e-06
4.19078
1.54586e-06
4.17223
1.53872e-06
4.15355
1.53166e-06
4.13475
1.52449e-06
4.11583
1.51694e-06
4.09678
1.50933e-06
4.07761
1.5013e-06
4.05832
1.49242e-06
4.03891
1.4825e-06
4.01939
1.47028e-06
3.99976
1.45571e-06
3.98002
1.4389e-06
3.96018
1.42066e-06
3.94025
1.39976e-06
3.92023
1.37653e-06
3.90013
1.34956e-06
3.87995
1.32012e-06
3.8597
1.28676e-06
3.83939
1.25094e-06
3.81903
1.2117e-06
3.79861
1.17021e-06
3.77815
1.12563e-06
3.75764
1.08027e-06
3.73709
1.03022e-06
3.71651
9.8187e-07
3.6959
9.26575e-07
3.67525
8.77824e-07
3.65457
8.19316e-07
3.63385
7.7448e-07
3.6131
7.11685e-07
3.59231
6.74227e-07
3.57148
5.9788e-07
3.55061
5.80809e-07
3.52971
4.67433e-07
3.50877
5.11958e-07
3.48779
3.00208e-07
3.46676
4.94843e-07
3.44571
6.34045e-08
3.42461
5.46077e-07
3.40348
-2.57944e-07
3.3823
7.30204e-07
3.36109
-7.85163e-07
3.33984
1.21387e-06
3.31855
-1.53187e-06
3.29723
2.26254e-06
3.27588
1.20363e-06
3.25448
2.35382e-05
3.23294
0.000145859
3.21055
0.000984174
3.18257
0.00654157
3.10695
0.0541958
0.219473
2.86601
11.6056
0.000260545
11.5952
0.000214857
11.5847
0.000191163
11.5741
0.000194837
11.5636
0.000195871
11.553
0.000195341
11.5424
0.000195219
11.5318
0.000195251
11.5212
0.000195277
11.5105
0.0001953
11.4999
0.000195327
11.4892
0.000195359
11.4785
0.000195393
11.4678
0.000195429
11.4571
0.000195467
11.4463
0.000195506
11.4354
0.000195548
11.4245
0.00019559
11.4135
0.000195634
11.4025
0.000195679
11.3913
0.000195727
11.3801
0.000195775
11.3687
0.000195826
11.3573
0.000195879
11.3457
0.000195933
11.3339
0.00019599
11.322
0.000196049
11.31
0.000196112
11.2978
0.000196177
11.2855
0.000196245
11.2729
0.000196317
11.2602
0.000196394
11.2474
0.000196475
11.2344
0.000196561
11.2212
0.000196653
11.2078
0.000196751
11.1943
0.000196855
11.1806
0.000196965
11.1668
0.000197079
11.1529
0.000197198
11.1388
0.000197326
11.1245
0.000197462
11.1102
0.000197608
11.0957
0.000197762
11.0812
0.000197923
11.0664
0.000198087
11.0516
0.000198252
11.0366
0.000198418
11.0215
0.000198588
11.0063
0.000198761
10.991
0.000198939
10.9755
0.000199119
10.96
0.000199301
10.9442
0.000199482
10.9284
0.000199659
10.9124
0.000199835
10.8962
0.000200003
10.8798
0.000200158
10.8633
0.000200291
10.8465
0.000200388
10.8295
0.00020043
10.8123
0.000200398
10.7948
0.000200269
10.7771
0.000200021
10.7592
0.000199625
10.7409
0.000199048
10.7225
0.000198252
10.7037
0.000197193
10.6847
0.000195823
10.6655
0.000194091
10.6459
0.000191946
10.6261
0.000189339
10.606
0.000186225
10.5857
0.000182565
10.5651
0.000178332
10.5442
0.000173506
10.5232
0.000168086
10.5018
0.000162078
10.4803
0.00015551
10.4586
0.000148422
10.4366
0.000140869
10.4145
0.000132922
10.3921
0.000124661
10.3696
0.000116176
10.347
0.000107564
10.3241
9.89251e-05
10.3011
9.03577e-05
10.2779
8.19574e-05
10.2545
7.38131e-05
10.231
6.60041e-05
10.2073
5.85984e-05
10.1834
5.1651e-05
10.1593
4.52032e-05
10.135
3.92821e-05
10.1104
3.39017e-05
10.0857
2.90629e-05
10.0608
2.47559e-05
10.0356
2.09615e-05
10.0102
1.76527e-05
9.98448
1.47963e-05
9.95853
1.2355e-05
9.9323
1.02893e-05
9.90579
8.55904e-06
9.879
7.1243e-06
9.8519
5.94667e-06
9.82451
4.9898e-06
9.79681
4.22025e-06
9.7688
3.60766e-06
9.74048
3.12517e-06
9.71186
2.74914e-06
9.68293
2.45948e-06
9.6537
2.23887e-06
9.62419
2.07281e-06
9.59438
1.94884e-06
9.5643
1.85705e-06
9.53396
1.78936e-06
9.50336
1.73979e-06
9.47253
1.70321e-06
9.44146
1.67576e-06
9.41018
1.6543e-06
9.37869
1.63672e-06
9.34701
1.62167e-06
9.31514
1.60824e-06
9.28309
1.59564e-06
9.25088
1.58315e-06
9.2185
1.57021e-06
9.18596
1.55693e-06
9.15327
1.54345e-06
9.12041
1.53023e-06
9.08739
1.5173e-06
9.05421
1.50451e-06
9.02087
1.49185e-06
8.98735
1.47936e-06
8.95366
1.46696e-06
8.9198
1.45513e-06
8.88574
1.44382e-06
8.8515
1.43332e-06
8.81707
1.42332e-06
8.78244
1.41357e-06
8.74761
1.40389e-06
8.71257
1.39415e-06
8.67731
1.38466e-06
8.64185
1.37543e-06
8.60616
1.3661e-06
8.57025
1.35742e-06
8.53411
1.34902e-06
8.49773
1.34143e-06
8.46112
1.33449e-06
8.42426
1.32807e-06
8.38716
1.32189e-06
8.34982
1.31587e-06
8.31222
1.30982e-06
8.27438
1.30329e-06
8.23628
1.29675e-06
8.19795
1.29001e-06
8.15937
1.28225e-06
8.12055
1.27389e-06
8.08151
1.26337e-06
8.04225
1.25109e-06
8.00278
1.23627e-06
7.9631
1.22089e-06
7.92324
1.20268e-06
7.88321
1.18368e-06
7.84301
1.15971e-06
7.80265
1.1349e-06
7.76216
1.10566e-06
7.72155
1.07589e-06
7.68082
1.04157e-06
7.63998
1.0064e-06
7.59906
9.66974e-07
7.55804
9.30766e-07
7.51696
8.84236e-07
7.4758
8.47599e-07
7.43457
7.93105e-07
7.39327
7.6078e-07
7.35191
6.98405e-07
7.31047
6.76835e-07
7.26897
5.99445e-07
7.22739
6.0115e-07
7.18574
4.84016e-07
7.14401
5.50402e-07
7.1022
3.2076e-07
7.06031
5.74788e-07
7.01835
4.92166e-08
6.97631
7.56251e-07
6.9342
-4.24962e-07
6.892
1.14702e-06
6.84974
-1.15782e-06
6.80739
1.94503e-06
6.76497
-2.52457e-06
6.72246
3.65986e-06
6.67989
-4.56276e-06
6.63724
7.0825e-06
6.59454
3.73592e-06
6.55175
7.07839e-05
6.50867
0.000434367
6.46389
0.00293042
6.40827
0.019308
6.2849
0.134681
0.528681
5.93276
139.267
-0.000260545
139.142
-0.000214857
139.016
-0.000191163
138.889
-0.000194837
138.763
-0.000195871
138.636
-0.000195341
138.509
-0.000195219
138.381
-0.000195251
138.254
-0.000195277
138.126
-0.0001953
137.999
-0.000195327
137.871
-0.000195359
137.742
-0.000195393
137.614
-0.000195429
137.485
-0.000195467
137.355
-0.000195506
137.225
-0.000195548
137.094
-0.00019559
136.962
-0.000195634
136.83
-0.000195679
136.696
-0.000195727
136.561
-0.000195775
136.425
-0.000195826
136.287
-0.000195879
136.148
-0.000195933
136.007
-0.00019599
135.864
-0.000196049
135.72
-0.000196112
135.574
-0.000196177
135.425
-0.000196245
135.275
-0.000196317
135.123
-0.000196394
134.969
-0.000196475
134.812
-0.000196561
134.654
-0.000196653
134.494
-0.000196751
134.332
-0.000196855
134.168
-0.000196965
134.002
-0.000197079
133.834
-0.000197198
133.665
-0.000197326
133.495
-0.000197462
133.323
-0.000197608
133.149
-0.000197762
132.974
-0.000197923
132.797
-0.000198087
132.619
-0.000198252
132.44
-0.000198418
132.258
-0.000198588
132.076
-0.000198761
131.892
-0.000198939
131.707
-0.000199119
131.52
-0.000199301
131.331
-0.000199482
131.141
-0.000199659
130.948
-0.000199835
130.754
-0.000200003
130.558
-0.000200158
130.359
-0.000200291
130.158
-0.000200388
129.954
-0.00020043
129.748
-0.000200398
129.538
-0.000200269
129.326
-0.000200021
129.11
-0.000199625
128.891
-0.000199048
128.67
-0.000198252
128.445
-0.000197193
128.217
-0.000195823
127.986
-0.000194091
127.751
-0.000191946
127.513
-0.000189339
127.273
-0.000186225
127.028
-0.000182565
126.781
-0.000178332
126.531
-0.000173506
126.278
-0.000168086
126.022
-0.000162078
125.764
-0.00015551
125.503
-0.000148422
125.24
-0.000140869
124.974
-0.000132922
124.706
-0.000124661
124.436
-0.000116176
124.164
-0.000107564
123.89
-9.89251e-05
123.613
-9.03577e-05
123.335
-8.19574e-05
123.054
-7.38131e-05
122.772
-6.60041e-05
122.487
-5.85984e-05
122.2
-5.1651e-05
121.911
-4.52032e-05
121.62
-3.92821e-05
121.326
-3.39017e-05
121.029
-2.90629e-05
120.73
-2.47559e-05
120.427
-2.09615e-05
120.122
-1.76527e-05
119.814
-1.47963e-05
119.502
-1.2355e-05
119.188
-1.02893e-05
118.87
-8.55904e-06
118.548
-7.1243e-06
118.223
-5.94667e-06
117.894
-4.98981e-06
117.562
-4.22025e-06
117.226
-3.60767e-06
116.886
-3.12516e-06
116.542
-2.74915e-06
116.195
-2.45946e-06
115.845
-2.2389e-06
115.49
-2.07279e-06
115.133
-1.94887e-06
114.772
-1.85701e-06
114.408
-1.7894e-06
114.041
-1.73975e-06
113.67
-1.70325e-06
113.298
-1.67572e-06
112.922
-1.65435e-06
112.544
-1.63668e-06
112.164
-1.62171e-06
111.782
-1.6082e-06
111.397
-1.59567e-06
111.011
-1.58312e-06
110.622
-1.57025e-06
110.232
-1.55689e-06
109.839
-1.54347e-06
109.445
-1.53023e-06
109.049
-1.51729e-06
108.651
-1.50447e-06
108.251
-1.49196e-06
107.848
-1.4792e-06
107.444
-1.46715e-06
107.038
-1.45493e-06
106.629
-1.44399e-06
106.218
-1.43322e-06
105.805
-1.42336e-06
105.389
-1.41355e-06
104.971
-1.40388e-06
104.551
-1.39421e-06
104.128
-1.38472e-06
103.702
-1.37513e-06
103.274
-1.36657e-06
102.843
-1.35703e-06
102.409
-1.34918e-06
101.973
-1.34143e-06
101.534
-1.33444e-06
101.091
-1.32794e-06
100.646
-1.3223e-06
100.198
-1.31549e-06
99.7468
-1.30995e-06
99.2927
-1.30304e-06
98.8356
-1.29717e-06
98.3755
-1.2897e-06
97.9126
-1.28266e-06
97.4468
-1.27363e-06
96.9783
-1.26343e-06
96.5072
-1.24986e-06
96.0335
-1.23785e-06
95.5574
-1.22078e-06
95.0791
-1.20467e-06
94.5986
-1.17926e-06
94.1162
-1.16207e-06
93.632
-1.13303e-06
93.1461
-1.10962e-06
92.6587
-1.07181e-06
92.1699
-1.04474e-06
91.6799
-1.00269e-06
91.1888
-9.73939e-07
90.6967
-9.21779e-07
90.2036
-8.94049e-07
89.7097
-8.32683e-07
89.215
-8.14122e-07
88.7194
-7.35251e-07
88.223
-7.33464e-07
87.7258
-6.27547e-07
87.2278
-6.66524e-07
86.7289
-5.02783e-07
86.229
-6.35983e-07
85.7283
-3.04114e-07
85.2266
-7.13422e-07
84.7239
6.37356e-08
84.2204
-1.09209e-06
83.7159
8.78186e-07
83.2105
-1.96022e-06
82.7042
2.11137e-06
82.197
-3.08923e-06
81.6888
3.3645e-06
81.1797
-3.93172e-06
80.6697
4.20056e-06
80.1588
-4.25652e-06
79.6471
7.05839e-06
79.1348
4.49842e-06
78.6217
8.41096e-05
78.1082
0.000491729
77.5939
0.00335921
77.0763
0.0224395
76.5204
0.175929
0.625871
75.9083
11.6056
-0.000327951
11.5952
-0.000235032
11.5847
-0.000225768
11.5741
-0.0002274
11.5636
-0.000227818
11.553
-0.000227639
11.5424
-0.00022762
11.5318
-0.000227646
11.5212
-0.000227669
11.5105
-0.000227692
11.4999
-0.000227717
11.4892
-0.000227744
11.4785
-0.000227774
11.4678
-0.000227805
11.4571
-0.000227838
11.4463
-0.000227873
11.4354
-0.000227909
11.4245
-0.000227946
11.4135
-0.000227985
11.4025
-0.000228025
11.3913
-0.000228067
11.3801
-0.000228111
11.3687
-0.000228158
11.3573
-0.000228206
11.3457
-0.000228257
11.3339
-0.00022831
11.322
-0.000228366
11.31
-0.000228426
11.2978
-0.000228489
11.2855
-0.000228556
11.2729
-0.000228627
11.2602
-0.000228702
11.2474
-0.000228784
11.2344
-0.000228871
11.2212
-0.000228965
11.2078
-0.000229067
11.1943
-0.000229175
11.1806
-0.00022929
11.1668
-0.000229409
11.1529
-0.000229533
11.1388
-0.000229669
11.1245
-0.000229814
11.1102
-0.000229971
11.0957
-0.000230138
11.0812
-0.000230312
11.0664
-0.00023049
11.0516
-0.000230668
11.0366
-0.000230848
11.0215
-0.00023103
11.0063
-0.000231218
10.991
-0.000231411
10.9755
-0.000231607
10.96
-0.000231806
10.9442
-0.000232004
10.9284
-0.000232196
10.9124
-0.000232387
10.8962
-0.000232569
10.8798
-0.000232739
10.8633
-0.000232883
10.8465
-0.000232986
10.8295
-0.000233028
10.8123
-0.000232983
10.7948
-0.000232829
10.7771
-0.000232539
10.7592
-0.000232082
10.7409
-0.000231419
10.7225
-0.000230506
10.7037
-0.000229294
10.6847
-0.000227727
10.6655
-0.000225747
10.6459
-0.000223293
10.6261
-0.00022031
10.606
-0.000216744
10.5857
-0.000212551
10.5651
-0.000207696
10.5442
-0.000202159
10.5232
-0.000195932
10.5018
-0.000189025
10.4803
-0.000181465
10.4586
-0.000173298
10.4366
-0.000164586
10.4145
-0.000155407
10.3921
-0.000145855
10.3696
-0.000136033
10.347
-0.00012605
10.3241
-0.000116023
10.3011
-0.000106067
10.2779
-9.62915e-05
10.2545
-8.68017e-05
10.231
-7.76904e-05
10.2073
-6.90381e-05
10.1834
-6.09105e-05
10.1593
-5.3357e-05
10.135
-4.64114e-05
10.1104
-4.00914e-05
10.0857
-3.43999e-05
10.0608
-2.93271e-05
10.0356
-2.48518e-05
10.0102
-2.09438e-05
9.98448
-1.75655e-05
9.95853
-1.4674e-05
9.9323
-1.22238e-05
9.90579
-1.01683e-05
9.879
-8.46136e-06
9.8519
-7.05817e-06
9.82451
-5.91634e-06
9.79681
-4.99676e-06
9.7688
-4.26389e-06
9.74048
-3.68611e-06
9.71186
-3.2356e-06
9.68293
-2.8885e-06
9.6537
-2.6243e-06
9.62419
-2.42553e-06
9.59438
-2.27742e-06
9.5643
-2.16784e-06
9.53396
-2.08729e-06
9.50336
-2.02835e-06
9.47253
-1.98503e-06
9.44146
-1.95256e-06
9.41018
-1.92727e-06
9.37869
-1.90657e-06
9.34701
-1.88891e-06
9.31514
-1.87317e-06
9.28309
-1.85845e-06
9.25088
-1.84383e-06
9.2185
-1.82878e-06
9.18596
-1.81317e-06
9.15327
-1.7975e-06
9.12041
-1.78204e-06
9.08739
-1.76692e-06
9.05421
-1.75201e-06
9.02087
-1.7373e-06
8.98735
-1.72256e-06
8.95366
-1.70828e-06
8.9198
-1.69426e-06
8.88574
-1.68124e-06
8.8515
-1.66885e-06
8.81707
-1.65723e-06
8.78244
-1.64582e-06
8.74761
-1.6345e-06
8.71257
-1.6232e-06
8.67731
-1.61209e-06
8.64185
-1.60108e-06
8.60616
-1.59061e-06
8.57025
-1.58009e-06
8.53411
-1.57046e-06
8.49773
-1.56146e-06
8.46112
-1.55336e-06
8.42426
-1.54591e-06
8.38716
-1.53892e-06
8.34982
-1.53147e-06
8.31222
-1.52445e-06
8.27438
-1.51687e-06
8.23628
-1.50951e-06
8.19795
-1.50122e-06
8.15937
-1.49258e-06
8.12055
-1.48228e-06
8.08151
-1.47015e-06
8.04225
-1.45543e-06
8.00278
-1.43967e-06
7.9631
-1.4207e-06
7.92324
-1.40024e-06
7.88321
-1.37488e-06
7.84301
-1.35031e-06
7.80265
-1.31961e-06
7.76216
-1.28818e-06
7.72155
-1.24953e-06
7.68082
-1.21264e-06
7.63998
-1.169e-06
7.59906
-1.12814e-06
7.55804
-1.07738e-06
7.51696
-1.03351e-06
7.4758
-9.76497e-07
7.43457
-9.33529e-07
7.39327
-8.69053e-07
7.35191
-8.31622e-07
7.31047
-7.57916e-07
7.26897
-7.34699e-07
7.22739
-6.40623e-07
7.18574
-6.49583e-07
7.14401
-4.96149e-07
7.1022
-6.02835e-07
7.06032
-2.9e-07
7.01835
-6.64317e-07
6.97631
7.75781e-08
6.93419
-9.02359e-07
6.89201
6.04385e-07
6.84973
-1.24472e-06
6.80739
1.14721e-06
6.76496
-1.48374e-06
6.72246
1.5168e-06
6.67988
-1.49173e-06
6.63725
2.52355e-06
6.59455
1.66155e-06
6.55186
2.91053e-05
6.50939
0.000169964
6.46875
0.00117057
6.4401
0.00823227
6.47602
0.0970955
0.308472
6.75068
5.80243
5.79695
5.79146
5.78595
5.78043
5.77489
5.76935
5.76381
5.75825
5.75269
5.74713
5.74155
5.73596
5.73036
5.72474
5.7191
5.71343
5.70773
5.702
5.69622
5.69041
5.68454
5.67862
5.67264
5.66659
5.66048
5.65429
5.64803
5.64169
5.63527
5.62876
5.62218
5.6155
5.60875
5.60191
5.59499
5.58798
5.5809
5.57375
5.56652
5.55923
5.55187
5.54446
5.53698
5.52944
5.52184
5.51417
5.50644
5.49864
5.49079
5.48288
5.47491
5.46687
5.45876
5.45058
5.44232
5.43398
5.42556
5.41703
5.4084
5.39966
5.3908
5.38182
5.37271
5.36348
5.35413
5.34464
5.33503
5.32528
5.31541
5.3054
5.29526
5.28499
5.27459
5.26407
5.25343
5.24268
5.23182
5.22086
5.2098
5.19865
5.18741
5.17609
5.16469
5.15322
5.14167
5.13004
5.11834
5.10656
5.09471
5.08277
5.07076
5.05865
5.04645
5.03416
5.02176
5.00925
4.99663
4.9839
4.97103
4.95804
4.94492
4.93165
4.91824
4.90469
4.89099
4.87713
4.86312
4.84896
4.83464
4.82018
4.80556
4.7908
4.7759
4.76086
4.74568
4.73038
4.71496
4.69943
4.68378
4.66804
4.65219
4.63626
4.62023
4.60412
4.58793
4.57166
4.55531
4.53888
4.52237
4.50578
4.48911
4.47235
4.4555
4.43857
4.42154
4.40442
4.3872
4.36988
4.35246
4.33494
4.31731
4.29958
4.28173
4.26378
4.2457
4.22751
4.20921
4.19078
4.17223
4.15355
4.13475
4.11583
4.09678
4.07761
4.05832
4.03891
4.01939
3.99976
3.98002
3.96018
3.94025
3.92023
3.90013
3.87995
3.8597
3.83939
3.81903
3.79861
3.77815
3.75764
3.73709
3.71651
3.6959
3.67525
3.65457
3.63385
3.6131
3.59231
3.57148
3.55061
3.52971
3.50877
3.48778
3.46677
3.44571
3.42461
3.40347
3.3823
3.36109
3.33984
3.31855
3.29723
3.27588
3.25454
3.23331
3.21307
3.19988
3.27552
3.56269
2.79493
0.0656755
2.79813
-0.00858739
2.79347
-0.000717563
2.79196
-0.00386463
2.79596
-0.00935926
2.82924
-0.0386382
2.91613
-0.0922679
3.0364
-0.125712
3.10428
-0.0733921
3.0715
0.0273025
2.98974
0.0763307
2.86338
0.120905
2.72922
0.128776
2.70769
0.0163171
2.96227
-0.259512
3.43636
-0.479089
3.98864
-0.557641
4.43672
-0.454037
4.61365
-0.183289
-0.0214456
4.62871
5.90748
0.0804211
5.91256
-0.0241745
5.93612
-0.0347802
5.96024
-0.0384734
5.9886
-0.0481942
6.07066
-0.131161
6.26172
-0.293849
6.53701
-0.411643
6.72138
-0.268543
6.71468
0.02329
6.6022
0.178224
6.3792
0.33328
6.07273
0.42474
5.87201
0.206827
6.13708
-0.534154
6.79452
-1.14646
7.72498
-1.49872
8.72515
-1.46607
9.37813
-0.84886
-0.13608
9.48048
75.8387
0.0511599
75.7449
-0.0288318
75.5838
0.0280951
75.3382
0.10889
75.0363
0.155373
74.6171
0.189426
74.0128
0.211801
73.2794
0.222883
72.6878
0.224143
72.3929
0.218955
72.2599
0.211258
72.2896
0.203337
72.4171
0.196786
72.3344
0.188396
71.4997
0.199124
70.074
0.176614
68.2942
0.180733
66.5851
0.143456
65.5476
0.0889683
0.00789851
65.3032
6.6992
0.0970855
6.66144
0.00321027
6.66959
0.0141377
6.73989
0.0327153
6.84498
0.0443836
6.97487
0.0536633
7.11967
0.0611221
7.27114
0.0655161
7.42277
0.0665971
7.57061
0.0652061
7.71332
0.0626151
7.85082
0.0598993
7.98381
0.0578445
8.10996
0.0563257
8.2439
0.0588409
8.36236
0.0525845
8.48869
0.0481552
8.59996
0.0260219
8.69998
-0.0171789
-0.111332
8.81312
3.65712
3.65759
3.66894
3.69884
3.74039
3.79122
3.84951
3.91219
3.97594
4.03829
4.09804
4.15507
4.21003
4.26348
4.31933
4.36913
4.41432
4.43737
4.41723
4.30295
4.19253
0.418778
4.48093
-0.304832
4.90906
-0.446004
5.02201
-0.131161
4.97172
0.0325648
4.97448
-0.0201902
5.08318
-0.126433
5.14144
-0.0761659
5.12599
-0.00224775
5.12371
-0.0152713
5.17961
-0.0735245
5.21851
-0.0567165
5.20207
-0.00134555
5.169
0.015438
5.16779
-0.0162713
5.20703
-0.0568278
5.22874
-0.039464
5.21004
0.000986645
5.1781
0.0143638
5.15087
0.00968704
5.14715
-0.0137825
5.14706
-0.0174755
5.13253
-0.0030424
5.10829
0.00674532
5.08393
0.00689476
5.06128
0.0052133
5.04048
0.00338673
5.02086
0.00222643
5.00166
0.0018272
4.98234
0.00198944
4.96243
0.00260233
4.94151
0.00364772
4.91951
0.0047567
4.89994
0.00236013
4.8939
-0.0111273
4.88761
-0.0108829
4.8721
-0.00162264
4.85179
0.00324576
4.83127
0.00350146
4.81097
0.00331712
4.79115
0.00289652
4.7717
0.00256599
4.75251
0.00236014
4.7335
0.00222643
4.71464
0.00212614
4.69593
0.00202939
4.67738
0.00192514
4.65898
0.00182276
4.64072
0.00173449
4.62258
0.00166604
4.60454
0.00162069
4.58656
0.00160124
4.56863
0.00160974
4.55071
0.0016471
4.53278
0.00171243
4.5148
0.00180269
4.49677
0.00191301
4.47866
0.0020369
4.46047
0.00216688
4.44219
0.00229485
4.42385
0.00241281
4.40545
0.00251363
4.38702
0.00259144
4.36859
0.00264201
4.35017
0.00266341
4.33181
0.00265612
4.31353
0.00262275
4.29534
0.0025676
4.27727
0.0024952
4.25933
0.00240934
4.24154
0.00231371
4.22388
0.00221368
4.20637
0.00211718
4.18899
0.00203587
4.17171
0.00198407
4.15449
0.00197792
4.13725
0.00203919
4.11991
0.0021986
4.10232
0.00250083
4.08427
0.00301438
4.06545
0.00384849
4.04536
0.00518556
4.02318
0.00733192
3.99761
0.0107964
3.9667
0.0161979
3.92943
0.0226099
3.89375
0.0211043
3.92679
-0.047451
3.98999
-0.0776977
4.00749
-0.0320124
3.9798
0.0133151
3.9407
0.0248781
3.89733
0.0292247
3.85245
0.0308064
3.8064
0.0320564
3.75876
0.0337238
3.70939
0.035527
3.65843
0.0371809
3.60619
0.0385473
3.5529
0.0396912
3.49851
0.0409083
3.44242
0.042657
3.38357
0.0454595
3.32046
0.0497894
3.25128
0.0559869
3.17402
0.0642086
3.08658
0.0744935
2.98702
0.086661
2.87378
0.100257
2.74624
0.114526
2.60496
0.128477
2.45189
0.140506
2.29074
0.148738
2.12703
0.151462
1.96732
0.147596
1.81801
0.137222
1.68408
0.121867
1.56834
0.103744
1.4713
0.0850732
1.39174
0.0676506
1.32741
0.0525275
1.27565
0.0400358
1.23391
0.0300951
1.19996
0.0223865
1.17195
0.0165162
1.14844
0.0121029
1.12829
0.00881639
1.11064
0.0063871
1.09485
0.00460256
1.08043
0.00329894
1.06703
0.00235167
1.05439
0.00166689
1.04231
0.00117446
1.03065
0.000822221
1.01932
0.000571625
1.00823
0.000394326
0.997346
0.000269586
0.986617
0.000182326
0.976022
0.000121632
0.965544
7.9662e-05
0.95517
5.08063e-05
0.944892
3.10845e-05
0.934705
1.76775e-05
0.924606
8.61519e-06
0.914594
2.50165e-06
0.904667
-1.60406e-06
0.894827
-4.32857e-06
0.885073
-6.17141e-06
0.875405
-7.33355e-06
0.865827
-8.1293e-06
0.856337
-8.67159e-06
0.846938
-9.0282e-06
0.83763
-9.28558e-06
0.828416
-9.45293e-06
0.819295
-9.59394e-06
0.810269
-9.68895e-06
0.80134
-9.78776e-06
0.792508
-9.85495e-06
0.783773
-9.92565e-06
0.775137
-9.97545e-06
0.7666
-1.00309e-05
0.758163
-1.00764e-05
0.749825
-1.01467e-05
0.741587
-1.01857e-05
0.733448
-1.02678e-05
0.725409
-1.02878e-05
0.717468
-1.03705e-05
0.709625
-1.03767e-05
0.701879
-1.04687e-05
0.694229
-1.04679e-05
0.686674
-1.05857e-05
0.679212
-1.05505e-05
0.671841
-1.07205e-05
0.66456
-1.06026e-05
0.657368
-1.09005e-05
0.650262
-1.06018e-05
0.643241
-1.11508e-05
0.636301
-1.05057e-05
0.629443
-1.14831e-05
0.622662
-1.03234e-05
0.615959
-1.18687e-05
0.609328
-1.01434e-05
0.602772
-1.21902e-05
0.596284
-9.71476e-06
0.589868
-1.26703e-05
0.583516
-9.41506e-06
0.577232
-1.31771e-05
0.571012
-9.18051e-06
0.564858
-1.38239e-05
0.558766
-8.74735e-06
0.552742
-1.45249e-05
0.546781
-8.92365e-06
0.540888
-1.35455e-05
0.535064
-8.89051e-06
0.529305
-4.44327e-06
0.523569
5.154e-05
0.5176
0.00035911
0.510328
0.00175099
0.513537
-0.00864124
-0.0070128
0.515203
8.26533
1.5993
8.32132
-0.393965
8.99942
-1.15961
9.26822
-0.436231
9.15168
0.113618
9.0692
0.0270908
9.23441
-0.326927
9.37779
-0.255143
9.36216
-0.0219213
9.32113
-0.009511
9.40596
-0.193548
9.51004
-0.196263
9.51297
-0.039754
9.44518
0.0479411
9.41605
-0.0221891
9.48742
-0.163287
9.56802
-0.155423
9.57867
-0.0449795
9.54126
0.0166337
9.49129
0.0245635
9.48505
-0.0425393
9.50248
-0.0699661
9.50274
-0.0383791
9.47911
-0.00460232
9.44596
0.00514996
9.41025
0.00605082
9.37489
0.00390976
9.33997
0.00236359
9.30454
0.00253284
9.26758
0.00428602
9.22798
0.00759354
9.18431
0.0127634
9.13504
0.0195312
9.08552
0.0174472
9.06549
-0.0254222
9.057
-0.0367103
9.03733
-0.0161993
9.00639
6.61046e-05
8.97164
0.00421974
8.93537
0.00564845
8.89881
0.00559799
8.86223
0.00538776
8.82564
0.00529714
8.78902
0.00527542
8.75242
0.00526486
8.71589
0.00520811
8.67947
0.00508832
8.64319
0.00494152
8.60707
0.00480778
8.57108
0.00470419
8.53521
0.00464012
8.49944
0.00462425
8.46374
0.00466413
8.42808
0.00476509
8.39243
0.00492808
8.35674
0.0051487
8.32099
0.00541794
8.28516
0.00572191
8.24924
0.00604433
8.21322
0.00636702
8.1771
0.00667128
8.14091
0.00694086
8.10466
0.00716314
8.06839
0.00732982
8.03212
0.00743921
7.99586
0.00749664
7.95965
0.0075142
7.92347
0.00750954
7.88732
0.00750092
7.85116
0.00750481
7.81497
0.00753859
7.77867
0.00762657
7.7422
0.00780285
7.70542
0.00811604
7.66818
0.00862645
7.63025
0.00940475
7.59135
0.0105463
7.55107
0.0121841
7.50888
0.0145102
7.46403
0.0178147
7.41538
0.022556
7.36125
0.0294945
7.29895
0.0399191
7.22408
0.0560635
7.12958
0.0812283
7.00712
0.115723
6.86044
0.138607
6.85292
-0.0687577
6.96926
-0.222962
7.06317
-0.154884
7.07591
-0.0281216
7.04246
0.0298877
6.98321
0.0601852
6.90956
0.0763096
6.82524
0.0883641
6.73142
0.099681
6.62921
0.110032
6.51998
0.118904
6.40512
0.126085
6.28572
0.131875
6.1623
0.137206
6.03452
0.143472
5.90106
0.152224
5.75966
0.164751
5.60762
0.181749
5.44242
0.203214
5.26212
0.228488
5.06598
0.256592
4.85437
0.285916
4.62887
0.314455
4.39252
0.3396
4.14994
0.358117
3.90719
0.366856
3.67128
0.362923
3.4495
0.345009
3.24771
0.314731
3.06962
0.275788
2.91644
0.232842
2.78726
0.190288
2.6797
0.151428
2.59064
0.117981
2.51681
0.0904254
2.45518
0.0684421
2.40314
0.0513003
2.35853
0.0381501
2.31963
0.0281816
2.28509
0.0206933
2.25384
0.0151094
2.22509
0.0109717
2.19823
0.0079236
2.1728
0.00569054
2.14845
0.00406364
2.12493
0.00288493
2.10205
0.00203576
2.07967
0.00142752
2.05769
0.000994415
2.03603
0.000687844
2.01465
0.000472161
1.9935
0.000321344
1.97257
0.000216542
1.95183
0.000144164
1.93127
9.44994e-05
1.91089
6.06252e-05
1.89068
3.76734e-05
1.87064
2.21678e-05
1.85077
1.17827e-05
1.83107
4.9231e-06
1.81155
2.42952e-07
1.79219
-2.65302e-06
1.77302
-4.63086e-06
1.75402
-5.95236e-06
1.7352
-6.78984e-06
1.71656
-7.37514e-06
1.69811
-7.72323e-06
1.67985
-8.00443e-06
1.66178
-8.15224e-06
1.6439
-8.31391e-06
1.62621
-8.387e-06
1.60872
-8.48224e-06
1.59143
-8.52751e-06
1.57433
-8.59337e-06
1.55744
-8.62092e-06
1.54074
-8.71189e-06
1.52424
-8.70478e-06
1.50794
-8.8311e-06
1.49184
-8.78403e-06
1.47594
-8.92803e-06
1.46023
-8.85497e-06
1.44471
-9.01949e-06
1.42939
-8.92095e-06
1.41426
-9.14139e-06
1.39931
-8.95294e-06
1.38455
-9.32115e-06
1.36996
-8.89758e-06
1.35555
-9.62761e-06
1.34132
-8.67376e-06
1.32725
-1.01434e-05
1.31335
-8.20056e-06
1.29961
-1.08907e-05
1.28603
-7.54656e-06
1.2726
-1.1712e-05
1.25931
-6.97867e-06
1.24617
-1.22661e-05
1.23317
-6.33952e-06
1.22032
-1.27066e-05
1.20759
-4.78089e-06
1.195
-1.45323e-05
1.18253
-3.29271e-06
1.1702
-1.6817e-05
1.15799
-1.60495e-06
1.14592
-1.88938e-05
1.13397
-1.76984e-06
1.12216
-1.56844e-05
1.11049
-9.33068e-07
1.09894
1.38581e-05
1.08743
0.000191116
1.07541
0.00116786
1.05974
0.00637734
1.02217
0.0180574
0.0782797
0.92619
66.2013
0.274132
65.0971
0.279947
63.2711
0.238879
62.2296
0.179518
61.7616
0.155975
61.1986
0.164238
60.2925
0.153416
59.4843
0.128227
58.922
0.115949
58.3731
0.11485
57.6481
0.107285
56.9379
0.0907778
56.3959
0.0794876
55.9434
0.0777284
55.4203
0.0779734
54.7643
0.0704461
54.1294
0.0579469
53.6136
0.0497822
53.1616
0.0475722
52.7182
0.0471971
52.2104
0.0446628
51.6816
0.0387274
51.1907
0.0331298
50.7371
0.029866
50.2958
0.0278662
49.8578
0.0258696
49.4204
0.0237162
48.9843
0.0215281
48.551
0.0194213
48.1221
0.0174699
47.6988
0.0157474
47.2829
0.0143814
46.8752
0.0135789
46.4663
0.0134258
46.017
0.0118065
45.5604
0.00873773
45.1278
0.00629875
44.7135
0.00511452
44.3051
0.00441618
43.8998
0.0037603
43.4963
0.00306876
43.0943
0.00237127
42.6942
0.00169879
42.2958
0.0010728
41.8994
0.000336751
41.5053
-0.000832434
41.1132
-0.00176641
40.7229
-0.00243178
40.3342
-0.00286944
39.9469
-0.00324509
39.5612
-0.00360409
39.177
-0.00396051
38.7944
-0.00431105
38.4134
-0.0046435
38.0341
-0.00494458
37.6565
-0.00520008
37.2805
-0.00539887
36.9061
-0.00553182
36.5332
-0.00559491
36.1618
-0.00558767
35.7918
-0.00551218
35.4229
-0.00537585
35.0552
-0.00518837
34.6885
-0.00496095
34.3227
-0.00470716
33.9577
-0.00444042
33.5936
-0.00417705
33.2302
-0.00394021
32.8677
-0.00376548
32.5062
-0.00369069
32.1458
-0.00373075
31.7867
-0.00386232
31.4291
-0.00410235
31.0733
-0.00440673
30.7196
-0.00479837
30.3684
-0.00527662
30.02
-0.00584811
29.6753
-0.00651594
29.3351
-0.00727427
29.0007
-0.00810483
28.6736
-0.00895723
28.356
-0.00970284
28.0508
-0.0100287
27.7627
-0.00906605
27.4966
-0.00453129
27.2617
8.1712e-05
27.0472
0.00398668
26.6312
-0.000741404
26.1099
-0.0477459
25.6946
-0.0840972
25.4212
-0.0976459
25.2145
-0.104837
25.0524
-0.117339
24.9282
-0.137401
24.8452
-0.164715
24.8088
-0.198157
24.8227
-0.236147
24.8877
-0.276346
25.0008
-0.315363
25.1551
-0.348762
25.34
-0.371991
25.5432
-0.382017
25.7533
-0.378192
25.963
-0.363085
26.1702
-0.341567
26.3782
-0.3187
26.5923
-0.297472
26.8176
-0.278346
27.0556
-0.259593
27.3043
-0.239536
27.5585
-0.217905
27.8079
-0.192433
28.0394
-0.163865
28.2402
-0.134977
28.3986
-0.108439