/*--------------------------------*- C++ -*----------------------------------*\
| =========                 |                                                 |
| \\      /  F ield         | OpenFOAM: The Open Source CFD Toolbox           |
|  \\    /   O peration     | Version:  3.0.x                                 |
|   \\  /    A nd           | Web:      www.OpenFOAM.org                      |
|    \\/     M anipulation  |                                                 |
\*---------------------------------------------------------------------------*/
FoamFile
{
    version     2.0;
    format      ascii;
    class       volScalarField;
    location    "0.5";
    object      rho;
}
// * * * * * * * * * * * * * * * * * * * * * * * * * * * * * * * * * * * * * //

dimensions      [1 -3 0 0 0 0 0];

internalField   nonuniform List<scalar> 
6900
(
51.0068
51.0073
51.0079
51.0085
51.0092
51.0099
51.0106
51.0114
51.0123
51.0133
51.0143
51.0154
51.0166
51.0179
51.0193
51.0207
51.0222
51.0237
51.0254
51.0271
51.0289
51.0307
51.0327
51.0347
51.0368
51.039
51.0412
51.0436
51.046
51.0485
51.0511
51.0538
51.0565
51.0594
51.0623
51.0654
51.0685
51.0716
51.0749
51.0783
51.0817
51.0854
51.0891
51.0929
51.0969
51.1008
51.1048
51.1088
51.1128
51.117
51.1212
51.1255
51.1299
51.1343
51.1389
51.1436
51.1484
51.1533
51.1583
51.1633
51.1683
51.1734
51.1785
51.1837
51.1889
51.1942
51.1997
51.2052
51.2109
51.2167
51.2225
51.2285
51.2345
51.2405
51.2467
51.2528
51.2591
51.2654
51.2718
51.2782
51.2847
51.2912
51.2978
51.3045
51.3112
51.318
51.3249
51.3318
51.3388
51.3458
51.3529
51.3601
51.3673
51.3746
51.3819
51.3893
51.3968
51.4044
51.412
51.4197
51.4275
51.4353
51.4433
51.4513
51.4594
51.4676
51.4759
51.4842
51.4927
51.5012
51.5099
51.5186
51.5274
51.5363
51.5452
51.5543
51.5634
51.5726
51.5818
51.5912
51.6006
51.61
51.6195
51.6291
51.6387
51.6484
51.6581
51.6678
51.6777
51.6875
51.6974
51.7074
51.7174
51.7275
51.7376
51.7478
51.758
51.7683
51.7787
51.7891
51.7995
51.81
51.8206
51.8312
51.8419
51.8527
51.8635
51.8744
51.8854
51.8964
51.9075
51.9186
51.9298
51.9411
51.9525
51.9639
51.9754
51.987
51.9986
52.0103
52.022
52.0338
52.0457
52.0576
52.0696
52.0815
52.0936
52.1056
52.1177
52.1299
52.142
52.1542
52.1664
52.1786
52.1908
52.2031
52.2153
52.2276
52.2399
52.2522
52.2646
52.2769
52.2893
52.3017
52.3141
52.3265
52.339
52.3513
52.364
52.3762
52.3891
52.4012
52.4142
52.4262
52.4394
52.4513
52.4645
52.4765
52.4895
52.5025
51.007
51.0075
51.0082
51.0088
51.0094
51.0101
51.0108
51.0116
51.0125
51.0135
51.0145
51.0156
51.0168
51.0181
51.0195
51.0209
51.0224
51.024
51.0256
51.0273
51.0291
51.031
51.0329
51.0349
51.037
51.0392
51.0415
51.0438
51.0462
51.0487
51.0513
51.054
51.0568
51.0596
51.0625
51.0656
51.0687
51.0718
51.0751
51.0785
51.0819
51.0856
51.0893
51.0931
51.097
51.101
51.105
51.109
51.113
51.1172
51.1214
51.1257
51.13
51.1345
51.1391
51.1438
51.1486
51.1535
51.1584
51.1634
51.1685
51.1736
51.1787
51.1838
51.1891
51.1944
51.1998
51.2054
51.2111
51.2168
51.2227
51.2286
51.2346
51.2407
51.2468
51.253
51.2592
51.2655
51.2719
51.2783
51.2848
51.2914
51.298
51.3047
51.3114
51.3182
51.325
51.332
51.3389
51.346
51.3531
51.3602
51.3674
51.3747
51.3821
51.3895
51.397
51.4045
51.4121
51.4198
51.4276
51.4355
51.4434
51.4514
51.4596
51.4677
51.476
51.4844
51.4928
51.5014
51.51
51.5187
51.5275
51.5364
51.5454
51.5544
51.5635
51.5727
51.582
51.5913
51.6007
51.6102
51.6197
51.6292
51.6388
51.6485
51.6582
51.668
51.6778
51.6877
51.6976
51.7076
51.7176
51.7277
51.7378
51.748
51.7582
51.7685
51.7788
51.7892
51.7997
51.8102
51.8208
51.8314
51.8421
51.8529
51.8637
51.8746
51.8855
51.8965
51.9076
51.9188
51.93
51.9413
51.9527
51.9641
51.9756
51.9871
51.9988
52.0105
52.0222
52.034
52.0459
52.0578
52.0697
52.0817
52.0937
52.1058
52.1179
52.13
52.1422
52.1543
52.1665
52.1787
52.191
52.2032
52.2155
52.2278
52.2401
52.2524
52.2647
52.2771
52.2895
52.3018
52.3143
52.3266
52.3392
52.3515
52.3642
52.3764
52.3892
52.4013
52.4144
52.4263
52.4396
52.4514
52.4647
52.4766
52.49
52.5015
51.007
51.0075
51.0082
51.0088
51.0094
51.0101
51.0108
51.0116
51.0125
51.0135
51.0145
51.0156
51.0168
51.0181
51.0195
51.0209
51.0224
51.024
51.0256
51.0273
51.0291
51.031
51.0329
51.0349
51.037
51.0392
51.0414
51.0438
51.0462
51.0487
51.0513
51.054
51.0567
51.0596
51.0625
51.0656
51.0687
51.0718
51.0751
51.0785
51.0819
51.0855
51.0893
51.0931
51.097
51.101
51.105
51.109
51.113
51.1172
51.1214
51.1257
51.13
51.1345
51.1391
51.1438
51.1486
51.1535
51.1584
51.1634
51.1685
51.1736
51.1787
51.1838
51.1891
51.1944
51.1998
51.2054
51.2111
51.2168
51.2227
51.2286
51.2346
51.2407
51.2468
51.253
51.2592
51.2655
51.2719
51.2783
51.2848
51.2914
51.298
51.3047
51.3114
51.3182
51.325
51.332
51.3389
51.346
51.3531
51.3602
51.3674
51.3747
51.3821
51.3895
51.397
51.4045
51.4121
51.4198
51.4276
51.4355
51.4434
51.4514
51.4596
51.4677
51.476
51.4844
51.4928
51.5014
51.51
51.5187
51.5275
51.5364
51.5454
51.5544
51.5635
51.5727
51.582
51.5913
51.6007
51.6102
51.6197
51.6292
51.6388
51.6485
51.6582
51.668
51.6778
51.6877
51.6976
51.7076
51.7176
51.7277
51.7378
51.748
51.7582
51.7685
51.7788
51.7892
51.7997
51.8102
51.8208
51.8314
51.8421
51.8529
51.8637
51.8746
51.8855
51.8965
51.9076
51.9188
51.93
51.9413
51.9527
51.9641
51.9756
51.9871
51.9988
52.0105
52.0222
52.034
52.0459
52.0578
52.0697
52.0817
52.0937
52.1058
52.1179
52.13
52.1422
52.1543
52.1665
52.1787
52.191
52.2032
52.2155
52.2278
52.2401
52.2524
52.2647
52.2771
52.2894
52.3018
52.3143
52.3266
52.3391
52.3515
52.3641
52.3765
52.3891
52.4016
52.4141
52.4266
52.4393
52.4516
52.4645
52.4769
52.4895
52.5021
51.007
51.0075
51.0082
51.0088
51.0094
51.0101
51.0108
51.0116
51.0125
51.0135
51.0145
51.0156
51.0168
51.0181
51.0195
51.0209
51.0224
51.024
51.0256
51.0273
51.0291
51.031
51.0329
51.0349
51.037
51.0392
51.0415
51.0438
51.0462
51.0487
51.0513
51.054
51.0568
51.0596
51.0625
51.0656
51.0687
51.0718
51.0751
51.0785
51.0819
51.0856
51.0893
51.0931
51.097
51.101
51.105
51.109
51.113
51.1172
51.1214
51.1257
51.13
51.1345
51.1391
51.1438
51.1486
51.1535
51.1584
51.1634
51.1685
51.1736
51.1787
51.1838
51.1891
51.1944
51.1998
51.2054
51.2111
51.2168
51.2227
51.2286
51.2346
51.2407
51.2468
51.253
51.2592
51.2655
51.2719
51.2783
51.2848
51.2914
51.298
51.3047
51.3114
51.3182
51.325
51.332
51.3389
51.346
51.3531
51.3602
51.3674
51.3747
51.3821
51.3895
51.397
51.4045
51.4121
51.4198
51.4276
51.4355
51.4434
51.4514
51.4596
51.4677
51.476
51.4844
51.4928
51.5014
51.51
51.5187
51.5275
51.5364
51.5454
51.5544
51.5635
51.5727
51.582
51.5913
51.6007
51.6102
51.6197
51.6292
51.6388
51.6485
51.6582
51.668
51.6778
51.6877
51.6976
51.7076
51.7176
51.7277
51.7378
51.748
51.7582
51.7685
51.7788
51.7892
51.7997
51.8102
51.8208
51.8314
51.8421
51.8529
51.8637
51.8746
51.8855
51.8965
51.9076
51.9188
51.93
51.9413
51.9527
51.9641
51.9756
51.9871
51.9988
52.0105
52.0222
52.034
52.0459
52.0578
52.0697
52.0817
52.0937
52.1058
52.1179
52.13
52.1422
52.1543
52.1665
52.1787
52.191
52.2032
52.2155
52.2278
52.2401
52.2524
52.2647
52.2771
52.2894
52.3019
52.3142
52.3267
52.339
52.3517
52.3639
52.3767
52.3888
52.4018
52.4138
52.427
52.4389
52.4522
52.4639
52.4774
52.4888
52.5023
51.0068
51.0073
51.0079
51.0085
51.0092
51.0099
51.0106
51.0114
51.0123
51.0133
51.0143
51.0154
51.0166
51.0179
51.0193
51.0207
51.0222
51.0237
51.0254
51.0271
51.0289
51.0307
51.0327
51.0347
51.0368
51.039
51.0412
51.0436
51.046
51.0485
51.0511
51.0538
51.0565
51.0594
51.0623
51.0654
51.0685
51.0716
51.0749
51.0783
51.0817
51.0854
51.0891
51.0929
51.0969
51.1008
51.1048
51.1088
51.1128
51.117
51.1212
51.1255
51.1299
51.1343
51.1389
51.1436
51.1484
51.1533
51.1583
51.1633
51.1683
51.1734
51.1785
51.1837
51.1889
51.1942
51.1997
51.2052
51.2109
51.2167
51.2225
51.2285
51.2345
51.2405
51.2467
51.2528
51.2591
51.2654
51.2718
51.2782
51.2847
51.2912
51.2978
51.3045
51.3112
51.318
51.3249
51.3318
51.3388
51.3458
51.3529
51.3601
51.3673
51.3746
51.3819
51.3893
51.3968
51.4044
51.412
51.4197
51.4275
51.4353
51.4433
51.4513
51.4594
51.4676
51.4759
51.4842
51.4927
51.5012
51.5099
51.5186
51.5274
51.5363
51.5452
51.5543
51.5634
51.5726
51.5818
51.5912
51.6006
51.61
51.6195
51.6291
51.6387
51.6484
51.6581
51.6678
51.6777
51.6875
51.6974
51.7074
51.7174
51.7275
51.7376
51.7478
51.758
51.7683
51.7787
51.7891
51.7995
51.81
51.8206
51.8312
51.8419
51.8527
51.8635
51.8744
51.8854
51.8964
51.9075
51.9186
51.9298
51.9411
51.9525
51.9639
51.9754
51.987
51.9986
52.0103
52.022
52.0338
52.0457
52.0576
52.0696
52.0815
52.0936
52.1056
52.1177
52.1299
52.142
52.1542
52.1664
52.1786
52.1908
52.2031
52.2153
52.2276
52.2399
52.2522
52.2645
52.2769
52.2893
52.3017
52.314
52.3266
52.3388
52.3515
52.3637
52.3766
52.3887
52.4017
52.4137
52.4268
52.4387
52.452
52.4638
52.4773
52.4881
52.5027
52.5135
52.5177
52.5203
52.5221
52.5242
52.5266
52.5294
52.5316
52.5321
52.5311
52.5313
52.5316
52.532
52.5348
52.5422
52.5516
52.5575
52.5569
52.5503
52.541
52.5124
52.5157
52.5183
52.5204
52.5225
52.5252
52.528
52.5302
52.5303
52.529
52.5293
52.53
52.5306
52.5333
52.5412
52.5504
52.5549
52.5528
52.5439
52.5341
52.51
52.5122
52.5143
52.516
52.5174
52.5185
52.5193
52.52
52.5204
52.5208
52.5206
52.5198
52.5187
52.5174
52.515
52.5126
52.5107
52.5099
52.5095
52.5088
52.5064
52.5083
52.5106
52.5125
52.5138
52.5144
52.515
52.5153
52.5155
52.5156
52.5159
52.516
52.5164
52.5168
52.5172
52.5169
52.5174
52.5174
52.5175
52.5183
52.5042
52.5033
52.5042
52.5058
52.5068
52.5072
52.5072
52.5071
52.5068
52.5064
52.5061
52.5058
52.5055
52.5053
52.5053
52.5048
52.5048
52.5047
52.5048
52.5057
52.5202
52.5351
52.5512
52.554
52.5597
52.5707
52.5827
52.5904
52.5982
52.6083
52.6199
52.6294
52.6374
52.6464
52.657
52.6684
52.678
52.6862
52.6952
52.7051
52.7155
52.7255
52.7348
52.744
52.7537
52.7634
52.7731
52.7828
52.7925
52.8021
52.8118
52.8215
52.8312
52.8409
52.8508
52.8604
52.8697
52.879
52.8885
52.898
52.9075
52.917
52.9265
52.936
52.9454
52.9549
52.9643
52.9737
52.9831
52.9924
53.0018
53.0111
53.0203
53.0295
53.0387
53.0479
53.057
53.0662
53.0752
53.0843
53.0934
53.1024
53.1114
53.1203
53.1292
53.1381
53.147
53.1558
53.1645
53.1732
53.1819
53.1905
53.1991
53.2076
53.2161
53.2245
53.2329
53.2412
53.2494
53.2576
53.2658
53.274
53.2821
53.2903
53.2985
53.3067
53.3148
53.3237
53.3325
53.3393
53.3456
53.3531
53.3611
53.3691
53.377
53.385
53.3928
53.4006
53.4081
53.4158
53.4239
53.4322
53.4396
53.4462
53.453
53.4608
53.4694
53.4775
53.4839
53.4862
53.4889
53.4948
53.5031
53.5125
53.524
53.5352
53.5448
53.5532
53.5606
53.5665
53.5726
53.5788
53.5851
53.5915
53.5978
53.6041
53.6104
53.6166
53.6229
53.629
53.6351
53.6412
53.6472
53.6532
53.6591
53.665
53.6708
53.6765
53.6822
53.6879
53.6935
53.699
53.7045
53.7099
53.7153
53.7206
53.7259
53.7311
53.7363
53.7414
53.7465
53.7515
53.7565
53.7615
53.7664
53.7712
53.776
53.7808
53.7855
53.7901
53.7948
53.7994
53.8039
53.8084
53.8128
53.8172
53.8216
53.8259
53.8302
53.8344
53.8386
53.8428
53.8469
53.851
53.8549
53.859
53.8628
53.8668
53.8705
53.8744
53.878
53.8819
53.8853
53.8892
53.8924
53.8963
53.8994
53.9031
53.9061
53.9098
53.9127
53.9163
53.9191
53.9226
53.9253
53.9286
53.9313
53.9342
53.9376
53.9399
52.5186
52.5344
52.5495
52.5527
52.5585
52.5685
52.5787
52.5876
52.596
52.6059
52.6164
52.6264
52.6351
52.6442
52.6544
52.6654
52.6753
52.6841
52.6934
52.7033
52.7135
52.7236
52.7331
52.7426
52.7523
52.7621
52.7718
52.7815
52.7912
52.8009
52.8106
52.8203
52.8299
52.8395
52.8493
52.859
52.8683
52.8777
52.8873
52.8969
52.9064
52.9159
52.9254
52.9349
52.9444
52.9538
52.9633
52.9727
52.982
52.9914
53.0007
53.01
53.0192
53.0284
53.0376
53.0468
53.0559
53.0651
53.0742
53.0833
53.0924
53.1014
53.1104
53.1194
53.1283
53.1372
53.1461
53.1548
53.1636
53.1723
53.181
53.1896
53.1981
53.2066
53.215
53.2234
53.2317
53.24
53.2482
53.2564
53.2647
53.2729
53.281
53.2889
53.2967
53.3044
53.3123
53.321
53.3301
53.3372
53.3441
53.3517
53.3597
53.3676
53.3755
53.3832
53.3908
53.3986
53.4068
53.4149
53.4221
53.4288
53.436
53.4442
53.4528
53.4608
53.4667
53.4704
53.4739
53.4789
53.4864
53.4952
53.5051
53.5168
53.5276
53.5372
53.5458
53.5534
53.5597
53.5659
53.5723
53.5787
53.5851
53.5915
53.5978
53.6042
53.6105
53.6167
53.623
53.6291
53.6353
53.6414
53.6474
53.6533
53.6593
53.6651
53.6709
53.6767
53.6824
53.688
53.6936
53.6991
53.7046
53.7101
53.7154
53.7208
53.726
53.7313
53.7364
53.7416
53.7466
53.7517
53.7567
53.7616
53.7665
53.7713
53.7761
53.7809
53.7856
53.7903
53.7949
53.7995
53.804
53.8085
53.813
53.8174
53.8217
53.8261
53.8303
53.8346
53.8388
53.8429
53.847
53.8511
53.8551
53.8591
53.863
53.8669
53.8707
53.8746
53.8782
53.882
53.8855
53.8893
53.8926
53.8964
53.8995
53.9033
53.9063
53.9099
53.9128
53.9164
53.9192
53.9227
53.9254
53.9288
53.9314
53.9346
53.9376
53.9398
52.5021
52.5167
52.5261
52.5341
52.5421
52.5506
52.5591
52.5681
52.5776
52.587
52.5963
52.6059
52.6158
52.6258
52.6355
52.6452
52.655
52.6651
52.6751
52.685
52.6948
52.7046
52.7144
52.7243
52.7341
52.7439
52.7537
52.7635
52.7733
52.7831
52.7929
52.8027
52.8124
52.822
52.8316
52.8412
52.8508
52.8604
52.87
52.8796
52.8892
52.8988
52.9084
52.918
52.9275
52.9371
52.9466
52.9561
52.9656
52.975
52.9844
52.9937
53.003
53.0122
53.0214
53.0305
53.0396
53.0487
53.0578
53.0668
53.0759
53.0849
53.0939
53.1028
53.1116
53.1204
53.1292
53.1379
53.1465
53.1551
53.1636
53.1719
53.1802
53.1885
53.1967
53.2049
53.213
53.2209
53.229
53.2374
53.2464
53.2562
53.2662
53.2769
53.288
53.2985
53.3086
53.3183
53.3276
53.3366
53.345
53.3532
53.3612
53.369
53.3767
53.3844
53.3921
53.3998
53.4076
53.4153
53.4232
53.431
53.4388
53.4467
53.4545
53.4622
53.47
53.4778
53.4855
53.4932
53.5009
53.5084
53.5159
53.5232
53.5303
53.5374
53.5443
53.5512
53.558
53.5647
53.5714
53.578
53.5846
53.5911
53.5976
53.604
53.6104
53.6167
53.6229
53.6291
53.6352
53.6413
53.6474
53.6533
53.6593
53.6651
53.6709
53.6767
53.6824
53.688
53.6936
53.6991
53.7046
53.7101
53.7154
53.7208
53.726
53.7313
53.7364
53.7416
53.7466
53.7517
53.7567
53.7616
53.7665
53.7713
53.7761
53.7809
53.7856
53.7903
53.7949
53.7995
53.804
53.8085
53.813
53.8174
53.8217
53.8261
53.8303
53.8346
53.8388
53.8429
53.847
53.8511
53.8551
53.8591
53.863
53.8669
53.8707
53.8745
53.8783
53.8819
53.8856
53.8892
53.8927
53.8962
53.8997
53.9031
53.9065
53.9097
53.9132
53.9161
53.9195
53.9225
53.9255
53.9286
53.9316
53.9344
53.9373
53.9401
52.5207
52.5307
52.5402
52.5493
52.5582
52.5672
52.5763
52.5858
52.5954
52.605
52.6145
52.6241
52.6338
52.6436
52.6533
52.663
52.6728
52.6826
52.6925
52.7024
52.7122
52.722
52.7319
52.7418
52.7517
52.7615
52.7714
52.7812
52.791
52.8008
52.8106
52.8204
52.8301
52.8398
52.8494
52.859
52.8686
52.8782
52.8878
52.8974
52.9069
52.9164
52.9259
52.9354
52.9449
52.9543
52.9637
52.9731
52.9825
52.9918
53.0012
53.0105
53.0198
53.029
53.0383
53.0475
53.0566
53.0657
53.0748
53.0839
53.0929
53.1019
53.1108
53.1197
53.1286
53.1375
53.1463
53.1551
53.1638
53.1725
53.1812
53.1898
53.1984
53.207
53.2154
53.2239
53.2323
53.2407
53.2491
53.2574
53.2657
53.274
53.2823
53.2905
53.2985
53.3065
53.3146
53.3224
53.3298
53.3372
53.3452
53.3533
53.3611
53.3686
53.3762
53.3839
53.3914
53.3988
53.406
53.4132
53.4204
53.4276
53.4344
53.4405
53.446
53.4517
53.4583
53.4667
53.4758
53.4855
53.4964
53.5067
53.5162
53.525
53.5328
53.5393
53.5458
53.5523
53.5589
53.5654
53.5719
53.5784
53.5849
53.5913
53.5977
53.6041
53.6104
53.6167
53.623
53.6291
53.6353
53.6413
53.6474
53.6533
53.6593
53.6651
53.6709
53.6767
53.6824
53.688
53.6936
53.6991
53.7046
53.7101
53.7154
53.7208
53.726
53.7313
53.7364
53.7416
53.7466
53.7517
53.7567
53.7616
53.7665
53.7713
53.7761
53.7809
53.7856
53.7903
53.7949
53.7995
53.804
53.8085
53.813
53.8174
53.8217
53.8261
53.8303
53.8346
53.8388
53.8429
53.847
53.8511
53.8551
53.8591
53.863
53.8668
53.8707
53.8744
53.8783
53.8818
53.8857
53.889
53.8929
53.8961
53.8998
53.9029
53.9066
53.9096
53.9132
53.9161
53.9196
53.9223
53.9258
53.9284
53.9317
53.9343
53.9374
53.94
52.5175
52.5288
52.5381
52.5466
52.5552
52.564
52.5729
52.582
52.5912
52.6004
52.6096
52.6189
52.6283
52.6377
52.6471
52.6565
52.6659
52.6755
52.6852
52.6949
52.7046
52.7144
52.7241
52.7339
52.7437
52.7535
52.7632
52.773
52.7827
52.7925
52.8022
52.8119
52.8215
52.8311
52.8407
52.8503
52.8599
52.8695
52.879
52.8886
52.8981
52.9076
52.9171
52.9266
52.9361
52.9456
52.955
52.9645
52.9739
52.9832
52.9926
53.0019
53.0112
53.0204
53.0296
53.0388
53.0479
53.0571
53.0662
53.0753
53.0843
53.0934
53.1024
53.1113
53.1203
53.1292
53.138
53.1469
53.1556
53.1644
53.1731
53.1818
53.1904
53.199
53.2075
53.216
53.2244
53.2328
53.2411
53.2493
53.2576
53.2658
53.2739
53.282
53.2901
53.2982
53.3063
53.3144
53.3221
53.3296
53.3373
53.3454
53.3538
53.3617
53.3687
53.3755
53.3833
53.3922
53.401
53.4082
53.4114
53.4146
53.4207
53.4294
53.4391
53.4508
53.4626
53.4731
53.4829
53.4921
53.5007
53.5085
53.5158
53.5231
53.5303
53.5373
53.5442
53.5511
53.5579
53.5646
53.5713
53.5779
53.5845
53.591
53.5975
53.6039
53.6102
53.6165
53.6228
53.629
53.6351
53.6412
53.6472
53.6532
53.6591
53.665
53.6708
53.6765
53.6822
53.6879
53.6935
53.699
53.7045
53.7099
53.7153
53.7206
53.7259
53.7311
53.7363
53.7414
53.7465
53.7515
53.7565
53.7615
53.7664
53.7712
53.776
53.7808
53.7855
53.7901
53.7948
53.7994
53.8039
53.8084
53.8128
53.8172
53.8216
53.8259
53.8302
53.8344
53.8386
53.8428
53.8469
53.8509
53.855
53.8589
53.8629
53.8667
53.8706
53.8743
53.8782
53.8817
53.8855
53.8889
53.8927
53.8959
53.8997
53.9028
53.9065
53.9094
53.9131
53.9159
53.9194
53.9223
53.9254
53.9287
53.9312
53.9345
53.9372
53.9398
53.9415
53.9419
53.9424
53.9429
53.9435
53.944
53.9446
53.9451
53.9457
53.9462
53.9467
53.9472
53.9477
53.9482
53.9487
53.9493
53.9498
53.9503
53.9507
53.9512
53.9419
53.9425
53.9431
53.9437
53.9442
53.9448
53.9453
53.9459
53.9464
53.947
53.9474
53.9479
53.9484
53.9488
53.9491
53.9496
53.95
53.9505
53.9508
53.9509
53.9418
53.9425
53.9431
53.9437
53.9443
53.9449
53.9453
53.9457
53.9462
53.9464
53.9467
53.9471
53.9475
53.9475
53.9475
53.9479
53.948
53.948
53.9475
53.9474
53.9416
53.9424
53.9431
53.9438
53.9444
53.9448
53.9453
53.9459
53.9469
53.9483
53.9494
53.9496
53.949
53.949
53.9493
53.949
53.9493
53.9502
53.9515
53.9527
53.9415
53.9423
53.943
53.9437
53.9442
53.9447
53.9453
53.946
53.9469
53.9482
53.9494
53.9499
53.9497
53.9494
53.9489
53.9482
53.9486
53.9497
53.9513
53.9535
53.9526
53.955
53.9569
53.9583
53.9595
53.9608
53.9624
53.9637
53.9645
53.9654
53.9671
53.9687
53.9693
53.9697
53.9714
53.9735
53.9749
53.9751
53.9752
53.977
53.9795
53.9807
53.9806
53.9798
53.9803
53.983
53.9859
53.9875
53.9879
53.9872
53.9876
53.9895
53.9914
53.9929
53.9942
53.9955
53.9967
53.9979
53.9991
54.0002
54.0014
54.0025
54.0036
54.0046
54.0057
54.0067
54.0077
54.0086
54.0095
54.0104
54.0112
54.012
54.0128
54.0135
54.0142
54.0148
54.0155
54.0161
54.0167
54.0174
54.018
54.0186
54.0192
54.0198
54.0203
54.0209
54.0214
54.022
54.0227
54.0235
54.0243
54.0243
54.0241
54.0241
54.0249
54.0257
54.0262
54.0267
54.0272
54.0278
54.0283
54.0286
54.029
54.0297
54.0306
54.0312
54.0307
54.0308
54.0319
54.0335
54.0335
54.0275
54.0231
54.0237
54.0278
54.0354
54.0405
54.043
54.0441
54.0461
53.9513
53.9524
53.9532
53.9542
53.956
53.9578
53.9594
53.96
53.961
53.9629
53.9653
53.9669
53.9677
53.9693
53.9718
53.9742
53.9751
53.9764
53.9776
53.9802
53.9829
53.9834
53.9838
53.9839
53.9854
53.9886
53.9916
53.9925
53.9934
53.9932
53.9942
53.9965
53.9986
54.0001
54.0015
54.0029
54.0042
54.0055
54.0067
54.008
54.0092
54.0104
54.0115
54.0127
54.0138
54.0148
54.0158
54.0168
54.0177
54.0186
54.0195
54.0203
54.021
54.0218
54.0225
54.0232
54.0238
54.0244
54.025
54.0256
54.0262
54.0267
54.0273
54.0278
54.0283
54.0288
54.0293
54.0299
54.0305
54.0314
54.032
54.0321
54.0319
54.0319
54.0327
54.0336
54.0342
54.0345
54.035
54.0356
54.0361
54.0364
54.0367
54.0373
54.0379
54.0382
54.0384
54.0389
54.0392
54.0396
54.0399
54.0392
54.0386
54.0387
54.0381
54.0363
54.0354
54.0359
54.037
54.0401
53.9455
53.9448
53.9446
53.9444
53.9437
53.9434
53.9439
53.9445
53.9447
53.9455
53.9471
53.9488
53.9494
53.9505
53.953
53.9547
53.9574
53.9574
53.9585
53.9614
53.9633
53.9654
53.9661
53.9651
53.9682
53.971
53.9731
53.9756
53.976
53.9751
53.9778
53.9806
53.9827
53.9845
53.9861
53.9875
53.9888
53.99
53.9912
53.9924
53.9936
53.9947
53.9958
53.9968
53.9977
53.9987
53.9996
54.0004
54.0012
54.002
54.0028
54.0035
54.0042
54.0049
54.0055
54.0061
54.0067
54.0071
54.0077
54.0082
54.0087
54.0091
54.0095
54.0098
54.0102
54.0105
54.0106
54.0107
54.0108
54.0113
54.0127
54.0129
54.0152
54.0192
54.0231
54.0263
54.029
54.0314
54.0333
54.0347
54.0355
54.0361
54.0367
54.037
54.0375
54.0378
54.0384
54.0389
54.0397
54.0404
54.0415
54.0422
54.0433
54.0442
54.045
54.0461
54.047
54.0479
54.049
54.0501
53.9542
53.9533
53.954
53.9544
53.9566
53.9584
53.959
53.9614
53.9634
53.965
53.9646
53.9677
53.9721
53.9754
53.9713
53.9743
53.9775
53.988
53.9884
53.9807
53.9831
53.9867
53.9922
54.0064
53.9945
53.9893
53.993
53.9968
54.006
54.0176
54.0042
53.9989
54.0005
54.0024
54.0037
54.0048
54.0059
54.007
54.0081
54.0092
54.0103
54.0113
54.0123
54.0132
54.0142
54.0151
54.016
54.0168
54.0177
54.0184
54.0192
54.0199
54.0206
54.0212
54.0219
54.0225
54.0232
54.0238
54.0244
54.0251
54.0257
54.0262
54.0268
54.0274
54.0279
54.0284
54.029
54.0294
54.0299
54.031
54.0331
54.0392
54.0394
54.0331
54.0321
54.0327
54.0332
54.0335
54.0338
54.0342
54.0347
54.0352
54.0357
54.036
54.0365
54.0372
54.0378
54.0383
54.039
54.0399
54.0409
54.0416
54.0413
54.0415
54.0424
54.0436
54.0447
54.0449
54.0414
54.0367
53.9568
53.9543
53.9545
53.9576
53.9632
53.9635
53.9614
53.9643
53.9719
53.9737
53.9698
53.9717
53.9807
53.9855
53.9781
53.9785
53.9828
53.9992
53.9995
53.9871
53.9864
53.9903
54.0015
54.0183
54.0042
53.9934
53.9952
54.0001
54.0147
54.0283
54.0122
54.002
54.0024
54.0039
54.0049
54.006
54.007
54.0081
54.0092
54.0103
54.0113
54.0123
54.0133
54.0143
54.0152
54.0161
54.017
54.0179
54.0187
54.0195
54.0202
54.021
54.0216
54.0223
54.023
54.0236
54.0243
54.0249
54.0255
54.026
54.0266
54.0272
54.0278
54.0283
54.0289
54.0293
54.0299
54.0304
54.031
54.0319
54.0337
54.0437
54.0444
54.0361
54.0337
54.0341
54.0344
54.0347
54.035
54.0354
54.0358
54.0362
54.0368
54.0374
54.038
54.0386
54.0391
54.0399
54.0408
54.0415
54.0421
54.043
54.0441
54.045
54.0455
54.045
54.0453
54.0462
54.0473
54.048
54.045
54.0453
54.0458
54.0465
54.0472
54.0479
54.0486
54.0493
54.05
54.0506
54.0511
54.0516
54.0522
54.0527
54.0531
54.0534
54.0537
54.0539
54.054
54.0541
54.0406
54.0413
54.042
54.0431
54.0442
54.0452
54.0463
54.0473
54.0482
54.0492
54.0502
54.0511
54.0521
54.053
54.0537
54.0539
54.0539
54.0539
54.0538
54.0535
54.0506
54.0506
54.0507
54.0509
54.0511
54.0514
54.0517
54.0519
54.0521
54.0522
54.0522
54.0521
54.0518
54.0517
54.0514
54.0512
54.0509
54.0508
54.0501
54.0491
54.0349
54.0341
54.0336
54.0335
54.0336
54.0339
54.0342
54.0348
54.0363
54.0382
54.0402
54.0422
54.0442
54.0461
54.0479
54.0498
54.0521
54.0537
54.0537
54.052
54.0472
54.046
54.0438
54.0415
54.0395
54.0379
54.0368
54.0361
54.0354
54.035
54.0354
54.0369
54.039
54.0416
54.0447
54.0478
54.0508
54.0535
54.0547
54.0545
54.0545
54.0546
54.0543
54.0537
54.0532
54.0529
54.0527
54.0519
54.0509
54.0504
54.0508
54.0506
54.0495
54.0479
54.0477
54.0487
54.0494
54.0486
54.0466
54.0447
54.0436
54.0445
54.0468
54.0478
54.0468
54.0448
54.0428
54.0413
54.0398
54.0406
54.0421
54.0428
54.0434
54.0439
54.0444
54.0448
54.0452
54.0456
54.0459
54.0463
54.0466
54.0469
54.0472
54.0475
54.0478
54.0482
54.0485
54.0488
54.0492
54.0495
54.0499
54.0504
54.051
54.0519
54.0537
54.0557
54.0562
54.0546
54.0517
54.0494
54.0509
54.0539
54.0544
54.0526
54.051
54.051
54.0521
54.053
54.0533
54.0537
54.0542
54.0545
54.0546
54.0547
54.0549
54.0554
54.0558
54.0556
54.0552
54.0559
54.0567
54.055
54.046
54.0428
54.0462
54.0554
54.0614
54.0648
54.0672
54.0695
54.0712
54.0722
54.0728
54.0732
54.0736
54.0738
54.0739
54.0741
54.0741
54.0742
54.0742
54.0742
54.0742
54.0741
54.0741
54.074
54.074
54.0739
54.0738
54.0737
54.0736
54.0735
54.0734
54.0733
54.0732
54.0731
54.073
54.0729
54.0729
54.0728
54.0727
54.0727
54.0726
54.0726
54.0725
54.0725
54.0725
54.0724
54.0724
54.0724
54.0723
54.0723
54.0722
54.0722
54.0721
54.0721
54.072
54.0719
54.0718
54.0718
54.0717
54.0715
54.0714
54.0713
54.0712
54.0711
54.071
54.0708
54.0707
54.0706
54.0705
54.0703
54.0702
54.0701
54.07
54.0699
54.0698
54.0697
54.0696
54.0696
54.0695
54.0695
54.0695
54.0695
54.0695
54.0695
54.0695
54.0696
54.0697
54.0697
54.0698
54.0699
54.07
54.0701
54.0703
54.0704
54.0705
54.0706
54.0708
54.0709
54.0711
54.0712
54.0714
54.0714
54.0717
54.0717
54.072
54.072
54.0723
54.0722
54.0725
54.0724
54.0728
54.0727
54.0728
54.0731
54.0729
54.0733
54.0733
54.0733
54.0533
54.0524
54.0502
54.0488
54.0486
54.0485
54.0476
54.0456
54.0456
54.0462
54.0468
54.0454
54.0445
54.0446
54.0465
54.048
54.0479
54.0454
54.0441
54.0439
54.0455
54.0476
54.0499
54.0491
54.0468
54.0452
54.0442
54.0452
54.0448
54.0463
54.0479
54.0485
54.049
54.0496
54.0501
54.0507
54.0513
54.0519
54.0525
54.053
54.0535
54.054
54.0545
54.0549
54.0553
54.0557
54.0561
54.0564
54.0568
54.0572
54.0577
54.0581
54.0587
54.0597
54.0613
54.0624
54.0613
54.0587
54.0568
54.0551
54.0575
54.0603
54.0602
54.0591
54.0579
54.0582
54.0597
54.0608
54.0614
54.0617
54.062
54.0622
54.0624
54.0625
54.0625
54.0627
54.0629
54.0629
54.0629
54.0629
54.0632
54.0631
54.0615
54.0603
54.0601
54.0589
54.0572
54.0566
54.0571
54.0591
54.0649
54.0704
54.0738
54.0751
54.0753
54.075
54.0748
54.0747
54.0746
54.0746
54.0745
54.0744
54.0744
54.0743
54.0742
54.0742
54.0741
54.074
54.0739
54.0738
54.0737
54.0736
54.0735
54.0734
54.0733
54.0732
54.0731
54.073
54.073
54.0729
54.0728
54.0728
54.0727
54.0727
54.0726
54.0726
54.0726
54.0725
54.0725
54.0725
54.0724
54.0724
54.0723
54.0723
54.0722
54.0722
54.0721
54.072
54.0719
54.0719
54.0718
54.0717
54.0715
54.0714
54.0713
54.0712
54.0711
54.0709
54.0708
54.0707
54.0706
54.0704
54.0703
54.0702
54.0701
54.07
54.0699
54.0698
54.0697
54.0697
54.0696
54.0696
54.0696
54.0696
54.0696
54.0696
54.0696
54.0697
54.0698
54.0698
54.0699
54.07
54.0701
54.0702
54.0704
54.0705
54.0706
54.0707
54.0709
54.071
54.0712
54.0713
54.0715
54.0715
54.0718
54.0718
54.0721
54.0721
54.0724
54.0723
54.0726
54.0725
54.0729
54.0728
54.0731
54.073
54.0733
54.0732
54.0734
54.0735
54.0467
54.0437
54.0411
54.0391
54.0363
54.0342
54.0324
54.0312
54.0292
54.0288
54.0283
54.028
54.0277
54.0268
54.0274
54.0281
54.0286
54.0285
54.0282
54.0278
54.0278
54.0287
54.0297
54.0306
54.0305
54.0302
54.0296
54.0277
54.0287
54.031
54.0327
54.0342
54.0353
54.036
54.0365
54.0369
54.0373
54.0376
54.0379
54.0382
54.0385
54.0387
54.039
54.0393
54.0395
54.0398
54.04
54.0402
54.0404
54.0406
54.0407
54.0409
54.0409
54.0405
54.04
54.0396
54.0382
54.0365
54.0352
54.0349
54.0366
54.0384
54.0416
54.0416
54.0442
54.0494
54.0531
54.0562
54.0587
54.0606
54.0615
54.0619
54.0621
54.0622
54.0623
54.0623
54.0624
54.0626
54.0629
54.0634
54.064
54.0646
54.0653
54.066
54.0667
54.0673
54.068
54.0686
54.0693
54.0701
54.0709
54.0717
54.0725
54.0732
54.0736
54.0739
54.0741
54.0742
54.0742
54.0743
54.0743
54.0743
54.0743
54.0742
54.0742
54.0741
54.0741
54.074
54.0739
54.0738
54.0737
54.0736
54.0735
54.0734
54.0733
54.0732
54.0731
54.073
54.073
54.0729
54.0728
54.0728
54.0727
54.0727
54.0726
54.0726
54.0726
54.0725
54.0725
54.0725
54.0724
54.0724
54.0723
54.0723
54.0722
54.0722
54.0721
54.072
54.0719
54.0719
54.0718
54.0717
54.0715
54.0714
54.0713
54.0712
54.0711
54.0709
54.0708
54.0707
54.0706
54.0704
54.0703
54.0702
54.0701
54.07
54.0699
54.0698
54.0697
54.0697
54.0696
54.0696
54.0696
54.0696
54.0696
54.0696
54.0696
54.0697
54.0698
54.0698
54.0699
54.07
54.0701
54.0702
54.0704
54.0705
54.0706
54.0707
54.0709
54.071
54.0712
54.0713
54.0715
54.0716
54.0718
54.0719
54.072
54.0721
54.0723
54.0723
54.0726
54.0726
54.0728
54.0729
54.0729
54.0731
54.0732
54.0732
54.0734
54.0734
54.0526
54.0513
54.0506
54.0475
54.047
54.0466
54.0472
54.0459
54.046
54.0443
54.0456
54.0459
54.0428
54.0501
54.0444
54.0456
54.0481
54.0439
54.0449
54.0557
54.0539
54.0446
54.0491
54.0507
54.0465
54.0497
54.0623
54.0729
54.0595
54.0492
54.0507
54.0528
54.0534
54.0537
54.0539
54.0541
54.0543
54.0546
54.0548
54.055
54.0552
54.0555
54.0557
54.056
54.0562
54.0565
54.0567
54.0569
54.0571
54.0573
54.0575
54.0576
54.0578
54.0581
54.0593
54.0619
54.0582
54.0577
54.0714
54.0716
54.056
54.0588
54.0617
54.0775
54.0768
54.0618
54.0594
54.0605
54.0609
54.061
54.061
54.0611
54.0612
54.0614
54.0615
54.0615
54.0618
54.0622
54.0625
54.063
54.0637
54.0644
54.0649
54.0644
54.0642
54.0647
54.0654
54.0659
54.0653
54.0605
54.0565
54.0558
54.0576
54.0646
54.0715
54.075
54.0758
54.0755
54.075
54.0748
54.0746
54.0745
54.0744
54.0743
54.0743
54.0742
54.0741
54.074
54.0739
54.0738
54.0737
54.0736
54.0735
54.0734
54.0733
54.0732
54.0731
54.073
54.073
54.0729
54.0728
54.0728
54.0727
54.0727
54.0726
54.0726
54.0726
54.0725
54.0725
54.0725
54.0724
54.0724
54.0723
54.0723
54.0722
54.0722
54.0721
54.072
54.0719
54.0719
54.0718
54.0717
54.0715
54.0714
54.0713
54.0712
54.0711
54.0709
54.0708
54.0707
54.0706
54.0704
54.0703
54.0702
54.0701
54.07
54.0699
54.0698
54.0697
54.0697
54.0696
54.0696
54.0696
54.0696
54.0696
54.0696
54.0696
54.0697
54.0698
54.0698
54.0699
54.07
54.0701
54.0702
54.0703
54.0705
54.0706
54.0708
54.0709
54.0711
54.0711
54.0714
54.0714
54.0717
54.0717
54.072
54.0719
54.0722
54.0722
54.0725
54.0724
54.0727
54.0727
54.073
54.0729
54.0732
54.0731
54.0732
54.0736
54.0733
54.0559
54.0536
54.0524
54.0522
54.0539
54.0514
54.0496
54.0513
54.0569
54.0533
54.05
54.0508
54.054
54.0629
54.0547
54.0495
54.0519
54.0535
54.057
54.0674
54.0645
54.0496
54.05
54.0554
54.0572
54.0609
54.0725
54.083
54.0678
54.0518
54.0519
54.0541
54.0547
54.055
54.0551
54.0552
54.0554
54.0557
54.0559
54.0561
54.0563
54.0565
54.0568
54.057
54.0572
54.0574
54.0577
54.0579
54.0581
54.0583
54.0584
54.0586
54.0587
54.0591
54.06
54.062
54.0646
54.0698
54.0834
54.0827
54.0616
54.0601
54.0671
54.0879
54.0866
54.0675
54.0617
54.0621
54.0623
54.0623
54.0622
54.0622
54.0622
54.0624
54.0626
54.0629
54.0632
54.0635
54.0639
54.0645
54.0649
54.0654
54.0661
54.0669
54.0675
54.0678
54.0672
54.0672
54.0678
54.0685
54.0681
54.0628
54.0579