/*--------------------------------*- C++ -*----------------------------------*\
| =========                 |                                                 |
| \\      /  F ield         | OpenFOAM: The Open Source CFD Toolbox           |
|  \\    /   O peration     | Version:  3.0.x                                 |
|   \\  /    A nd           | Web:      www.OpenFOAM.org                      |
|    \\/     M anipulation  |                                                 |
\*---------------------------------------------------------------------------*/
FoamFile
{
    version     2.0;
    format      ascii;
    class       volScalarField;
    location    "0.54";
    object      T;
}
// * * * * * * * * * * * * * * * * * * * * * * * * * * * * * * * * * * * * * //

dimensions      [0 0 0 1 0 0 0];

internalField   nonuniform List<scalar> 
13800
(
776.582
776.56
776.53
776.507
776.488
776.474
776.466
776.464
776.464
776.466
776.47
776.478
776.486
776.495
776.504
776.514
776.523
776.535
776.546
776.557
776.569
776.582
776.595
776.607
776.621
776.635
776.65
776.665
776.68
776.696
776.712
776.728
776.746
776.763
776.781
776.798
776.818
776.836
776.855
776.875
776.895
776.915
776.937
776.956
776.979
777.001
777.024
777.047
777.07
777.093
777.116
777.141
777.164
777.189
777.214
777.239
777.265
777.291
777.317
777.344
777.371
777.399
777.426
777.454
777.482
777.509
777.538
777.566
777.595
777.624
777.654
777.684
777.714
777.745
777.776
777.807
777.838
777.869
777.901
777.933
777.965
777.997
778.029
778.061
778.095
778.128
778.161
778.195
778.228
778.263
778.297
778.331
778.366
778.401
778.435
778.47
778.505
778.541
778.576
778.611
778.647
778.683
778.719
778.754
778.79
778.827
778.863
778.899
778.936
778.972
779.008
779.045
779.081
779.118
779.155
779.191
779.228
779.265
779.302
779.338
779.375
779.412
779.448
779.485
779.522
779.558
779.595
779.632
779.669
779.705
779.741
779.778
779.815
779.851
779.887
779.924
779.96
779.996
780.032
780.068
780.104
780.14
780.175
780.211
780.246
780.281
780.317
780.351
780.386
780.421
780.455
780.49
780.524
780.559
780.593
780.627
780.66
780.694
780.727
780.76
780.794
780.826
780.86
780.891
780.924
780.957
780.988
781.02
781.052
781.083
781.113
781.145
781.176
781.206
781.236
781.267
781.297
781.326
781.356
781.385
781.414
781.443
781.471
781.501
781.526
781.557
781.581
781.614
781.634
781.668
781.687
781.723
781.739
781.776
781.79
781.826
781.843
781.871
781.904
781.915
776.573
776.552
776.522
776.498
776.48
776.465
776.457
776.455
776.456
776.457
776.462
776.47
776.478
776.486
776.495
776.506
776.516
776.527
776.538
776.549
776.561
776.574
776.587
776.6
776.614
776.627
776.642
776.658
776.672
776.688
776.705
776.721
776.738
776.755
776.773
776.791
776.81
776.828
776.848
776.869
776.888
776.908
776.929
776.95
776.972
776.994
777.017
777.04
777.063
777.086
777.11
777.133
777.157
777.182
777.207
777.233
777.258
777.284
777.31
777.337
777.364
777.392
777.42
777.447
777.476
777.503
777.532
777.56
777.588
777.617
777.648
777.678
777.708
777.739
777.769
777.801
777.833
777.864
777.895
777.926
777.959
777.991
778.024
778.056
778.089
778.123
778.156
778.19
778.223
778.258
778.292
778.325
778.36
778.396
778.43
778.465
778.5
778.536
778.57
778.606
778.642
778.677
778.714
778.749
778.785
778.821
778.857
778.893
778.93
778.967
779.003
779.039
779.075
779.113
779.149
779.186
779.222
779.259
779.297
779.333
779.369
779.406
779.443
779.48
779.516
779.553
779.59
779.627
779.663
779.7
779.736
779.773
779.81
779.846
779.882
779.918
779.954
779.991
780.027
780.062
780.098
780.134
780.17
780.206
780.241
780.276
780.312
780.346
780.381
780.415
780.45
780.485
780.519
780.554
780.588
780.622
780.655
780.689
780.722
780.755
780.789
780.821
780.855
780.886
780.919
780.952
780.983
781.015
781.046
781.078
781.108
781.14
781.171
781.201
781.231
781.262
781.291
781.321
781.351
781.38
781.409
781.438
781.466
781.495
781.521
781.552
781.576
781.609
781.629
781.663
781.682
781.718
781.733
781.771
781.785
781.821
781.836
781.871
781.887
781.922
776.573
776.552
776.522
776.498
776.48
776.465
776.457
776.455
776.456
776.457
776.462
776.47
776.478
776.486
776.495
776.506
776.516
776.527
776.538
776.549
776.561
776.574
776.587
776.6
776.614
776.627
776.642
776.657
776.673
776.688
776.705
776.721
776.738
776.756
776.773
776.791
776.81
776.829
776.848
776.868
776.887
776.908
776.929
776.95
776.972
776.994
777.017
777.04
777.063
777.086
777.11
777.133
777.157
777.182
777.207
777.233
777.258
777.284
777.31
777.337
777.364
777.392
777.419
777.447
777.475
777.503
777.532
777.559
777.588
777.618
777.648
777.678
777.708
777.738
777.769
777.801
777.833
777.864
777.895
777.926
777.959
777.991
778.024
778.056
778.089
778.123
778.156
778.19
778.223
778.258
778.292
778.325
778.36
778.396
778.43
778.465
778.5
778.536
778.57
778.606
778.642
778.677
778.714
778.749
778.785
778.821
778.857
778.893
778.93
778.967
779.003
779.039
779.075
779.113
779.149
779.186
779.222
779.259
779.297
779.333
779.369
779.406
779.443
779.48
779.516
779.553
779.59
779.627
779.663
779.7
779.736
779.773
779.81
779.846
779.882
779.918
779.954
779.991
780.027
780.062
780.098
780.134
780.17
780.206
780.241
780.276
780.312
780.346
780.381
780.415
780.45
780.485
780.519
780.554
780.588
780.622
780.655
780.689
780.722
780.755
780.789
780.821
780.855
780.886
780.919
780.952
780.983
781.015
781.046
781.078
781.108
781.14
781.171
781.201
781.231
781.262
781.291
781.321
781.351
781.38
781.409
781.438
781.466
781.495
781.521
781.552
781.576
781.609
781.629
781.663
781.682
781.718
781.733
781.771
781.785
781.821
781.836
781.872
781.886
781.922
776.573
776.552
776.522
776.498
776.48
776.465
776.457
776.455
776.456
776.457
776.462
776.47
776.478
776.486
776.495
776.506
776.516
776.527
776.538
776.549
776.561
776.574
776.587
776.6
776.614
776.627
776.642
776.658
776.672
776.688
776.705
776.721
776.738
776.755
776.773
776.791
776.81
776.828
776.848
776.869
776.888
776.908
776.929
776.95
776.972
776.994
777.017
777.04
777.063
777.086
777.11
777.133
777.157
777.182
777.207
777.233
777.258
777.284
777.31
777.337
777.364
777.392
777.42
777.447
777.476
777.503
777.532
777.56
777.588
777.617
777.648
777.678
777.708
777.739
777.769
777.801
777.833
777.864
777.895
777.926
777.959
777.991
778.024
778.056
778.089
778.123
778.156
778.19
778.223
778.258
778.292
778.325
778.36
778.396
778.43
778.465
778.5
778.536
778.57
778.606
778.642
778.677
778.714
778.749
778.785
778.821
778.857
778.893
778.93
778.967
779.003
779.039
779.075
779.113
779.149
779.186
779.222
779.259
779.297
779.333
779.369
779.406
779.443
779.48
779.516
779.553
779.59
779.627
779.663
779.7
779.736
779.773
779.81
779.846
779.882
779.918
779.954
779.991
780.027
780.062
780.098
780.134
780.17
780.206
780.241
780.276
780.312
780.346
780.381
780.415
780.45
780.485
780.519
780.554
780.588
780.622
780.655
780.689
780.722
780.755
780.789
780.821
780.855
780.886
780.919
780.952
780.983
781.015
781.046
781.078
781.108
781.14
781.171
781.201
781.231
781.262
781.291
781.321
781.351
781.38
781.409
781.438
781.466
781.495
781.521
781.552
781.576
781.609
781.629
781.663
781.682
781.718
781.734
781.771
781.785
781.821
781.836
781.872
781.887
781.918
776.573
776.552
776.522
776.498
776.479
776.465
776.457
776.456
776.456
776.458
776.462
776.47
776.478
776.486
776.495
776.506
776.516
776.527
776.538
776.549
776.561
776.574
776.587
776.6
776.614
776.627
776.642
776.658
776.672
776.688
776.705
776.721
776.738
776.755
776.773
776.791
776.81
776.828
776.848
776.869
776.888
776.908
776.929
776.95
776.972
776.994
777.017
777.04
777.063
777.086
777.11
777.133
777.157
777.182
777.207
777.233
777.258
777.284
777.31
777.337
777.364
777.392
777.42
777.447
777.476
777.503
777.532
777.56
777.588
777.617
777.648
777.678
777.708
777.739
777.769
777.801
777.833
777.864
777.895
777.926
777.959
777.991
778.024
778.056
778.089
778.123
778.156
778.19
778.223
778.258
778.292
778.325
778.36
778.396
778.43
778.465
778.5
778.536
778.57
778.606
778.642
778.677
778.714
778.749
778.785
778.821
778.857
778.893
778.93
778.967
779.003
779.039
779.075
779.113
779.149
779.186
779.222
779.259
779.297
779.333
779.369
779.406
779.443
779.48
779.516
779.553
779.59
779.627
779.663
779.7
779.736
779.773
779.81
779.846
779.882
779.918
779.954
779.991
780.027
780.062
780.098
780.134
780.17
780.206
780.241
780.276
780.312
780.346
780.381
780.415
780.45
780.485
780.519
780.554
780.588
780.622
780.655
780.689
780.722
780.755
780.789
780.821
780.855
780.886
780.919
780.952
780.983
781.015
781.046
781.078
781.108
781.14
781.171
781.201
781.231
781.262
781.291
781.321
781.351
781.38
781.409
781.438
781.466
781.495
781.521
781.552
781.576
781.609
781.629
781.663
781.682
781.718
781.734
781.77
781.785
781.822
781.836
781.872
781.886
781.922
776.573
776.552
776.522
776.498
776.479
776.465
776.457
776.456
776.456
776.458
776.462
776.47
776.478
776.486
776.495
776.506
776.516
776.527
776.538
776.549
776.561
776.574
776.587
776.6
776.614
776.627
776.642
776.658
776.672
776.688
776.705
776.721
776.738
776.755
776.773
776.791
776.81
776.828
776.848
776.869
776.888
776.908
776.929
776.95
776.972
776.994
777.017
777.04
777.063
777.086
777.11
777.133
777.157
777.182
777.207
777.233
777.258
777.284
777.31
777.337
777.364
777.392
777.42
777.447
777.476
777.503
777.532
777.56
777.588
777.617
777.648
777.678
777.708
777.739
777.769
777.801
777.833
777.864
777.895
777.926
777.959
777.991
778.024
778.056
778.089
778.123
778.156
778.19
778.223
778.258
778.292
778.325
778.36
778.396
778.43
778.465
778.5
778.536
778.57
778.606
778.642
778.677
778.714
778.749
778.785
778.821
778.857
778.893
778.93
778.967
779.003
779.039
779.075
779.113
779.149
779.186
779.222
779.259
779.297
779.333
779.369
779.406
779.443
779.48
779.516
779.553
779.59
779.627
779.663
779.7
779.736
779.773
779.81
779.846
779.882
779.918
779.954
779.991
780.027
780.062
780.098
780.134
780.17
780.206
780.241
780.276
780.312
780.346
780.381
780.415
780.45
780.485
780.519
780.554
780.588
780.622
780.655
780.689
780.722
780.755
780.789
780.821
780.855
780.886
780.919
780.952
780.983
781.015
781.046
781.078
781.108
781.14
781.171
781.201
781.231
781.262
781.291
781.321
781.351
781.38
781.409
781.438
781.466
781.494
781.523
781.55
781.579
781.605
781.635
781.657
781.689
781.711
781.739
781.766
781.788
781.818
781.841
781.865
781.893
781.913
776.573
776.552
776.522
776.498
776.48
776.465
776.457
776.455
776.456
776.457
776.462
776.47
776.478
776.486
776.495
776.506
776.516
776.527
776.538
776.549
776.561
776.574
776.587
776.6
776.614
776.627
776.642
776.658
776.672
776.688
776.705
776.721
776.738
776.755
776.773
776.791
776.81
776.828
776.848
776.869
776.888
776.908
776.929
776.95
776.972
776.994
777.017
777.04
777.063
777.086
777.11
777.133
777.157
777.182
777.207
777.233
777.258
777.284
777.31
777.337
777.364
777.392
777.42
777.447
777.476
777.503
777.532
777.56
777.588
777.617
777.648
777.678
777.708
777.739
777.769
777.801
777.833
777.864
777.895
777.926
777.959
777.991
778.024
778.056
778.089
778.123
778.156
778.19
778.223
778.258
778.292
778.325
778.36
778.396
778.43
778.465
778.5
778.536
778.57
778.606
778.642
778.677
778.714
778.749
778.785
778.821
778.857
778.893
778.93
778.967
779.003
779.039
779.075
779.113
779.149
779.186
779.222
779.259
779.297
779.333
779.369
779.406
779.443
779.48
779.516
779.553
779.59
779.627
779.663
779.7
779.736
779.773
779.81
779.846
779.882
779.918
779.954
779.991
780.027
780.062
780.098
780.134
780.17
780.206
780.241
780.276
780.312
780.346
780.381
780.415
780.45
780.485
780.519
780.554
780.588
780.622
780.655
780.689
780.722
780.755
780.789
780.821
780.855
780.886
780.919
780.952
780.983
781.015
781.046
781.078
781.108
781.14
781.171
781.201
781.231
781.262
781.291
781.321
781.351
781.379
781.409
781.437
781.468
781.493
781.524
781.548
781.581
781.603
781.636
781.656
781.69
781.708
781.744
781.76
781.797
781.811
781.847
781.861
781.896
781.913
776.573
776.552
776.522
776.498
776.48
776.465
776.457
776.455
776.456
776.457
776.462
776.47
776.478
776.486
776.495
776.506
776.516
776.527
776.538
776.549
776.561
776.574
776.587
776.6
776.614
776.627
776.642
776.657
776.673
776.688
776.705
776.721
776.738
776.756
776.773
776.791
776.81
776.829
776.848
776.868
776.887
776.908
776.929
776.95
776.972
776.994
777.017
777.04
777.063
777.086
777.11
777.133
777.157
777.182
777.207
777.233
777.258
777.284
777.31
777.337
777.364
777.392
777.419
777.447
777.475
777.503
777.532
777.559
777.588
777.618
777.648
777.678
777.708
777.738
777.769
777.801
777.833
777.864
777.895
777.926
777.959
777.991
778.024
778.056
778.089
778.123
778.156
778.19
778.223
778.258
778.292
778.325
778.36
778.396
778.43
778.465
778.5
778.536
778.57
778.606
778.642
778.677
778.714
778.749
778.785
778.821
778.857
778.893
778.93
778.967
779.003
779.039
779.075
779.113
779.149
779.186
779.222
779.259
779.297
779.333
779.369
779.406
779.443
779.48
779.516
779.553
779.59
779.627
779.663
779.7
779.736
779.773
779.81
779.846
779.882
779.918
779.954
779.991
780.027
780.062
780.098
780.134
780.17
780.206
780.241
780.276
780.312
780.346
780.381
780.415
780.45
780.485
780.519
780.554
780.588
780.622
780.655
780.689
780.722
780.755
780.789
780.821
780.855
780.886
780.919
780.952
780.983
781.015
781.046
781.078
781.108
781.14
781.171
781.201
781.231
781.262
781.291
781.321
781.351
781.379
781.409
781.437
781.468
781.493
781.524
781.548
781.581
781.603
781.636
781.655
781.691
781.708
781.744
781.759
781.796
781.811
781.847
781.861
781.901
781.914
776.573
776.552
776.522
776.498
776.48
776.465
776.457
776.455
776.456
776.457
776.462
776.47
776.478
776.486
776.495
776.506
776.516
776.527
776.538
776.549
776.561
776.574
776.587
776.6
776.614
776.627
776.642
776.658
776.672
776.688
776.705
776.721
776.738
776.755
776.773
776.791
776.81
776.828
776.848
776.869
776.888
776.908
776.929
776.95
776.972
776.994
777.017
777.04
777.063
777.086
777.11
777.133
777.157
777.182
777.207
777.233
777.258
777.284
777.31
777.337
777.364
777.392
777.42
777.447
777.476
777.503
777.532
777.56
777.588
777.617
777.648
777.678
777.708
777.739
777.769
777.801
777.833
777.864
777.895
777.926
777.959
777.991
778.024
778.056
778.089
778.123
778.156
778.19
778.223
778.258
778.292
778.325
778.36
778.396
778.43
778.465
778.5
778.536
778.57
778.606
778.642
778.677
778.714
778.749
778.785
778.821
778.857
778.893
778.93
778.967
779.003
779.039
779.075
779.113
779.149
779.186
779.222
779.259
779.297
779.333
779.369
779.406
779.443
779.48
779.516
779.553
779.59
779.627
779.663
779.7
779.736
779.773
779.81
779.846
779.882
779.918
779.954
779.991
780.027
780.062
780.098
780.134
780.17
780.206
780.241
780.276
780.312
780.346
780.381
780.415
780.45
780.485
780.519
780.554
780.588
780.622
780.655
780.689
780.722
780.755
780.789
780.821
780.855
780.886
780.919
780.952
780.983
781.015
781.046
781.078
781.108
781.14
781.171
781.201
781.231
781.262
781.291
781.321
781.351
781.379
781.409
781.437
781.468
781.493
781.524
781.548
781.582
781.602
781.637
781.655
781.692
781.708
781.745
781.76
781.797
781.811
781.847
781.861
781.904
781.917
776.582
776.56
776.53
776.507
776.488
776.474
776.466
776.464
776.464
776.466
776.47
776.478
776.486
776.495
776.504
776.514
776.523
776.535
776.546
776.557
776.569
776.582
776.595
776.607
776.621
776.635
776.65
776.665
776.68
776.696
776.712
776.728
776.746
776.763
776.781
776.798
776.818
776.836
776.855
776.875
776.895
776.915
776.937
776.956
776.979
777.001
777.024
777.047
777.07
777.093
777.116
777.141
777.164
777.189
777.214
777.239
777.265
777.291
777.317
777.344
777.371
777.399
777.426
777.454
777.482
777.509
777.538
777.566
777.595
777.624
777.654
777.684
777.714
777.745
777.776
777.807
777.838
777.869
777.901
777.933
777.965
777.997
778.029
778.061
778.095
778.128
778.161
778.195
778.228
778.263
778.297
778.331
778.366
778.401
778.435
778.47
778.505
778.541
778.576
778.611
778.647
778.683
778.719
778.754
778.79
778.827
778.863
778.899
778.936
778.972
779.008
779.045
779.081
779.118
779.155
779.191
779.228
779.265
779.302
779.338
779.375
779.412
779.448
779.485
779.522
779.558
779.595
779.632
779.669
779.705
779.741
779.778
779.815
779.851
779.887
779.924
779.96
779.996
780.032
780.068
780.104
780.14
780.175
780.211
780.246
780.281
780.317
780.351
780.386
780.421
780.455
780.49
780.524
780.559
780.593
780.627
780.66
780.694
780.727
780.76
780.794
780.826
780.86
780.891
780.924
780.957
780.988
781.02
781.052
781.083
781.113
781.145
781.176
781.206
781.236
781.267
781.297
781.326
781.356
781.385
781.414
781.442
781.473
781.498
781.529
781.553
781.586
781.608
781.642
781.66
781.697
781.713
781.749
781.764
781.802
781.816
781.852
781.866
781.913
781.918
781.933
781.942
781.951
781.961
781.974
781.986
781.997
782.005
782.012
782.017
782.023
782.028
782.034
782.039
782.045
782.05
782.055
782.06
782.065
782.069
781.936
781.943
781.95
781.958
781.967
781.975
781.984
781.993
782.001
782.008
782.015
782.021
782.026
782.03
782.034
782.038
782.043
782.047
782.051
782.055
781.939
781.945
781.953
781.959
781.966
781.974
781.98
781.989
781.998
782.004
782.013
782.018
782.025
782.028
782.034
782.036
782.041
782.043
782.048
782.052
781.934
781.941
781.947
781.953
781.959
781.964
781.972
781.977
781.984
781.991
781.999
782.006
782.015
782.022
782.032
782.038
782.045
782.051
782.056
782.059
781.934
781.94
781.945
781.948
781.953
781.957
781.962
781.967
781.972
781.976
781.98
781.985
781.989
781.993
781.997
782.002
782.005
782.01
782.015
782.02
781.931
781.934
781.939
781.942
781.948
781.952
781.958
781.962
781.968
781.972
781.979
781.984
781.991
781.997
782.005
782.011
782.02
782.027
782.035
782.041
781.93
781.933
781.938
781.941
781.944
781.947
781.951
781.954
781.957
781.959
781.962
781.964
781.966
781.968
781.971
781.974
781.976
781.979
781.981
781.984
781.928
781.931
781.934
781.937
781.941
781.944
781.948
781.951
781.955
781.958
781.96
781.963
781.965
781.967
781.969
781.972
781.976
781.98
781.984
781.988
781.926
781.928
781.93
781.932
781.933
781.934
781.935
781.936
781.937
781.938
781.939
781.94
781.941
781.943
781.944
781.946
781.948
781.95
781.952
781.956
781.924
781.923
781.923
781.924
781.925
781.926
781.927
781.928
781.929
781.931
781.933
781.935
781.936
781.939
781.942
781.946
781.95
781.954
781.959
781.963
782.076
782.094
782.107
782.12
782.134
782.149
782.165
782.177
782.19
782.205
782.221
782.238
782.254
782.269
782.284
782.299
782.314
782.33
782.344
782.36
782.375
782.39
782.406
782.421
782.436
782.449
782.464
782.479
782.492
782.506
782.519
782.533
782.546
782.559
782.573
782.586
782.599
782.612
782.624
782.636
782.649
782.66
782.672
782.684
782.695
782.707
782.719
782.729
782.74
782.752
782.762
782.772
782.783
782.793
782.804
782.813
782.824
782.833
782.843
782.852
782.862
782.87
782.88
782.889
782.897
782.906
782.915
782.923
782.931
782.939
782.948
782.955
782.963
782.971
782.977
782.984
782.992
782.999
783.007
783.013
783.018
783.022
783.025
783.029
783.035
783.042
783.049
783.051
783.043
783.034
783.032
783.047
783.131
783.458
784.203
784.985
785.69
786.266
786.676
786.911
786.992
786.99
786.903
786.461
785.471
784.583
783.902
783.436
783.152
783
782.928
782.903
782.912
782.977
783.043
783.087
783.118
783.138
783.151
783.161
783.167
783.172
783.176
783.179
783.183
783.186
783.187
783.19
783.192
783.194
783.196
783.198
783.199
783.201
783.202
783.204
783.206
783.207
783.209
783.21
783.211
783.212
783.214
783.215
783.217
783.217
783.218
783.218
783.221
783.221
783.222
783.224
783.224
783.224
783.226
783.227
783.227
783.228
783.229
783.229
783.23
783.23
783.231
783.232
783.233
783.233
783.234
783.234
783.234
783.235
783.236
783.235
783.236
783.237
783.237
783.237
783.237
783.237
783.239
783.238
783.24
783.237
783.242
783.237
783.242
783.237
783.243
783.237
783.243
783.237
783.244
783.237
783.243
783.238
783.243
783.238
783.243
783.236
783.246
783.242
782.061
782.081
782.098
782.109
782.122
782.137
782.152
782.166
782.179
782.192
782.208
782.224
782.239
782.254
782.269
782.284
782.299
782.314
782.33
782.344
782.359
782.375
782.39
782.405
782.419
782.434
782.447
782.463
782.476
782.491
782.503
782.517
782.53
782.543
782.557
782.57
782.583
782.596
782.608
782.62
782.633
782.644
782.656
782.668
782.679
782.691
782.703
782.713
782.725
782.735
782.747
782.757
782.767
782.777
782.787
782.797
782.807
782.817
782.826
782.836
782.846
782.854
782.864
782.873
782.882
782.89
782.899
782.907
782.915
782.923
782.931
782.939
782.947
782.955
782.963
782.969
782.976
782.984
782.99
782.996
783.003
783.008
783.013
783.019
783.026
783.034
783.041
783.044
783.043
783.039
783.032
783.024
783.012
782.993
782.971
782.953
782.945
782.963
783.049
783.182
783.314
783.433
783.524
783.569
783.571
783.558
783.506
783.379
783.272
783.198
783.147
783.113
783.095
783.095
783.111
783.127
783.139
783.148
783.154
783.16
783.165
783.168
783.173
783.175
783.178
783.18
783.183
783.185
783.188
783.19
783.191
783.193
783.194
783.197
783.198
783.2
783.202
783.202
783.204
783.205
783.207
783.208
783.21
783.21
783.212
783.213
783.214
783.215
783.216
783.217
783.218
783.219
783.22
783.22
783.221
783.222
783.223
783.224
783.224
783.225
783.226
783.226
783.227
783.228
783.228
783.229
783.229
783.229
783.229
783.23
783.231
783.231
783.231
783.233
783.233
783.233
783.233
783.233
783.235
783.234
783.236
783.233
783.237
783.233
783.237
783.233
783.238
783.233
783.238
783.233
783.238
783.233
783.239
783.234
783.238
783.234
783.239
783.233
783.239
783.238
782.059
782.079
782.096
782.109
782.123
782.139
782.154
782.168
782.181
782.195
782.211
782.226
782.242
782.257
782.272
782.287
782.302
782.318
782.333
782.348
782.362
782.377
782.392
782.407
782.422
782.437
782.451
782.466
782.479
782.494
782.507
782.52
782.534
782.546
782.56
782.572
782.585
782.599
782.611
782.624
782.636
782.647
782.659
782.671
782.682
782.694
782.706
782.717
782.727
782.738
782.749
782.759
782.77
782.78
782.79
782.8
782.81
782.819
782.829
782.838
782.848
782.856
782.866
782.875
782.884
782.893
782.901
782.91
782.918
782.926
782.934
782.941
782.95
782.957
782.965
782.971
782.979
782.986
782.993
783
783.006
783.013
783.018
783.022
783.027
783.033
783.043
783.053
783.063
783.057
783.043
783.022
782.986
782.927
782.875
782.835
782.803
782.777
782.756
782.747
782.765
782.847
782.949
783.04
783.116
783.172
783.206
783.22
783.217
783.206
783.189
783.175
783.163
783.156
783.153
783.153
783.154
783.157
783.16
783.163
783.166
783.17
783.173
783.174
783.179
783.181
783.183
783.185
783.188
783.19
783.191
783.193
783.194
783.197
783.198
783.2
783.202
783.202
783.204
783.205
783.207
783.208
783.21
783.21
783.212
783.212
783.214
783.215
783.216
783.217
783.218
783.219
783.22
783.22
783.221
783.222
783.223
783.224
783.224
783.225
783.226
783.226
783.227
783.228
783.228
783.229
783.229
783.229
783.229
783.23
783.231
783.231
783.231
783.233
783.233
783.233
783.233
783.233
783.235
783.234
783.236
783.233
783.237
783.233
783.237
783.233
783.238
783.233
783.238
783.233
783.238
783.233
783.238
783.234
783.238
783.234
783.239
783.233
783.238
783.236
782.065
782.085
782.106
782.124
782.141
782.157
782.175
782.193
782.21
782.225
782.241
782.258
782.275
782.291
782.306
782.322
782.337
782.354
782.368
782.384
782.399
782.415
782.429
782.444
782.459
782.474
782.488
782.502
782.516
782.53
782.544
782.556
782.57
782.584
782.596
782.609
782.622
782.635
782.647
782.66
782.672
782.683
782.697
782.708
782.719
782.73
782.742
782.753
782.765
782.775
782.785
782.797
782.807
782.816
782.827
782.836
782.847
782.856
782.866
782.875
782.885
782.894
782.904
782.912
782.921
782.929
782.938
782.946
782.954
782.962
782.97
782.978
782.985
782.993
783
783.008
783.014
783.021
783.027
783.033
783.038
783.043
783.046
783.051
783.057
783.065
783.073
783.081
783.08
783.068
783.048
783.019
782.97
782.926
782.891
782.862
782.836
782.815
782.804
782.813
782.86
782.921
782.977
783.028
783.069
783.101
783.123
783.138
783.146
783.149
783.15
783.15
783.15
783.151
783.153
783.155
783.158
783.16
783.163
783.166
783.168
783.172
783.175
783.177
783.18
783.182
783.184
783.186
783.188
783.19
783.192
783.193
783.195
783.197
783.198
783.2
783.202
783.203
783.205
783.205
783.207
783.208
783.21
783.21
783.212
783.212
783.214
783.215
783.216
783.217
783.218
783.219
783.22
783.22
783.221
783.222
783.223
783.224
783.224
783.225
783.226
783.226
783.227
783.228
783.228
783.229
783.229
783.229
783.229
783.23
783.231
783.231
783.231
783.233
783.233
783.233
783.233
783.233
783.234
783.234
783.236
783.234
783.236
783.233
783.236
783.234
783.238
783.233
783.239
783.233
783.238
783.233
783.238
783.234
783.239
783.234
783.238
783.233
783.236
783.236
782.032
782.051
782.069
782.087
782.105
782.122
782.137
782.15
782.164
782.18
782.197
782.213
782.229
782.245
782.261
782.277
782.293
782.308
782.324
782.339
782.354
782.369
782.384
782.399
782.413
782.428
782.442
782.456
782.469
782.484
782.497
782.511
782.525
782.537
782.55
782.564
782.576
782.589
782.601
782.613
782.626
782.637
782.65
782.662
782.673
782.684
782.696
782.707
782.718
782.729
782.739
782.75
782.76
782.771
782.781
782.791
782.801
782.81
782.82
782.829
782.839
782.848
782.857
782.866
782.875
782.884
782.892
782.901
782.909
782.917
782.925
782.933
782.942
782.949
782.957
782.964
782.971
782.979
782.986
782.993
782.999
783.007
783.014
783.021
783.027
783.033
783.038
783.045
783.056
783.066
783.068
783.06
783.045
783.023
783.001
782.978
782.957
782.942
782.933
782.936
782.951
782.974
782.999
783.026
783.051
783.073
783.091
783.106
783.118
783.127
783.133
783.14
783.144
783.148
783.152
783.155
783.159
783.162
783.164
783.167
783.17
783.172
783.175
783.177
783.18
783.182
783.184
783.186
783.188
783.19
783.192
783.193
783.195
783.197
783.198
783.2
783.202
783.203
783.205
783.205
783.207
783.208
783.21
783.21
783.212
783.212
783.214
783.215
783.216
783.217
783.218
783.219
783.22
783.22
783.221
783.222
783.223
783.224
783.224
783.225
783.226
783.226
783.227
783.228
783.228
783.229
783.229
783.229
783.229
783.23
783.231
783.231
783.231
783.233
783.233
783.233
783.233
783.233
783.234
783.235
783.235
783.234
783.234
783.235
783.235
783.235
783.236
783.235
783.235
783.236
783.234
783.238
783.235
783.236
783.237
783.234
783.237
783.235
783.236
783.234
782.053
782.082
782.112
782.142
782.17
782.195
782.22
782.243
782.266
782.287
782.308
782.326
782.345
782.362
782.38
782.395
782.411
782.427
782.443
782.458
782.473
782.489
782.504
782.518
782.533
782.547
782.562
782.577
782.59
782.604
782.618
782.631
782.644
782.658
782.671
782.684
782.696
782.709
782.721
782.734
782.746
782.758
782.77
782.782
782.792
782.805
782.816
782.827
782.837
782.848
782.859
782.87
782.88
782.89
782.9
782.909
782.919
782.928
782.937
782.947
782.956
782.965
782.973
782.981
782.989
782.997
783.004
783.011
783.018
783.024
783.031
783.038
783.044
783.049
783.054
783.058
783.063
783.067
783.071
783.075
783.079
783.087
783.094
783.1
783.106
783.108
783.101
783.087
783.069
783.049
783.027
783.007
782.993
782.984
782.974
782.967
782.963
782.966
782.975
782.988
783.005
783.026
783.047
783.068
783.085
783.1
783.113
783.123
783.13
783.137
783.142
783.147
783.151
783.154
783.157
783.16
783.163
783.165
783.168
783.17
783.172
783.174
783.177
783.178
783.181
783.183
783.184
783.186
783.188
783.19
783.192
783.193
783.195
783.197
783.198
783.2
783.202
783.203
783.205
783.205
783.207
783.208
783.21
783.21
783.212
783.212
783.214
783.215
783.216
783.217
783.218
783.219
783.22
783.22
783.221
783.222
783.223
783.224
783.224
783.225
783.226
783.226
783.227
783.228
783.228
783.229
783.229
783.229
783.229
783.23
783.231
783.231
783.231
783.233
783.233
783.233
783.232
783.234
783.233
783.235
783.234
783.235
783.233
783.237
783.233
783.238
783.233
783.238
783.233
783.238
783.233
783.238
783.234
783.239
783.233
783.239
783.234
783.238
783.234
783.238
781.989
781.997
782.011
782.027
782.045
782.061
782.078
782.094
782.11
782.126
782.142
782.159
782.175
782.192
782.209
782.224
782.241
782.257
782.271
782.287
782.302
782.317
782.331
782.345
782.36
782.374
782.387
782.403
782.416
782.43
782.443
782.457
782.47
782.483
782.497
782.51
782.522
782.535
782.547
782.56
782.572
782.585
782.595
782.608
782.619
782.631
782.642
782.653
782.665
782.676
782.686
782.697
782.707
782.718
782.728
782.738
782.748
782.757
782.767
782.776
782.786
782.794
782.803
782.813
782.821
782.83
782.838
782.847
782.856
782.863
782.871
782.878
782.886
782.894
782.902
782.909
782.917
782.923
782.93
782.938
782.945
782.951
782.957
782.964
782.971
782.98
782.987
782.992
782.997
783.004
783.009
783.016
783.027
783.044
783.058
783.063
783.059
783.049
783.032
783.008
782.985
782.971
782.972
782.995
783.023
783.051
783.075
783.096
783.112
783.125
783.133
783.141
783.147
783.153
783.156
783.16
783.163
783.165
783.167
783.171
783.172
783.174
783.177
783.179
783.181
783.183
783.184
783.187
783.188
783.19
783.192
783.193
783.195
783.197
783.198
783.2
783.202
783.203
783.205
783.205
783.207
783.208
783.21
783.21
783.212
783.212
783.214
783.215
783.216
783.217
783.218
783.219
783.22
783.22
783.221
783.222
783.223
783.224
783.224
783.225
783.226
783.226
783.227
783.228
783.228
783.229
783.229
783.229
783.229
783.23
783.231
783.231
783.231
783.233
783.233
783.233
783.232
783.234
783.233
783.235
783.234
783.235
783.233
783.237
783.233
783.238
783.233
783.238
783.233
783.238
783.233
783.238
783.234
783.239
783.233
783.238
783.234
783.236
783.237
783.236
781.997
782.023
782.056
782.088
782.121
782.152
782.182
782.211
782.24
782.267
782.292
782.315
782.336
782.356
782.373
782.39
782.407
782.423
782.439
782.454
782.469
782.484
782.499
782.513
782.528
782.542
782.557
782.571
782.585
782.6
782.614
782.627
782.64
782.653
782.665
782.679
782.692
782.704
782.716
782.728
782.74
782.752
782.764
782.775
782.785
782.796
782.808
782.819
782.83
782.84
782.851
782.86
782.871
782.881
782.89
782.901
782.91
782.92
782.93
782.94
782.95
782.959
782.968
782.977
782.985
782.993
783.001
783.009
783.017
783.022
783.028
783.034
783.04
783.045
783.049
783.054
783.058
783.064
783.071
783.078
783.085
783.091
783.099
783.107
783.115
783.122
783.127
783.127
783.122
783.11
783.094
783.077
783.058
783.04
783.026
783.012
783