/*--------------------------------*- C++ -*----------------------------------*\
| =========                 |                                                 |
| \\      /  F ield         | OpenFOAM: The Open Source CFD Toolbox           |
|  \\    /   O peration     | Version:  3.0.x                                 |
|   \\  /    A nd           | Web:      www.OpenFOAM.org                      |
|    \\/     M anipulation  |                                                 |
\*---------------------------------------------------------------------------*/
FoamFile
{
    version     2.0;
    format      ascii;
    class       volVectorField;
    location    "0.16";
    object      U;
}
// * * * * * * * * * * * * * * * * * * * * * * * * * * * * * * * * * * * * * //

dimensions      [0 1 -1 0 0 0 0];

internalField   nonuniform List<vector> 
27600
(
(42.6986 0.000129702 0)
(42.6981 0.000119221 0)
(42.6981 0.000117578 0)
(42.6978 0.000120403 0)
(42.6974 0.000122834 0)
(42.6969 0.000124714 0)
(42.6964 0.000126326 0)
(42.696 0.0001277 0)
(42.6955 0.000128861 0)
(42.695 0.000129855 0)
(42.6945 0.000130704 0)
(42.694 0.000131431 0)
(42.6935 0.000132067 0)
(42.693 0.000132616 0)
(42.6925 0.000133086 0)
(42.692 0.000133498 0)
(42.6914 0.000133858 0)
(42.6909 0.000134172 0)
(42.6903 0.000134447 0)
(42.6898 0.000134688 0)
(42.6892 0.0001349 0)
(42.6886 0.000135086 0)
(42.688 0.000135251 0)
(42.6874 0.000135396 0)
(42.6868 0.000135525 0)
(42.6861 0.000135639 0)
(42.6854 0.000135739 0)
(42.6847 0.000135828 0)
(42.6839 0.000135891 0)
(42.6832 0.000135983 0)
(42.6823 0.000136016 0)
(42.6815 0.00013604 0)
(42.6806 0.000136047 0)
(42.6797 0.00013601 0)
(42.6787 0.000135915 0)
(42.6776 0.00013575 0)
(42.6765 0.000135485 0)
(42.6753 0.000135085 0)
(42.6741 0.000134511 0)
(42.6728 0.000133714 0)
(42.6715 0.000132641 0)
(42.6701 0.000131235 0)
(42.6686 0.000129435 0)
(42.6671 0.000127186 0)
(42.6655 0.000124434 0)
(42.6639 0.00012114 0)
(42.6622 0.000117278 0)
(42.6605 0.000112834 0)
(42.6588 0.000107823 0)
(42.657 0.000102279 0)
(42.6552 9.6259e-05 0)
(42.6534 8.9837e-05 0)
(42.6516 8.3108e-05 0)
(42.6497 7.61778e-05 0)
(42.6478 6.91623e-05 0)
(42.6459 6.21778e-05 0)
(42.6441 5.53368e-05 0)
(42.6421 4.87431e-05 0)
(42.6402 4.24875e-05 0)
(42.6382 3.66431e-05 0)
(42.6362 3.12666e-05 0)
(42.6342 2.63923e-05 0)
(42.6321 2.2038e-05 0)
(42.63 1.82042e-05 0)
(42.6279 1.48758e-05 0)
(42.6257 1.20262e-05 0)
(42.6234 9.6196e-06 0)
(42.6211 7.6142e-06 0)
(42.6187 5.96502e-06 0)
(42.6162 4.62625e-06 0)
(42.6137 3.55318e-06 0)
(42.6112 2.70374e-06 0)
(42.6086 2.03945e-06 0)
(42.6059 1.52609e-06 0)
(42.6032 1.1339e-06 0)
(42.6005 8.37596e-07 0)
(42.5978 6.16077e-07 0)
(42.595 4.52131e-07 0)
(42.5922 3.318e-07 0)
(42.5893 2.44205e-07 0)
(42.5865 1.80831e-07 0)
(42.5837 1.35148e-07 0)
(42.5809 1.02256e-07 0)
(42.5781 7.85048e-08 0)
(42.5753 6.13587e-08 0)
(42.5725 5.06244e-08 0)
(42.5698 4.07842e-08 0)
(42.5671 2.80788e-08 0)
(42.5645 2.32552e-08 0)
(42.5619 1.80981e-08 0)
(42.5593 1.21524e-08 0)
(42.5569 5.5178e-09 0)
(42.5545 -3.43206e-11 0)
(42.5522 -3.97367e-09 0)
(42.5499 -7.43726e-09 0)
(42.5478 -1.08032e-08 0)
(42.5457 -1.40201e-08 0)
(42.5437 -1.70339e-08 0)
(42.5418 -1.99358e-08 0)
(42.5401 -2.28269e-08 0)
(42.5384 -2.5464e-08 0)
(42.5368 -2.79553e-08 0)
(42.5353 -3.03686e-08 0)
(42.5339 -3.26756e-08 0)
(42.5326 -3.47122e-08 0)
(42.5315 -3.65681e-08 0)
(42.5304 -3.84098e-08 0)
(42.5295 -4.00192e-08 0)
(42.5286 -4.14053e-08 0)
(42.5278 -4.26369e-08 0)
(42.5272 -4.37953e-08 0)
(42.5266 -4.46694e-08 0)
(42.5262 -4.53587e-08 0)
(42.5258 -4.60082e-08 0)
(42.5255 -4.63347e-08 0)
(42.5254 -4.65323e-08 0)
(42.5253 -4.6649e-08 0)
(42.5252 -4.64152e-08 0)
(42.5253 -4.62429e-08 0)
(42.5254 -4.57235e-08 0)
(42.5256 -4.51003e-08 0)
(42.5259 -4.43786e-08 0)
(42.5262 -4.33948e-08 0)
(42.5266 -4.24168e-08 0)
(42.527 -4.11246e-08 0)
(42.5275 -3.98742e-08 0)
(42.528 -3.83573e-08 0)
(42.5286 -3.68295e-08 0)
(42.5291 -3.5094e-08 0)
(42.5298 -3.33107e-08 0)
(42.5304 -3.1437e-08 0)
(42.5311 -2.94094e-08 0)
(42.5318 -2.73858e-08 0)
(42.5325 -2.52204e-08 0)
(42.5332 -2.3005e-08 0)
(42.5339 -2.07658e-08 0)
(42.5346 -1.84209e-08 0)
(42.5353 -1.60581e-08 0)
(42.536 -1.36855e-08 0)
(42.5367 -1.1271e-08 0)
(42.5374 -8.83315e-09 0)
(42.5381 -6.40415e-09 0)
(42.5388 -3.99763e-09 0)
(42.5394 -1.64488e-09 0)
(42.5401 5.70672e-10 0)
(42.5407 2.41625e-09 0)
(42.5413 4.93549e-09 0)
(42.5419 7.52444e-09 0)
(42.5425 1.02411e-08 0)
(42.543 1.30655e-08 0)
(42.5435 1.59273e-08 0)
(42.544 1.87909e-08 0)
(42.5445 2.16256e-08 0)
(42.545 2.44094e-08 0)
(42.5454 2.7128e-08 0)
(42.5458 2.97548e-08 0)
(42.5462 3.22999e-08 0)
(42.5465 3.47672e-08 0)
(42.5469 3.71688e-08 0)
(42.5472 3.94864e-08 0)
(42.5475 4.17166e-08 0)
(42.5478 4.38616e-08 0)
(42.548 4.59291e-08 0)
(42.5483 4.79298e-08 0)
(42.5485 4.98601e-08 0)
(42.5487 5.17028e-08 0)
(42.5489 5.34611e-08 0)
(42.5491 5.51512e-08 0)
(42.5493 5.67733e-08 0)
(42.5494 5.83357e-08 0)
(42.5496 5.98295e-08 0)
(42.5497 6.12438e-08 0)
(42.5498 6.25926e-08 0)
(42.5499 6.38891e-08 0)
(42.55 6.51296e-08 0)
(42.5501 6.63099e-08 0)
(42.5502 6.74207e-08 0)
(42.5503 6.84837e-08 0)
(42.5504 6.95069e-08 0)
(42.5505 7.04915e-08 0)
(42.5506 7.14225e-08 0)
(42.5507 7.22887e-08 0)
(42.5508 7.30967e-08 0)
(42.5509 7.38472e-08 0)
(42.551 7.45501e-08 0)
(42.551 7.5201e-08 0)
(42.5511 7.58195e-08 0)
(42.5512 7.64015e-08 0)
(42.5513 7.6974e-08 0)
(42.5514 7.75367e-08 0)
(42.5515 7.80866e-08 0)
(42.5516 7.8615e-08 0)
(42.5517 7.91035e-08 0)
(42.5519 7.95593e-08 0)
(42.552 7.99833e-08 0)
(42.5521 8.03817e-08 0)
(42.5522 8.07483e-08 0)
(42.5524 8.10993e-08 0)
(42.5525 8.14192e-08 0)
(42.5526 8.17268e-08 0)
(42.5528 8.20251e-08 0)
(42.5529 8.23104e-08 0)
(42.5531 8.25814e-08 0)
(42.5533 8.28401e-08 0)
(42.5534 8.30901e-08 0)
(42.5536 8.33246e-08 0)
(42.5538 8.35535e-08 0)
(42.5539 8.37747e-08 0)
(42.5541 8.39837e-08 0)
(42.5543 8.41818e-08 0)
(42.5545 8.43729e-08 0)
(42.5547 8.45581e-08 0)
(42.5549 8.47388e-08 0)
(42.5551 8.49129e-08 0)
(42.5553 8.50851e-08 0)
(42.5555 8.52468e-08 0)
(42.5557 8.54141e-08 0)
(42.5559 8.55718e-08 0)
(42.5561 8.57171e-08 0)
(42.5563 8.58828e-08 0)
(42.5566 8.60407e-08 0)
(42.5568 8.62024e-08 0)
(42.557 8.63603e-08 0)
(42.5572 8.65275e-08 0)
(42.5574 8.66902e-08 0)
(42.5576 8.68632e-08 0)
(42.5579 8.70335e-08 0)
(42.5581 8.72151e-08 0)
(42.5583 8.7396e-08 0)
(42.5585 8.759e-08 0)
(42.5587 8.78022e-08 0)
(42.559 8.80173e-08 0)
(42.5592 8.82487e-08 0)
(42.5594 8.8494e-08 0)
(42.5596 8.87573e-08 0)
(42.5598 8.90378e-08 0)
(42.56 8.93261e-08 0)
(42.5602 8.96266e-08 0)
(42.5605 8.99419e-08 0)
(42.5607 9.02595e-08 0)
(42.5609 9.05843e-08 0)
(42.5611 9.09055e-08 0)
(42.5613 9.12338e-08 0)
(42.5615 9.1555e-08 0)
(42.5617 9.18722e-08 0)
(42.5619 9.21864e-08 0)
(42.5621 9.24931e-08 0)
(42.5623 9.27925e-08 0)
(42.5625 9.30906e-08 0)
(42.5627 9.33701e-08 0)
(42.5629 9.36353e-08 0)
(42.5631 9.38986e-08 0)
(42.5632 9.41568e-08 0)
(42.5634 9.43535e-08 0)
(42.5636 9.4585e-08 0)
(42.5638 9.47887e-08 0)
(42.564 9.49846e-08 0)
(42.5642 9.52184e-08 0)
(42.5643 9.52419e-08 0)
(42.5645 9.54167e-08 0)
(42.5647 9.5364e-08 0)
(42.5649 9.54594e-08 0)
(42.565 9.57962e-08 0)
(42.5652 9.58598e-08 0)
(42.5654 9.59953e-08 0)
(42.5655 9.59398e-08 0)
(42.5657 9.58016e-08 0)
(42.5659 9.59047e-08 0)
(42.566 9.59028e-08 0)
(42.5662 9.59515e-08 0)
(42.5664 9.6048e-08 0)
(42.5665 9.61568e-08 0)
(42.5667 9.62631e-08 0)
(42.5669 9.63643e-08 0)
(42.567 9.64425e-08 0)
(42.5672 9.6513e-08 0)
(42.5673 9.65775e-08 0)
(42.5675 9.66542e-08 0)
(42.5677 9.6734e-08 0)
(42.5678 9.68182e-08 0)
(42.568 9.69096e-08 0)
(42.5681 9.70134e-08 0)
(42.5683 9.71133e-08 0)
(42.5684 9.72127e-08 0)
(42.5686 9.73065e-08 0)
(42.5688 9.74045e-08 0)
(42.5689 9.75132e-08 0)
(42.5691 9.76178e-08 0)
(42.5692 9.77031e-08 0)
(42.5694 9.77762e-08 0)
(42.5695 9.78595e-08 0)
(42.5696 9.79486e-08 0)
(42.5698 9.80368e-08 0)
(42.5699 9.81291e-08 0)
(42.5701 9.82161e-08 0)
(42.5702 9.83069e-08 0)
(42.5703 9.83941e-08 0)
(42.5705 9.84852e-08 0)
(42.5706 9.85755e-08 0)
(42.5707 9.86703e-08 0)
(42.5708 9.87642e-08 0)
(42.571 9.88638e-08 0)
(42.5711 9.89587e-08 0)
(42.5712 9.9062e-08 0)
(42.5713 9.91622e-08 0)
(42.5714 9.92688e-08 0)
(42.5715 9.93881e-08 0)
(42.5715 9.95131e-08 0)
(42.5716 9.96313e-08 0)
(42.5717 9.97687e-08 0)
(42.5717 9.99101e-08 0)
(42.5718 1.00053e-07 0)
(42.5718 1.00208e-07 0)
(42.5718 1.00372e-07 0)
(42.5718 1.00547e-07 0)
(42.5718 1.00737e-07 0)
(42.5718 1.00929e-07 0)
(42.5718 1.01157e-07 0)
(42.5718 1.01401e-07 0)
(42.5717 1.01664e-07 0)
(42.5716 1.01947e-07 0)
(42.5715 1.02258e-07 0)
(42.5714 1.02592e-07 0)
(42.5713 1.02947e-07 0)
(42.5712 1.03332e-07 0)
(42.571 1.03733e-07 0)
(42.5708 1.04156e-07 0)
(42.5706 1.04603e-07 0)
(42.5703 1.05075e-07 0)
(42.5701 1.05568e-07 0)
(42.5698 1.06089e-07 0)
(42.5695 1.06626e-07 0)
(42.5691 1.07187e-07 0)
(42.5687 1.07777e-07 0)
(42.5683 1.08386e-07 0)
(42.5679 1.09018e-07 0)
(42.5674 1.0968e-07 0)
(42.5669 1.10361e-07 0)
(42.5663 1.11072e-07 0)
(42.5657 1.11799e-07 0)
(42.5651 1.12561e-07 0)
(42.5645 1.13345e-07 0)
(42.5638 1.14158e-07 0)
(42.563 1.14985e-07 0)
(42.5622 1.15848e-07 0)
(42.5614 1.16734e-07 0)
(42.5606 1.17643e-07 0)
(42.5597 1.18585e-07 0)
(42.5587 1.19552e-07 0)
(42.5577 1.20548e-07 0)
(42.5567 1.21578e-07 0)
(42.5556 1.22639e-07 0)
(42.5545 1.23728e-07 0)
(42.5533 1.24844e-07 0)
(42.5521 1.25981e-07 0)
(42.5508 1.27144e-07 0)
(42.5495 1.28333e-07 0)
(42.5482 1.29539e-07 0)
(42.5468 1.3076e-07 0)
(42.5454 1.31995e-07 0)
(42.5439 1.33233e-07 0)
(42.5424 1.34483e-07 0)
(42.5409 1.35734e-07 0)
(42.5393 1.36987e-07 0)
(42.5377 1.3823e-07 0)
(42.5361 1.39462e-07 0)
(42.5344 1.40668e-07 0)
(42.5328 1.41861e-07 0)
(42.5311 1.43031e-07 0)
(42.5294 1.44174e-07 0)
(42.5276 1.45285e-07 0)
(42.5259 1.46349e-07 0)
(42.5242 1.47374e-07 0)
(42.5224 1.4835e-07 0)
(42.5207 1.49272e-07 0)
(42.519 1.50168e-07 0)
(42.5172 1.51082e-07 0)
(42.5156 1.52117e-07 0)
(42.5139 1.53556e-07 0)
(42.5122 1.56076e-07 0)
(42.5106 1.61294e-07 0)
(42.509 1.7308e-07 0)
(42.5075 2.0088e-07 0)
(42.506 2.67589e-07 0)
(42.5046 4.28396e-07 0)
(42.5032 8.15382e-07 0)
(42.5018 1.7442e-06 0)
(42.5005 3.96872e-06 0)
(42.4992 9.29049e-06 0)
(42.4977 2.20159e-05 0)
(42.4958 5.243e-05 0)
(42.4927 0.000125073 0)
(42.4865 0.000298403 0)
(42.4731 0.000711318 0)
(42.4423 0.00169257 0)
(42.3702 0.00401743 0)
(42.2004 0.00952178 0)
(41.7988 0.0227395 0)
(40.9038 0.0572014 0)
(37.2838 0.158475 0)
(42.7005 0.000208892 0)
(42.702 0.000168817 0)
(42.7039 0.000152405 0)
(42.7056 0.000150517 0)
(42.7071 0.000149108 0)
(42.7086 0.000147388 0)
(42.71 0.000146003 0)
(42.7115 0.000144887 0)
(42.713 0.000143936 0)
(42.7145 0.000143123 0)
(42.716 0.000142418 0)
(42.7174 0.0001418 0)
(42.7189 0.000141275 0)
(42.7203 0.000140813 0)
(42.7218 0.000140396 0)
(42.7232 0.000140034 0)
(42.7246 0.000139714 0)
(42.726 0.000139431 0)
(42.7274 0.00013918 0)
(42.7288 0.000138958 0)
(42.7302 0.000138761 0)
(42.7315 0.000138586 0)
(42.7329 0.00013843 0)
(42.7342 0.000138293 0)
(42.7355 0.000138171 0)
(42.7368 0.000138064 0)
(42.7381 0.000137968 0)
(42.7393 0.000137884 0)
(42.7405 0.000137786 0)
(42.7417 0.000137763 0)
(42.7428 0.000137664 0)
(42.7439 0.000137584 0)
(42.7449 0.000137503 0)
(42.746 0.000137386 0)
(42.7469 0.000137215 0)
(42.7478 0.000136988 0)
(42.7486 0.000136667 0)
(42.7494 0.000136216 0)
(42.7501 0.000135595 0)
(42.7507 0.000134755 0)
(42.7513 0.00013364 0)
(42.7518 0.000132192 0)
(42.7522 0.00013035 0)
(42.7525 0.000128056 0)
(42.7527 0.000125259 0)
(42.7529 0.000121915 0)
(42.7529 0.000118 0)
(42.7528 0.000113499 0)
(42.7527 0.000108428 0)
(42.7524 0.000102825 0)
(42.752 9.67424e-05 0)
(42.7515 9.02585e-05 0)
(42.7509 8.34693e-05 0)
(42.7502 7.64813e-05 0)
(42.7494 6.94126e-05 0)
(42.7484 6.23794e-05 0)
(42.7473 5.54953e-05 0)
(42.7462 4.88648e-05 0)
(42.7449 4.25784e-05 0)
(42.7435 3.67092e-05 0)
(42.742 3.13139e-05 0)
(42.7403 2.64253e-05 0)
(42.7386 2.20616e-05 0)
(42.7368 1.82219e-05 0)
(42.7349 1.48906e-05 0)
(42.7328 1.20401e-05 0)
(42.7307 9.63417e-06 0)
(42.7285 7.63037e-06 0)
(42.7262 5.98329e-06 0)
(42.7238 4.64675e-06 0)
(42.7214 3.57578e-06 0)
(42.7189 2.72812e-06 0)
(42.7163 2.06523e-06 0)
(42.7137 1.55281e-06 0)
(42.711 1.16114e-06 0)
(42.7083 8.64929e-07 0)
(42.7056 6.43121e-07 0)
(42.7028 4.78547e-07 0)
(42.7 3.57241e-07 0)
(42.6972 2.68359e-07 0)
(42.6943 2.03417e-07 0)
(42.6915 1.55912e-07 0)
(42.6887 1.20937e-07 0)
(42.6859 9.48662e-08 0)
(42.6831 7.5358e-08 0)
(42.6803 6.35638e-08 0)
(42.6776 5.042e-08 0)
(42.6749 3.16145e-08 0)
(42.6723 2.56954e-08 0)
(42.6697 1.85158e-08 0)
(42.6672 9.91952e-09 0)
(42.6647 1.29717e-09 0)
(42.6623 -5.0284e-09 0)
(42.66 -1.11378e-08 0)
(42.6577 -1.68036e-08 0)
(42.6556 -2.24521e-08 0)
(42.6535 -2.78814e-08 0)
(42.6515 -3.30328e-08 0)
(42.6496 -3.80725e-08 0)
(42.6479 -4.30472e-08 0)
(42.6462 -4.76078e-08 0)
(42.6446 -5.19638e-08 0)
(42.6431 -5.6175e-08 0)
(42.6417 -6.0188e-08 0)
(42.6404 -6.38115e-08 0)
(42.6393 -6.7114e-08 0)
(42.6382 -7.03858e-08 0)
(42.6372 -7.32686e-08 0)
(42.6364 -7.57521e-08 0)
(42.6356 -7.80244e-08 0)
(42.635 -8.01461e-08 0)
(42.6344 -8.17752e-08 0)
(42.634 -8.30951e-08 0)
(42.6336 -8.43442e-08 0)
(42.6333 -8.50765e-08 0)
(42.6331 -8.55518e-08 0)
(42.633 -8.58638e-08 0)
(42.633 -8.56509e-08 0)
(42.6331 -8.55132e-08 0)
(42.6332 -8.47167e-08 0)
(42.6334 -8.38177e-08 0)
(42.6336 -8.27276e-08 0)
(42.634 -8.11912e-08 0)
(42.6343 -7.96309e-08 0)
(42.6348 -7.76008e-08 0)
(42.6352 -7.55553e-08 0)
(42.6358 -7.30717e-08 0)
(42.6363 -7.05625e-08 0)
(42.6369 -6.77339e-08 0)
(42.6375 -6.47786e-08 0)
(42.6382 -6.16355e-08 0)
(42.6388 -5.82623e-08 0)
(42.6395 -5.48692e-08 0)
(42.6402 -5.1222e-08 0)
(42.6409 -4.74655e-08 0)
(42.6416 -4.36498e-08 0)
(42.6423 -3.96274e-08 0)
(42.643 -3.56165e-08 0)
(42.6438 -3.14473e-08 0)
(42.6445 -2.72205e-08 0)
(42.6452 -2.29127e-08 0)
(42.6458 -1.85379e-08 0)
(42.6465 -1.40847e-08 0)
(42.6472 -9.49616e-09 0)
(42.6478 -4.54382e-09 0)
(42.6484 4.02736e-10 0)
(42.6491 3.97033e-09 0)
(42.6496 7.55573e-09 0)
(42.6502 1.11662e-08 0)
(42.6507 1.47364e-08 0)
(42.6513 1.82036e-08 0)
(42.6518 2.1594e-08 0)
(42.6522 2.49224e-08 0)
(42.6527 2.82161e-08 0)
(42.6531 3.14635e-08 0)
(42.6535 3.4651e-08 0)
(42.6539 3.77817e-08 0)
(42.6543 4.08471e-08 0)
(42.6546 4.38582e-08 0)
(42.6549 4.6803e-08 0)
(42.6552 4.96566e-08 0)
(42.6555 5.24256e-08 0)
(42.6558 5.51051e-08 0)
(42.656 5.771e-08 0)
(42.6562 6.02204e-08 0)
(42.6564 6.2641e-08 0)
(42.6566 6.49594e-08 0)
(42.6568 6.71762e-08 0)
(42.657 6.93101e-08 0)
(42.6571 7.13488e-08 0)
(42.6573 7.32831e-08 0)
(42.6574 7.51229e-08 0)
(42.6575 7.68679e-08 0)
(42.6576 7.85255e-08 0)
(42.6577 8.00981e-08 0)
(42.6578 8.15823e-08 0)
(42.6579 8.2976e-08 0)
(42.658 8.42919e-08 0)
(42.6581 8.55338e-08 0)
(42.6582 8.67066e-08 0)
(42.6583 8.78053e-08 0)
(42.6584 8.8833e-08 0)
(42.6585 8.97716e-08 0)
(42.6586 9.06469e-08 0)
(42.6587 9.14542e-08 0)
(42.6587 9.21944e-08 0)
(42.6588 9.28757e-08 0)
(42.6589 9.35124e-08 0)
(42.659 9.41069e-08 0)
(42.6591 9.46708e-08 0)
(42.6592 9.52007e-08 0)
(42.6593 9.56923e-08 0)
(42.6594 9.61397e-08 0)
(42.6596 9.65476e-08 0)
(42.6597 9.69192e-08 0)
(42.6598 9.72526e-08 0)
(42.6599 9.75559e-08 0)
(42.6601 9.78171e-08 0)
(42.6602 9.80572e-08 0)
(42.6603 9.8276e-08 0)
(42.6605 9.84738e-08 0)
(42.6606 9.8662e-08 0)
(42.6608 9.88297e-08 0)
(42.661 9.89845e-08 0)
(42.6611 9.91234e-08 0)
(42.6613 9.92496e-08 0)
(42.6615 9.93727e-08 0)
(42.6616 9.94865e-08 0)
(42.6618 9.95869e-08 0)
(42.662 9.96869e-08 0)
(42.6622 9.97746e-08 0)
(42.6624 9.98554e-08 0)
(42.6626 9.9935e-08 0)
(42.6628 1.00008e-07 0)
(42.663 1.00081e-07 0)
(42.6632 1.00152e-07 0)
(42.6634 1.00219e-07 0)
(42.6636 1.00278e-07 0)
(42.6638 1.00343e-07 0)
(42.664 1.00407e-07 0)
(42.6642 1.00466e-07 0)
(42.6645 1.00519e-07 0)
(42.6647 1.0057e-07 0)
(42.6649 1.00617e-07 0)
(42.6651 1.00664e-07 0)
(42.6653 1.00703e-07 0)
(42.6655 1.00745e-07 0)
(42.6658 1.00783e-07 0)
(42.666 1.0081e-07 0)
(42.6662 1.00833e-07 0)
(42.6664 1.00845e-07 0)
(42.6666 1.00848e-07 0)
(42.6669 1.00841e-07 0)
(42.6671 1.00819e-07 0)
(42.6673 1.00781e-07 0)
(42.6675 1.00731e-07 0)
(42.6677 1.0067e-07 0)
(42.6679 1.00601e-07 0)
(42.6681 1.00524e-07 0)
(42.6684 1.0044e-07 0)
(42.6686 1.00351e-07 0)
(42.6688 1.00261e-07 0)
(42.669 1.00169e-07 0)
(42.6692 1.00081e-07 0)
(42.6694 9.99929e-08 0)
(42.6696 9.99099e-08 0)
(42.6698 9.98327e-08 0)
(42.67 9.9763e-08 0)
(42.6702 9.97045e-08 0)
(42.6704 9.96493e-08 0)
(42.6706 9.95993e-08 0)
(42.6707 9.95763e-08 0)
(42.6709 9.9582e-08 0)
(42.6711 9.95094e-08 0)
(42.6713 9.95388e-08 0)
(42.6715 9.95691e-08 0)
(42.6717 9.96186e-08 0)
(42.6718 9.97697e-08 0)
(42.672 9.96024e-08 0)
(42.6722 9.97345e-08 0)
(42.6724 9.95347e-08 0)
(42.6725 9.96593e-08 0)
(42.6727 1.00201e-07 0)
(42.6729 1.00256e-07 0)
(42.6731 1.00476e-07 0)
(42.6732 1.00425e-07 0)
(42.6734 1.00284e-07 0)
(42.6736 1.00577e-07 0)
(42.6737 1.00635e-07 0)
(42.6739 1.00756e-07 0)
(42.674 1.00943e-07 0)
(42.6742 1.01109e-07 0)
(42.6744 1.01246e-07 0)
(42.6745 1.01343e-07 0)
(42.6747 1.01397e-07 0)
(42.6749 1.01434e-07 0)
(42.675 1.01457e-07 0)
(42.6752 1.01475e-07 0)
(42.6753 1.0149e-07 0)
(42.6755 1.01508e-07 0)
(42.6756 1.01531e-07 0)
(42.6758 1.01558e-07 0)
(42.676 1.01585e-07 0)
(42.6761 1.01605e-07 0)
(42.6763 1.01631e-07 0)
(42.6764 1.01664e-07 0)
(42.6766 1.0172e-07 0)
(42.6767 1.01761e-07 0)
(42.6769 1.01782e-07 0)
(42.677 1.01799e-07 0)
(42.6772 1.01833e-07 0)
(42.6773 1.01877e-07 0)
(42.6775 1.01927e-07 0)
(42.6776 1.01983e-07 0)
(42.6777 1.02042e-07 0)
(42.6779 1.02102e-07 0)
(42.678 1.02168e-07 0)
(42.6781 1.0224e-07 0)
(42.6783 1.02322e-07 0)
(42.6784 1.02409e-07 0)
(42.6785 1.02499e-07 0)
(42.6786 1.02598e-07 0)
(42.6787 1.02713e-07 0)
(42.6788 1.02835e-07 0)
(42.6789 1.02972e-07 0)
(42.679 1.03117e-07 0)
(42.6791 1.03272e-07 0)
(42.6792 1.03442e-07 0)
(42.6793 1.03628e-07 0)
(42.6793 1.03833e-07 0)
(42.6794 1.0405e-07 0)
(42.6794 1.04284e-07 0)
(42.6795 1.04539e-07 0)
(42.6795 1.04818e-07 0)
(42.6795 1.05116e-07 0)
(42.6795 1.05441e-07 0)
(42.6795 1.05757e-07 0)
(42.6795 1.06132e-07 0)
(42.6794 1.06507e-07 0)
(42.6794 1.06906e-07 0)
(42.6793 1.0733e-07 0)
(42.6792 1.07773e-07 0)
(42.6791 1.08246e-07 0)
(42.679 1.08747e-07 0)
(42.6788 1.0928e-07 0)
(42.6787 1.09851e-07 0)
(42.6785 1.10459e-07 0)
(42.6782 1.11102e-07 0)
(42.678 1.11783e-07 0)
(42.6777 1.12513e-07 0)
(42.6774 1.13283e-07 0)
(42.6771 1.14105e-07 0)
(42.6768 1.14971e-07 0)
(42.6764 1.15892e-07 0)
(42.676 1.16863e-07 0)
(42.6755 1.17887e-07 0)
(42.6751 1.18962e-07 0)
(42.6745 1.20083e-07 0)
(42.674 1.21266e-07 0)
(42.6734 1.22501e-07 0)
(42.6728 1.23798e-07 0)
(42.6721 1.2515e-07 0)
(42.6714 1.26555e-07 0)
(42.6707 1.28018e-07 0)
(42.6699 1.29536e-07 0)
(42.6691 1.31112e-07 0)
(42.6682 1.32746e-07 0)
(42.6673 1.34435e-07 0)
(42.6664 1.36176e-07 0)
(42.6654 1.37977e-07 0)
(42.6643 1.39831e-07 0)
(42.6633 1.41738e-07 0)
(42.6621 1.43707e-07 0)
(42.661 1.45716e-07 0)
(42.6597 1.47773e-07 0)
(42.6585 1.49867e-07 0)
(42.6572 1.52006e-07 0)
(42.6558 1.54172e-07 0)
(42.6545 1.5637e-07 0)
(42.653 1.58598e-07 0)
(42.6516 1.60841e-07 0)
(42.6501 1.63094e-07 0)
(42.6485 1.65355e-07 0)
(42.647 1.67622e-07 0)
(42.6454 1.69882e-07 0)
(42.6437 1.72128e-07 0)
(42.6421 1.7436e-07 0)
(42.6404 1.76564e-07 0)
(42.6387 1.78728e-07 0)
(42.637 1.80848e-07 0)
(42.6353 1.82916e-07 0)
(42.6336 1.84908e-07 0)
(42.6318 1.86853e-07 0)
(42.6301 1.88753e-07 0)
(42.6284 1.90604e-07 0)
(42.6266 1.92498e-07 0)
(42.6249 1.9458e-07 0)
(42.6232 1.97263e-07 0)
(42.6215 2.01545e-07 0)
(42.6199 2.09841e-07 0)
(42.6183 2.27954e-07 0)
(42.6167 2.69631e-07 0)
(42.6151 3.67522e-07 0)
(42.6137 5.99822e-07 0)
(42.6122 1.15395e-06 0)
(42.6108 2.47863e-06 0)
(42.6095 5.64746e-06 0)
(42.6082 1.32267e-05 0)
(42.6069 3.13507e-05 0)
(42.6054 7.46828e-05 0)
(42.6035 0.000178243 0)
(42.6003 0.000425586 0)
(42.5942 0.00101573 0)
(42.5809 0.00242144 0)
(42.5503 0.00576106 0)
(42.4785 0.0136682 0)
(42.3096 0.0323569 0)
(41.9104 0.0770157 0)
(41.0221 0.191561 0)
(37.6231 0.501073 0)
(42.7005 0.000149883 0)
(42.702 0.00011996 0)
(42.7039 0.000105656 0)
(42.7056 0.000108252 0)
(42.7071 0.00011035 0)
(42.7086 0.000110926 0)
(42.71 0.000111339 0)
(42.7115 0.000111771 0)
(42.713 0.00011215 0)
(42.7145 0.000112473 0)
(42.716 0.00011275 0)
(42.7174 0.000112988 0)
(42.7189 0.000113206 0)
(42.7203 0.000113395 0)
(42.7217 0.000113555 0)
(42.7232 0.0001137 0)
(42.7246 0.000113828 0)
(42.726 0.000113942 0)
(42.7274 0.000114043 0)
(42.7288 0.000114134 0)
(42.7302 0.000114215 0)
(42.7315 0.000114288 0)
(42.7329 0.000114354 0)
(42.7342 0.000114414 0)
(42.7355 0.000114468 0)
(42.7368 0.000114518 0)
(42.7381 0.000114563 0)
(42.7393 0.000114604 0)
(42.7405 0.000114628 0)
(42.7417 0.000114691 0)
(42.7428 0.000114691 0)
(42.7439 0.000114699 0)
(42.745 0.000114694 0)
(42.746 0.000114654 0)
(42.7469 0.000114566 0)
(42.7478 0.000114427 0)
(42.7487 0.000114204 0)
(42.7494 0.00011387 0)
(42.7502 0.00011339 0)
(42.7508 0.000112726 0)
(42.7514 0.000111832 0)
(42.7518 0.000110658 0)
(42.7523 0.000109155 0)
(42.7526 0.000107274 0)
(42.7528 0.000104972 0)
(42.7529 0.000102213 0)
(42.753 9.89745e-05 0)
(42.7529 9.52457e-05 0)
(42.7527 9.10392e-05 0)
(42.7525 8.63836e-05 0)
(42.7521 8.13231e-05 0)
(42.7516 7.59221e-05 0)
(42.751 7.02605e-05 0)
(42.7503 6.44268e-05 0)
(42.7494 5.85187e-05 0)
(42.7485 5.26334e-05 0)
(42.7474 4.68663e-05 0)
(42.7462 4.13051e-05 0)
(42.7449 3.60263e-05 0)
(42.7435 3.1092e-05 0)
(42.742 2.65498e-05 0)
(42.7404 2.24293e-05 0)
(42.7387 1.87464e-05 0)
(42.7368 1.55013e-05 0)
(42.7349 1.26817e-05 0)
(42.7329 1.02657e-05 0)
(42.7308 8.22348e-06 0)
(42.7285 6.52001e-06 0)
(42.7263 5.1176e-06 0)
(42.7239 3.97775e-06 0)
(42.7214 3.06288e-06 0)
(42.7189 2.33751e-06 0)
(42.7164 1.76921e-06 0)
(42.7137 1.32906e-06 0)
(42.7111 9.91911e-07 0)
(42.7084 7.36336e-07 0)
(42.7056 5.44466e-07 0)
(42.7028 4.01696e-07 0)
(42.7 2.96156e-07 0)
(42.6972 2.18601e-07 0)
(42.6944 1.61821e-07 0)
(42.6916 1.20237e-07 0)
(42.6887 8.96595e-08 0)
(42.6859 6.69671e-08 0)
(42.6831 5.01798e-08 0)
(42.6804 3.98255e-08 0)
(42.6776 2.84457e-08 0)
(42.6749 1.44102e-08 0)
(42.6723 1.01549e-08 0)
(42.6697 5.354e-09 0)
(42.6672 -6.7107e-12 0)
(42.6647 -4.3268e-09 0)
(42.6623 -7.41334e-09 0)
(42.66 -1.19451e-08 0)
(42.6578 -1.6191e-08 0)
(42.6556 -2.03428e-08 0)
(42.6535 -2.43205e-08 0)
(42.6516 -2.80784e-08 0)
(42.6497 -3.16895e-08 0)
(42.6479 -3.51607e-08 0)
(42.6462 -3.83659e-08 0)
(42.6446 -4.13788e-08 0)
(42.6431 -4.42644e-08 0)
(42.6418 -4.69859e-08 0)
(42.6405 -4.94138e-08 0)
(42.6393 -5.15995e-08 0)
(42.6382 -5.37001e-08 0)
(42.6373 -5.55417e-08 0)
(42.6364 -5.70909e-08 0)
(42.6357 -5.84545e-08 0)
(42.635 -5.96863e-08 0)
(42.6345 -6.05916e-08 0)
(42.634 -6.12534e-08 0)
(42.6336 -6.18344e-08 0)
(42.6334 -6.20889e-08 0)
(42.6332 -6.21173e-08 0)
(42.6331 -6.20183e-08 0)
(42.633 -6.15957e-08 0)
(42.6331 -6.11684e-08 0)
(42.6332 -6.02978e-08 0)
(42.6334 -5.93666e-08 0)
(42.6337 -5.82818e-08 0)
(42.634 -5.69253e-08 0)
(42.6344 -5.55055e-08 0)
(42.6348 -5.38174e-08 0)
(42.6353 -5.20737e-08 0)
(42.6358 -5.00974e-08 0)
(42.6363 -4.80595e-08 0)
(42.6369 -4.58379e-08 0)
(42.6376 -4.35354e-08 0)
(42.6382 -4.11271e-08 0)
(42.6389 -3.85853e-08 0)
(42.6395 -3.60199e-08 0)
(42.6402 -3.33258e-08 0)
(42.6409 -3.05755e-08 0)
(42.6417 -2.78021e-08 0)
(42.6424 -2.49006e-08 0)
(42.6431 -2.21126e-08 0)
(42.6438 -1.91549e-08 0)
(42.6445 -1.62573e-08 0)
(42.6452 -1.33486e-08 0)
(42.6459 -1.04466e-08 0)
(42.6466 -7.59757e-09 0)
(42.6472 -4.84127e-09 0)
(42.6479 -2.15463e-09 0)
(42.6485 8.47617e-10 0)
(42.6491 3.63284e-09 0)
(42.6497 6.68699e-09 0)
(42.6502 9.74586e-09 0)
(42.6508 1.27749e-08 0)
(42.6513 1.57475e-08 0)
(42.6518 1.86591e-08 0)
(42.6523 2.15175e-08 0)
(42.6527 2.43228e-08 0)
(42.6532 2.70636e-08 0)
(42.6536 2.97152e-08 0)
(42.6539 3.22861e-08 0)
(42.6543 3.47781e-08 0)
(42.6546 3.71966e-08 0)
(42.655 3.95272e-08 0)
(42.6553 4.17654e-08 0)
(42.6555 4.39119e-08 0)
(42.6558 4.59668e-08 0)
(42.656 4.79409e-08 0)
(42.6563 4.98264e-08 0)
(42.6565 5.16192e-08 0)
(42.6567 5.33133e-08 0)
(42.6568 5.49255e-08 0)
(42.657 5.64558e-08 0)
(42.6572 5.7909e-08 0)
(42.6573 5.92693e-08 0)
(42.6574 6.05513e-08 0)
(42.6576 6.17503e-08 0)
(42.6577 6.28821e-08 0)
(42.6578 6.39478e-08 0)
(42.6579 6.49442e-08 0)
(42.658 6.5864e-08 0)
(42.6581 6.67237e-08 0)
(42.6582 6.75336e-08 0)
(42.6583 6.82978e-08 0)
(42.6583 6.89997e-08 0)
(42.6584 6.96444e-08 0)
(42.6585 7.02177e-08 0)
(42.6586 7.07458e-08 0)
(42.6587 7.1222e-08 0)
(42.6588 7.16509e-08 0)
(42.6589 7.20396e-08 0)
(42.659 7.24023e-08 0)
(42.6591 7.27468e-08 0)
(42.6592 7.3076e-08 0)
(42.6593 7.33934e-08 0)
(42.6594 7.36841e-08 0)
(42.6595 7.3944e-08 0)
(42.6596 7.41845e-08 0)
(42.6597 7.43916e-08 0)
(42.6598 7.45763e-08 0)
(42.66 7.47357e-08 0)
(42.6601 7.48771e-08 0)
(42.6602 7.50001e-08 0)
(42.6604 7.51127e-08 0)
(42.6605 7.52175e-08 0)
(42.6607 7.53174e-08 0)
(42.6608 7.54049e-08 0)
(42.661 7.54879e-08 0)
(42.6612 7.55632e-08 0)
(42.6613 7.56354e-08 0)
(42.6615 7.57009e-08 0)
(42.6617 7.57669e-08 0)
(42.6619 7.5823e-08 0)
(42.662 7.58805e-08 0)
(42.6622 7.59299e-08 0)
(42.6624 7.59814e-08 0)
(42.6626 7.60333e-08 0)
(42.6628 7.60836e-08 0)
(42.663 7.61335e-08 0)
(42.6632 7.6186e-08 0)
(42.6634 7.62418e-08 0)
(42.6636 7.6293e-08 0)
(42.6639 7.63495e-08 0)
(42.6641 7.64087e-08 0)
(42.6643 7.64681e-08 0)
(42.6645 7.65327e-08 0)
(42.6647 7.66025e-08 0)
(42.6649 7.66735e-08 0)
(42.6652 7.67516e-08 0)
(42.6654 7.68306e-08 0)
(42.6656 7.69149e-08 0)
(42.6658 7.70107e-08 0)
(42.666 7.71018e-08 0)
(42.6662 7.72036e-08 0)
(42.6665 7.73117e-08 0)
(42.6667 7.74239e-08 0)
(42.6669 7.7552e-08 0)
(42.6671 7.76822e-08 0)
(42.6673 7.78201e-08 0)
(42.6675 7.79667e-08 0)
(42.6678 7.81136e-08 0)
(42.668 7.82763e-08 0)
(42.6682 7.84382e-08 0)
(42.6684 7.86026e-08 0)
(42.6686 7.87698e-08 0)
(42.6688 7.89406e-08 0)
(42.669 7.91111e-08 0)
(42.6692 7.92792e-08 0)
(42.6694 7.94433e-08 0)
(42.6696 7.9608e-08 0)
(42.6698 7.97674e-08 0)
(42.67 7.99235e-08 0)
(42.6702 8.00723e-08 0)
(42.6704 8.02195e-08 0)
(42.6706 8.03572e-08 0)
(42.6708 8.04965e-08 0)
(42.671 8.0638e-08 0)
(42.6712 8.07075e-08 0)
(42.6713 8.08413e-08 0)
(42.6715 8.09526e-08 0)
(42.6717 8.10614e-08 0)
(42.6719 8.12202e-08 0)
(42.6721 8.11252e-08 0)
(42.6722 8.12295e-08 0)
(42.6724 8.10967e-08 0)
(42.6726 8.11956e-08 0)
(42.6728 8.1579e-08 0)
(42.6729 8.15366e-08 0)
(42.6731 8.16183e-08 0)
(42.6733 8.15132e-08 0)
(42.6734 8.13504e-08 0)
(42.6736 8.14992e-08 0)
(42.6738 8.1439e-08 0)
(42.6739 8.14493e-08 0)
(42.6741 8.15198e-08 0)
(42.6743 8.15879e-08 0)
(42.6744 8.16454e-08 0)
(42.6746 8.1685e-08 0)
(42.6747 8.17063e-08 0)
(42.6749 8.17212e-08 0)
(42.6751 8.1727e-08 0)
(42.6752 8.1736e-08 0)
(42.6754 8.17473e-08 0)
(42.6755 8.17613e-08 0)
(42.6757 8.17834e-08 0)
(42.6758 8.18101e-08 0)
(42.676 8.18281e-08 0)
(42.6762 8.18531e-08 0)
(42.6763 8.18752e-08 0)
(42.6765 8.19038e-08 0)
(42.6766 8.19422e-08 0)
(42.6768 8.19619e-08 0)
(42.6769 8.19708e-08 0)
(42.6771 8.19775e-08 0)
(42.6772 8.1996e-08 0)
(42.6774 8.20186e-08 0)
(42.6775 8.20415e-08 0)
(42.6776 8.20679e-08 0)
(42.6778 8.20919e-08 0)
(42.6779 8.21171e-08 0)
(42.6781 8.21439e-08 0)
(42.6782 8.21754e-08 0)
(42.6783 8.22106e-08 0)
(42.6784 8.22475e-08 0)
(42.6786 8.22856e-08 0)
(42.6787 8.23288e-08 0)
(42.6788 8.23812e-08 0)
(42.6789 8.24336e-08 0)
(42.679 8.24955e-08 0)
(42.6791 8.25625e-08 0)
(42.6792 8.26369e-08 0)
(42.6792 8.27216e-08 0)
(42.6793 8.28147e-08 0)
(42.6794 8.29158e-08 0)
(42.6794 8.3027e-08 0)
(42.6795 8.31452e-08 0)
(42.6795 8.32769e-08 0)
(42.6795 8.34224e-08 0)
(42.6796 8.35872e-08 0)
(42.6796 8.37628e-08 0)
(42.6795 8.39421e-08 0)
(42.6795 8.41634e-08 0)
(42.6795 8.43895e-08 0)
(42.6794 8.46412e-08 0)
(42.6793 8.4913e-08 0)
(42.6792 8.52057e-08 0)
(42.6791 8.55212e-08 0)
(42.679 8.58591e-08 0)
(42.6789 8.62246e-08 0)
(42.6787 8.6619e-08 0)
(42.6785 8.70337e-08 0)
(42.6783 8.7479e-08 0)
(42.678 8.79543e-08 0)
(42.6778 8.84601e-08 0)
(42.6775 8.89937e-08 0)
(42.6772 8.95576e-08 0)
(42.6768 9.01572e-08 0)
(42.6764 9.07901e-08 0)
(42.676 9.14502e-08 0)
(42.6756 9.21512e-08 0)
(42.6751 9.2889e-08 0)
(42.6746 9.36611e-08 0)
(42.674 9.44717e-08 0)
(42.6734 9.53167e-08 0)
(42.6728 9.62045e-08 0)
(42.6722 9.71278e-08 0)
(42.6715 9.8094e-08 0)
(42.6707 9.90987e-08 0)
(42.67 1.00141e-07 0)
(42.6691 1.01225e-07 0)
(42.6683 1.02346e-07 0)
(42.6674 1.03506e-07 0)
(42.6664 1.04706e-07 0)
(42.6654 1.05934e-07 0)
(42.6644 1.07201e-07 0)
(42.6633 1.08496e-07 0)
(42.6622 1.0982e-07 0)
(42.661 1.11174e-07 0)
(42.6598 1.12547e-07 0)
(42.6585 1.1394e-07 0)
(42.6572 1.15356e-07 0)
(42.6559 1.16779e-07 0)
(42.6545 1.18222e-07 0)
(42.6531 1.19666e-07 0)
(42.6516 1.21117e-07 0)
(42.6501 1.22558e-07 0)
(42.6486 1.23992e-07 0)
(42.647 1.25424e-07 0)
(42.6454 1.26831e-07 0)
(42.6438 1.28215e-07 0)
(42.6421 1.29565e-07 0)
(42.6405 1.30883e-07 0)
(42.6388 1.32186e-07 0)
(42.6371 1.33455e-07 0)
(42.6353 1.34686e-07 0)
(42.6336 1.35857e-07 0)
(42.6319 1.36983e-07 0)
(42.6301 1.38098e-07 0)
(42.6284 1.39216e-07 0)
(42.6267 1.40514e-07 0)
(42.6249 1.42353e-07 0)
(42.6233 1.45531e-07 0)
(42.6216 1.52039e-07 0)
(42.6199 1.66718e-07 0)
(42.6183 2.00931e-07 0)
(42.6167 2.81937e-07 0)
(42.6152 4.74793e-07 0)
(42.6137 9.35234e-07 0)
(42.6123 2.03532e-06 0)
(42.6109 4.66541e-06 0)
(42.6095 1.09554e-05 0)
(42.6082 2.59976e-05 0)
(42.6069 6.19665e-05 0)
(42.6054 0.000147963 0)
(42.6035 0.000353488 0)
(42.6005 0.000844376 0)
(42.5945 0.00201565 0)
(42.5814 0.00480582 0)
(42.5514 0.0114353 0)
(42.4812 0.0271336 0)
(42.316 0.064236 0)
(41.9264 0.152794 0)
(41.0639 0.378803 0)
(37.9059 0.958639 0)
(42.7005 9.73402e-05 0)
(42.7019 9.91071e-05 0)
(42.7038 9.42951e-05 0)
(42.7055 9.8616e-05 0)
(42.7071 0.000102511 0)
(42.7085 0.000104474 0)
(42.71 0.000105808 0)
(42.7115 0.000106974 0)
(42.713 0.000107981 0)
(42.7144 0.000108832 0)
(42.7159 0.000109557 0)
(42.7174 0.000110181 0)
(42.7188 0.000110725 0)
(42.7203 0.000111198 0)
(42.7217 0.000111608 0)
(42.7231 0.000111967 0)
(42.7245 0.000112282 0)
(42.7259 0.000112559 0)
(42.7273 0.000112803 0)
(42.7287 0.000113018 0)