/*--------------------------------*- C++ -*----------------------------------*\
| =========                 |                                                 |
| \\      /  F ield         | OpenFOAM: The Open Source CFD Toolbox           |
|  \\    /   O peration     | Version:  3.0.x                                 |
|   \\  /    A nd           | Web:      www.OpenFOAM.org                      |
|    \\/     M anipulation  |                                                 |
\*---------------------------------------------------------------------------*/
FoamFile
{
    version     2.0;
    format      ascii;
    class       surfaceScalarField;
    location    "0.12";
    object      phi;
}
// * * * * * * * * * * * * * * * * * * * * * * * * * * * * * * * * * * * * * //

dimensions      [1 0 -1 0 0 0 0];

internalField   nonuniform List<scalar> 
12415
(
5.7595
0.000327753
5.75906
0.000235095
5.75864
0.000224831
5.75823
0.000226919
5.75783
0.000227472
5.75747
0.000227325
5.75712
0.000227352
5.75678
0.000227313
5.75645
0.000227048
5.75613
0.000226369
5.75582
0.000224989
5.75552
0.00022252
5.75524
0.000218492
5.75497
0.000212416
5.75473
0.000203872
5.75449
0.00019261
5.75428
0.000178625
5.75408
0.000162212
5.7539
0.000143945
5.75374
0.00012461
5.75358
0.00010509
5.75343
8.62748e-05
5.75327
6.88799e-05
5.75312
5.34816e-05
5.75295
4.03557e-05
5.75276
2.95881e-05
5.75256
2.10748e-05
5.75232
1.45747e-05
5.75205
9.77771e-06
5.75173
6.35052e-06
5.75138
3.97824e-06
5.75097
2.38433e-06
5.75052
1.34437e-06
5.75
6.85177e-07
5.74943
2.79446e-07
5.74878
3.86262e-08
5.74807
-1.04807e-07
5.74729
-1.84264e-07
5.74642
-2.27908e-07
5.74548
-2.51028e-07
5.74445
-2.62808e-07
5.74333
-2.68528e-07
5.74211
-2.71199e-07
5.7408
-2.72175e-07
5.7394
-2.72617e-07
5.7379
-2.73059e-07
5.73629
-2.73516e-07
5.73459
-2.74227e-07
5.73278
-2.75584e-07
5.73088
-2.76605e-07
5.72888
-2.79e-07
5.72679
-2.82311e-07
5.72462
-2.84999e-07
5.72237
-2.90047e-07
5.72004
-2.94554e-07
5.71765
-3.00941e-07
5.71521
-3.0776e-07
5.71272
-3.15431e-07
5.71019
-3.24408e-07
5.70764
-3.34216e-07
5.70508
-3.48513e-07
5.70251
-3.47643e-07
5.69994
-3.58605e-07
5.6974
-3.77846e-07
5.69487
-3.92665e-07
5.69239
-4.04596e-07
5.68994
-4.15284e-07
5.68754
-4.26277e-07
5.6852
-4.37913e-07
5.68291
-4.43384e-07
5.68069
-4.59415e-07
5.67852
-4.6996e-07
5.67642
-4.77081e-07
5.67439
-4.8358e-07
5.67241
-4.88802e-07
5.6705
-4.92142e-07
5.66864
-4.95051e-07
5.66684
-4.95689e-07
5.66508
-4.95429e-07
5.66337
-4.93124e-07
5.6617
-4.89774e-07
5.66005
-4.85425e-07
5.65844
-4.79653e-07
5.65685
-4.73974e-07
5.65527
-4.67815e-07
5.65371
-4.63759e-07
5.65214
-4.55639e-07
5.65058
-4.07128e-07
5.64901
-4.36739e-07
5.64742
-4.42251e-07
5.64582
-4.19783e-07
5.64419
-4.08409e-07
5.64254
-4.03348e-07
5.64084
-3.99836e-07
5.63911
-3.96327e-07
5.63733
-3.94062e-07
5.6355
-3.92483e-07
5.63362
-3.9244e-07
5.63167
-3.93808e-07
5.62966
-3.96334e-07
5.62759
-4.00858e-07
5.62546
-4.0643e-07
5.62326
-4.12736e-07
5.62099
-4.20228e-07
5.61865
-4.29864e-07
5.61626
-4.38471e-07
5.61381
-4.49589e-07
5.6113
-4.59982e-07
5.60874
-4.70323e-07
5.60613
-4.80903e-07
5.60349
-4.94665e-07
5.60081
-5.12629e-07
5.5981
-5.12582e-07
5.59536
-5.17928e-07
5.5926
-5.3138e-07
5.58983
-5.4269e-07
5.58705
-5.48613e-07
5.58426
-5.51992e-07
5.58146
-5.53426e-07
5.57865
-5.54803e-07
5.57585
-5.53555e-07
5.57304
-5.5202e-07
5.57024
-5.47319e-07
5.56743
-5.42836e-07
5.56463
-5.35558e-07
5.56183
-5.28094e-07
5.55902
-5.19676e-07
5.55623
-5.12038e-07
5.55344
-5.10798e-07
5.55065
-4.72852e-07
5.54787
-4.70322e-07
5.5451
-4.65276e-07
5.54234
-4.53498e-07
5.53961
-4.42647e-07
5.53689
-4.32845e-07
5.5342
-4.24066e-07
5.53155
-4.1651e-07
5.52894
-4.10359e-07
5.52639
-4.05784e-07
5.52389
-4.02926e-07
5.52147
-4.01877e-07
5.51913
-4.02701e-07
5.51689
-4.05396e-07
5.51475
-4.09913e-07
5.51273
-4.16143e-07
5.51083
-4.23919e-07
5.50906
-4.33025e-07
5.50742
-4.43199e-07
5.50591
-4.54143e-07
5.50454
-4.65536e-07
5.50331
-4.77045e-07
5.50219
-4.8834e-07
5.5012
-4.99127e-07
5.50031
-5.09131e-07
5.49952
-5.18143e-07
5.49881
-5.25995e-07
5.49817
-5.32587e-07
5.49759
-5.37872e-07
5.49705
-5.41864e-07
5.49654
-5.44605e-07
5.49604
-5.46172e-07
5.49555
-5.46652e-07
5.49505
-5.46137e-07
5.49453
-5.44711e-07
5.49399
-5.42441e-07
5.49341
-5.39381e-07
5.49279
-5.356e-07
5.49212
-5.3115e-07
5.49138
-5.26092e-07
5.49058
-5.20562e-07
5.4897
-5.14616e-07
5.48875
-5.08579e-07
5.48772
-5.02341e-07
5.48661
-4.96748e-07
5.48542
-4.90953e-07
5.48416
-4.87022e-07
5.48284
-4.82449e-07
5.48146
-4.8137e-07
5.48004
-4.79205e-07
5.47859
-4.81386e-07
5.47714
-4.83413e-07
5.4757
-4.88599e-07
5.47428
-4.95622e-07
5.47292
-5.05048e-07
5.47162
-5.1507e-07
5.4704
-5.29517e-07
5.46928
-5.41537e-07
5.46827
-5.58621e-07
5.46737
-5.71068e-07
5.46657
-5.85494e-07
5.46588
-5.93685e-07
5.46528
-5.15556e-07
5.46477
-6.01904e-09
5.46433
3.85128e-06
5.46394
3.15945e-05
5.46343
0.000216376
5.46168
0.00152592
5.45087
0.0106474
5.36591
0.0848847
0.416698
4.94923
11.5197
0.000260484
11.5193
0.00021564
11.519
0.000189661
11.5186
0.000194231
11.5183
0.000195632
11.5181
0.000195089
11.5179
0.000194987
11.5177
0.000194974
11.5175
0.000194766
11.5174
0.000194206
11.5172
0.000193059
11.5171
0.000190993
11.517
0.000187603
11.5169
0.000182471
11.5169
0.000175228
11.5168
0.000165655
11.5168
0.000153738
11.5167
0.000139722
11.5167
0.000124093
11.5166
0.000107519
11.5165
9.07599e-05
11.5164
7.45751e-05
11.5162
5.96002e-05
11.516
4.63172e-05
11.5158
3.49859e-05
11.5155
2.56753e-05
11.5151
1.83064e-05
11.5147
1.26733e-05
11.5141
8.51172e-06
11.5135
5.53486e-06
11.5128
3.47222e-06
11.512
2.08478e-06
11.5111
1.17821e-06
11.5101
6.02571e-07
11.5089
2.48756e-07
11.5076
4.29516e-08
11.5062
-8.75489e-08
11.5046
-1.56115e-07
11.5029
-1.94284e-07
11.501
-2.14534e-07
11.499
-2.24891e-07
11.4967
-2.2995e-07
11.4943
-2.32305e-07
11.4917
-2.33211e-07
11.4889
-2.33589e-07
11.4859
-2.33983e-07
11.4826
-2.34384e-07
11.4792
-2.34998e-07
11.4756
-2.36137e-07
11.4718
-2.37077e-07
11.4678
-2.39079e-07
11.4636
-2.41886e-07
11.4593
-2.44311e-07
11.4548
-2.4848e-07
11.4501
-2.52498e-07
11.4454
-2.57884e-07
11.4405
-2.63797e-07
11.4355
-2.70384e-07
11.4304
-2.78076e-07
11.4253
-2.86566e-07
11.4202
-2.98199e-07
11.4151
-2.99159e-07
11.4099
-3.07024e-07
11.4048
-3.23362e-07
11.3998
-3.3672e-07
11.3948
-3.46815e-07
11.3899
-3.55979e-07
11.3851
-3.6539e-07
11.3804
-3.75075e-07
11.3759
-3.80791e-07
11.3714
-3.93186e-07
11.3671
-4.028e-07
11.3629
-4.08933e-07
11.3588
-4.14411e-07
11.3549
-4.18896e-07
11.351
-4.21809e-07
11.3473
-4.24217e-07
11.3437
-4.24861e-07
11.3402
-4.24568e-07
11.3368
-4.22679e-07
11.3334
-4.19805e-07
11.3301
-4.16085e-07
11.3269
-4.11207e-07
11.3237
-4.06255e-07
11.3206
-4.01123e-07
11.3174
-3.97238e-07
11.3143
-3.89274e-07
11.3112
-3.53004e-07
11.308
-3.70273e-07
11.3049
-3.7931e-07
11.3017
-3.60963e-07
11.2984
-3.49847e-07
11.2951
-3.45688e-07
11.2917
-3.42676e-07
11.2882
-3.39691e-07
11.2847
-3.37702e-07
11.281
-3.36435e-07
11.2772
-3.36375e-07
11.2733
-3.37546e-07
11.2693
-3.3975e-07
11.2652
-3.43585e-07
11.2609
-3.48372e-07
11.2565
-3.53793e-07
11.252
-3.60278e-07
11.2473
-3.68369e-07
11.2425
-3.75967e-07
11.2376
-3.85289e-07
11.2326
-3.94283e-07
11.2275
-4.03179e-07
11.2223
-4.12389e-07
11.217
-4.24001e-07
11.2116
-4.3901e-07
11.2062
-4.39918e-07
11.2007
-4.43938e-07
11.1952
-4.55251e-07
11.1896
-4.65056e-07
11.1841
-4.70248e-07
11.1785
-4.73108e-07
11.1729
-4.74447e-07
11.1673
-4.75482e-07
11.1617
-4.74572e-07
11.1561
-4.7308e-07
11.1504
-4.6925e-07
11.1448
-4.65212e-07
11.1392
-4.59147e-07
11.1336
-4.52671e-07
11.128
-4.45563e-07
11.1224
-4.39161e-07
11.1168
-4.36139e-07
11.1113
-4.07234e-07
11.1057
-4.02757e-07
11.1002
-3.98525e-07
11.0946
-3.88715e-07
11.0892
-3.79412e-07
11.0837
-3.71004e-07
11.0784
-3.63479e-07
11.073
-3.57009e-07
11.0678
-3.51743e-07
11.0627
-3.47828e-07
11.0577
-3.45377e-07
11.0529
-3.4448e-07
11.0482
-3.45185e-07
11.0437
-3.475e-07
11.0394
-3.51371e-07
11.0354
-3.56714e-07
11.0316
-3.63377e-07
11.028
-3.71184e-07
11.0248
-3.79905e-07
11.0218
-3.89283e-07
11.019
-3.99044e-07
11.0165
-4.08907e-07
11.0143
-4.18589e-07
11.0123
-4.27835e-07
11.0105
-4.36407e-07
11.009
-4.44128e-07
11.0075
-4.50858e-07
11.0063
-4.56506e-07
11.0051
-4.61036e-07
11.004
-4.64461e-07
11.003
-4.66809e-07
11.002
-4.68152e-07
11.001
-4.68565e-07
11
-4.68126e-07
10.999
-4.66906e-07
10.9979
-4.64957e-07
10.9967
-4.62336e-07
10.9955
-4.59097e-07
10.9941
-4.55281e-07
10.9927
-4.50947e-07
10.9911
-4.46208e-07
10.9893
-4.41115e-07
10.9874
-4.35929e-07
10.9853
-4.30608e-07
10.9831
-4.25776e-07
10.9807
-4.20878e-07
10.9782
-4.17407e-07
10.9756
-4.13643e-07
10.9728
-4.12536e-07
10.97
-4.1086e-07
10.9671
-4.12667e-07
10.9642
-4.14207e-07
10.9613
-4.19324e-07
10.9584
-4.24001e-07
10.9557
-4.34256e-07
10.9531
-4.39825e-07
10.9507
-4.55979e-07
10.9484
-4.61872e-07
10.9464
-4.81131e-07
10.9446
-4.85255e-07
10.943
-4.96258e-07
10.9416
-4.91985e-07
10.9404
-2.31668e-07
10.9394
1.29674e-06
10.9385
1.27297e-05
10.9378
9.47012e-05
10.9367
0.000641778
10.9333
0.00451545
10.9123
0.031341
10.7735
0.223494
1.04617
10.1441
138.236
-0.000260484
138.232
-0.00021564
138.228
-0.000189661
138.224
-0.000194231
138.22
-0.000195632
138.217
-0.000195089
138.214
-0.000194987
138.212
-0.000194974
138.21
-0.000194766
138.208
-0.000194206
138.207
-0.000193059
138.205
-0.000190993
138.204
-0.000187603
138.203
-0.000182471
138.202
-0.000175228
138.202
-0.000165655
138.201
-0.000153738
138.201
-0.000139722
138.2
-0.000124093
138.199
-0.000107519
138.198
-9.07599e-05
138.197
-7.45751e-05
138.195
-5.96002e-05
138.192
-4.63172e-05
138.189
-3.49859e-05
138.186
-2.56753e-05
138.181
-1.83064e-05
138.176
-1.26733e-05
138.17
-8.51172e-06
138.162
-5.53486e-06
138.154
-3.47223e-06
138.144
-2.08478e-06
138.133
-1.1782e-06
138.121
-6.0257e-07
138.107
-2.48758e-07
138.092
-4.29482e-08
138.075
8.75482e-08
138.056
1.56115e-07
138.035
1.94281e-07
138.012
2.14531e-07
137.988
2.24893e-07
137.961
2.29948e-07
137.932
2.32306e-07
137.9
2.33213e-07
137.866
2.33593e-07
137.83
2.33986e-07
137.792
2.34384e-07
137.751
2.35002e-07
137.708
2.36137e-07
137.662
2.37076e-07
137.614
2.39079e-07
137.564
2.41886e-07
137.512
2.44309e-07
137.458
2.48476e-07
137.402
2.52497e-07
137.344
2.57884e-07
137.286
2.63796e-07
137.226
2.70385e-07
137.165
2.78073e-07
137.104
2.86566e-07
137.042
2.982e-07
136.981
2.9916e-07
136.919
3.07022e-07
136.858
3.23359e-07
136.798
3.36719e-07
136.738
3.46814e-07
136.679
3.55981e-07
136.622
3.6539e-07
136.565
3.75077e-07
136.51
3.8079e-07
136.457
3.93185e-07
136.405
4.02799e-07
136.355
4.08935e-07
136.306
4.14416e-07
136.258
4.189e-07
136.212
4.21809e-07
136.168
4.24219e-07
136.124
4.2486e-07
136.082
4.24568e-07
136.041
4.22682e-07
136.001
4.19804e-07
135.962
4.16087e-07
135.923
4.11206e-07
135.885
4.06253e-07
135.847
4.01124e-07
135.809
3.9724e-07
135.772
3.89274e-07
135.734
3.53005e-07
135.696
3.70274e-07
135.658
3.79311e-07
135.62
3.60965e-07
135.581
3.49851e-07
135.541
3.45688e-07
135.5
3.42676e-07
135.459
3.39691e-07
135.416
3.37702e-07
135.372
3.36433e-07
135.327
3.36374e-07
135.28
3.37546e-07
135.232
3.39752e-07
135.182
3.43587e-07
135.131
3.48372e-07
135.078
3.53792e-07
135.024
3.60277e-07
134.968
3.68368e-07
134.91
3.75966e-07
134.851
3.85292e-07
134.791
3.94283e-07
134.73
4.0318e-07
134.667
4.12387e-07
134.604
4.23999e-07
134.539
4.39008e-07
134.474
4.3992e-07
134.408
4.43936e-07
134.342
4.55249e-07
134.276
4.65056e-07
134.209
4.70249e-07
134.142
4.73107e-07
134.075
4.74451e-07
134.007
4.75486e-07
133.94
4.74569e-07
133.873
4.73076e-07
133.805
4.69249e-07
133.738
4.65216e-07
133.671
4.59146e-07
133.603
4.5267e-07
133.536
4.45562e-07
133.469
4.3916e-07
133.402
4.3614e-07
133.335
4.07236e-07
133.268
4.02755e-07
133.202
3.98526e-07
133.136
3.88719e-07
133.07
3.79409e-07
133.005
3.71003e-07
132.94
3.63481e-07
132.877
3.5701e-07
132.814
3.5175e-07
132.753
3.47829e-07
132.693
3.45374e-07
132.635
3.4448e-07
132.579
3.45187e-07
132.525
3.47499e-07
132.473
3.51375e-07
132.425
3.56713e-07
132.379
3.63381e-07
132.337
3.71181e-07
132.297
3.79903e-07
132.261
3.89283e-07
132.228
3.99047e-07
132.198
4.08911e-07
132.172
4.1859e-07
132.148
4.27835e-07
132.127
4.3641e-07
132.108
4.44129e-07
132.091
4.50856e-07
132.075
4.56506e-07
132.061
4.61036e-07
132.048
4.64457e-07
132.036
4.66809e-07
132.024
4.68152e-07
132.012
4.68564e-07
132
4.68126e-07
131.988
4.66904e-07
131.975
4.64957e-07
131.961
4.62339e-07
131.946
4.59093e-07
131.93
4.5528e-07
131.912
4.50947e-07
131.893
4.46198e-07
131.872
4.41129e-07
131.849
4.35898e-07
131.824
4.30666e-07
131.797
4.25668e-07
131.769
4.21066e-07
131.739
4.17109e-07
131.707
4.14084e-07
131.674
4.11935e-07
131.64
4.11628e-07
131.605
4.1171e-07
131.57
4.1545e-07
131.535
4.17439e-07
131.501
4.27155e-07
131.469
4.29089e-07
131.437
4.47458e-07
131.408
4.45729e-07
131.381
4.74449e-07
131.357
4.65241e-07
131.335
5.01073e-07
131.316
5.08057e-07
131.299
5.51086e-07
131.285
8.79633e-07
131.273
2.71815e-06
131.263
1.57171e-05
131.254
0.000126015
131.247
0.000876871
131.239
0.00634199
131.221
0.0455427
131.082
0.361277
1.53824
130.59
11.5197
-0.000327753
11.5193
-0.000235095
11.519
-0.000224831
11.5186
-0.000226919
11.5183
-0.000227472
11.5181
-0.000227325
11.5179
-0.000227352
11.5177
-0.000227313
11.5175
-0.000227048
11.5174
-0.000226369
11.5172
-0.000224989
11.5171
-0.00022252
11.517
-0.000218492
11.5169
-0.000212416
11.5169
-0.000203872
11.5168
-0.00019261
11.5168
-0.000178625
11.5167
-0.000162212
11.5167
-0.000143945
11.5166
-0.00012461
11.5165
-0.00010509
11.5164
-8.62748e-05
11.5162
-6.88799e-05
11.516
-5.34816e-05
11.5158
-4.03557e-05
11.5155
-2.95881e-05
11.5151
-2.10748e-05
11.5147
-1.45747e-05
11.5141
-9.77771e-06
11.5135
-6.35052e-06
11.5128
-3.97825e-06
11.512
-2.38433e-06
11.5111
-1.34437e-06
11.5101
-6.85177e-07
11.5089
-2.79446e-07
11.5076
-3.86262e-08
11.5062
1.04805e-07
11.5046
1.84265e-07
11.5029
2.27908e-07
11.501
2.51026e-07
11.499
2.62809e-07
11.4967
2.68526e-07
11.4943
2.71199e-07
11.4917
2.72174e-07
11.4889
2.72619e-07
11.4859
2.73061e-07
11.4826
2.73514e-07
11.4792
2.74229e-07
11.4756
2.75584e-07
11.4718
2.76605e-07
11.4678
2.79e-07
11.4636
2.82311e-07
11.4593
2.84999e-07
11.4548
2.90045e-07
11.4501
2.94556e-07
11.4454
3.00943e-07
11.4405
3.0776e-07
11.4355
3.15431e-07
11.4304
3.24406e-07
11.4253
3.34216e-07
11.4202
3.48515e-07
11.4151
3.47643e-07
11.4099
3.58601e-07
11.4048
3.77842e-07
11.3998
3.92663e-07
11.3948
4.04596e-07
11.3899
4.15284e-07
11.3851
4.26277e-07
11.3804
4.37914e-07
11.3759
4.43382e-07
11.3714
4.59419e-07
11.3671
4.69961e-07
11.3629
4.77083e-07
11.3588
4.83582e-07
11.3549
4.88806e-07
11.351
4.9214e-07
11.3473
4.95051e-07
11.3437
4.95687e-07
11.3402
4.95427e-07
11.3368
4.93126e-07
11.3334
4.89774e-07
11.3301
4.85426e-07
11.3269
4.79653e-07
11.3237
4.73974e-07
11.3206
4.67815e-07
11.3174
4.6376e-07
11.3143
4.55639e-07
11.3112
4.0713e-07
11.308
4.36741e-07
11.3049
4.42253e-07
11.3017
4.19786e-07
11.2984
4.0841e-07
11.2951
4.03346e-07
11.2917
3.99836e-07
11.2882
3.96327e-07
11.2847
3.94062e-07
11.281
3.92482e-07
11.2772
3.92442e-07
11.2733
3.93808e-07
11.2693
3.96332e-07
11.2652
4.00858e-07
11.2609
4.06428e-07
11.2565
4.12732e-07
11.252
4.2023e-07
11.2473
4.29862e-07
11.2425
4.38469e-07
11.2376
4.49591e-07
11.2326
4.59984e-07
11.2275
4.70323e-07
11.2223
4.80904e-07
11.217
4.94665e-07
11.2116
5.12629e-07
11.2062
5.12582e-07
11.2007
5.17926e-07
11.1952
5.31378e-07
11.1896
5.42688e-07
11.1841
5.48614e-07
11.1785
5.51991e-07
11.1729
5.53428e-07
11.1673
5.54806e-07
11.1617
5.53553e-07
11.1561
5.52018e-07
11.1504
5.47319e-07
11.1448
5.42837e-07
11.1392
5.35558e-07
11.1336
5.28093e-07
11.128
5.19674e-07
11.1224
5.12036e-07
11.1168
5.10796e-07
11.1113
4.72852e-07
11.1057
4.70322e-07
11.1002
4.65276e-07
11.0946
4.53501e-07
11.0892
4.42647e-07
11.0837
4.32845e-07
11.0784
4.24068e-07
11.073
4.16509e-07
11.0678
4.10362e-07
11.0627
4.05787e-07
11.0577
4.02926e-07
11.0529
4.0188e-07
11.0482
4.02702e-07
11.0437
4.05396e-07
11.0394
4.09913e-07
11.0354
4.16139e-07
11.0316
4.23921e-07
11.028
4.33021e-07
11.0248
4.43197e-07
11.0218
4.54145e-07
11.019
4.65536e-07
11.0165
4.77046e-07
11.0143
4.88342e-07
11.0123
4.99129e-07
11.0105
5.09135e-07
11.009
5.18145e-07
11.0075
5.25995e-07
11.0063
5.32587e-07
11.0051
5.37872e-07
11.004
5.41864e-07
11.003
5.44607e-07
11.002
5.46175e-07
11.001
5.46652e-07
11
5.46137e-07
10.999
5.44713e-07
10.9979
5.42441e-07
10.9967
5.39385e-07
10.9955
5.356e-07
10.9941
5.3115e-07
10.9927
5.26095e-07
10.9911
5.20551e-07
10.9893
5.14638e-07
10.9874
5.08531e-07
10.9853
5.02427e-07
10.9831
4.96593e-07
10.9807
4.91211e-07
10.9782
4.86623e-07
10.9756
4.83013e-07
10.9728
4.80661e-07
10.97
4.79984e-07
10.9671
4.80662e-07
10.9642
4.83973e-07
10.9613
4.88102e-07
10.9584
4.96411e-07
10.9557
5.03489e-07
10.9531
5.17623e-07
10.9507
5.26044e-07
10.9484
5.45821e-07
10.9464
5.53366e-07
10.9446
5.76227e-07
10.943
5.89178e-07
10.9416
6.14009e-07
10.9404
7.34572e-07
10.9394
1.36556e-06
10.9386
5.66072e-06
10.9379
4.33432e-05
10.9379
0.000297928
10.9416
0.00216954
10.9707
0.016153
11.1552
0.176583
0.667551
12.026
5.7595
5.75906
5.75864
5.75823
5.75783
5.75747
5.75712
5.75678
5.75645
5.75613
5.75582
5.75552
5.75524
5.75497
5.75473
5.75449
5.75428
5.75408
5.7539
5.75374
5.75358
5.75343
5.75327
5.75312
5.75295
5.75276
5.75256
5.75232
5.75205
5.75173
5.75138
5.75097
5.75052
5.75
5.74943
5.74878
5.74807
5.74729
5.74642
5.74548
5.74445
5.74333
5.74211
5.7408
5.7394
5.7379
5.73629
5.73459
5.73278
5.73088
5.72888
5.72679
5.72462
5.72237
5.72004
5.71765
5.71521
5.71272
5.71019
5.70764
5.70508
5.70251
5.69994
5.6974
5.69487
5.69239
5.68994
5.68754
5.6852
5.68291
5.68069
5.67852
5.67642
5.67439
5.67241
5.6705
5.66864
5.66684
5.66508
5.66337
5.6617
5.66005
5.65844
5.65685
5.65527
5.65371
5.65214
5.65058
5.64901
5.64742
5.64582
5.64419
5.64254
5.64084
5.63911
5.63733
5.6355
5.63362
5.63167
5.62966
5.62759
5.62546
5.62326
5.62099
5.61865
5.61626
5.61381
5.6113
5.60874
5.60613
5.60349
5.60081
5.5981
5.59536
5.5926
5.58983
5.58705
5.58426
5.58146
5.57865
5.57585
5.57304
5.57024
5.56743
5.56463
5.56183
5.55902
5.55623
5.55344
5.55065
5.54787
5.5451
5.54234
5.53961
5.53689
5.5342
5.53155
5.52894
5.52639
5.52389
5.52147
5.51913
5.51689
5.51475
5.51273
5.51083
5.50906
5.50742
5.50591
5.50454
5.50331
5.50219
5.5012
5.50031
5.49952
5.49881
5.49817
5.49759
5.49705
5.49654
5.49604
5.49555
5.49505
5.49453
5.49399
5.49341
5.49279
5.49212
5.49138
5.49058
5.4897
5.48875
5.48772
5.48661
5.48542
5.48416
5.48284
5.48146
5.48004
5.47859
5.47714
5.4757
5.47428
5.47292
5.47162
5.4704
5.46928
5.46827
5.46737
5.46657
5.46588
5.46528
5.46477
5.46435
5.46403
5.46404
5.46597
5.48196
5.65847
6.32605
4.82921
0.120039
4.83603
-0.0068118
4.83198
0.00407415
4.83572
-0.00373198
4.84924
-0.0135095
4.87532
-0.0260589
4.95256
-0.0772068
5.07016
-0.117692
5.14728
-0.0773091
5.13271
0.01444
5.05703
0.0758127
4.94048
0.116917
4.83591
0.105449
4.92481
-0.0866238
5.30658
-0.37986
5.89339
-0.586017
6.4621
-0.569644
6.79766
-0.337916
6.83152
-0.0371684
-0.157767
6.98652
10.0952
0.168972
10.1123
-0.0239177
10.1569
-0.0404789
10.2089
-0.0557454
10.2738
-0.0783843
10.3604
-0.11256
10.5561
-0.272905
10.8387
-0.400486
11.0498
-0.288828
11.0855
-0.0214178
10.9932
0.168453
10.7933
0.317515
10.5416
0.358876
10.5686
-0.109313
11.1077
-0.915255
12.0902
-1.56751
13.2453
-1.72716
14.1555
-1.2534
14.5021
-0.389696
-0.30563
14.6452
130.642
0.117679
130.712
-0.0936402
130.711
-0.03994
130.554
0.102256
130.247
0.229205
129.83
0.304505
129.197
0.362121
128.448
0.348565
127.783
0.379451
127.417
0.344003
127.242
0.343936
127.24
0.318169
127.305
0.293037
126.922
0.270441
125.755
0.24894
123.968
0.221453
122.068
0.179066
120.707
0.116872
120.295
0.0313954
-0.175799
120.173
11.9714
0.172255
11.8824
-0.00460943
11.8464
-0.00390627
11.9221
0.0265698
12.0942
0.0571289
12.319
0.0797242
12.5822
0.0981746
12.8326
0.0986241
13.1047
0.106806
13.3504
0.098748
13.5977
0.0965739
13.8278
0.0880602
14.0419
0.0790378
14.2419
0.0704038
14.4297
0.0611618
14.6035
0.0477063
14.7575
0.0250336
14.8864
-0.012027
14.9915
-0.0736524
-0.248295
15.0641
6.49831
6.49371
6.48982
6.51639
6.57353
6.65322
6.75118
6.84989
6.95656
7.05544
7.15202
7.24008
7.31912
7.38954
7.45071
7.49842
7.52345
7.51144
7.43781
7.18954
6.90359
0.0817517
7.26256
-0.35698
7.60034
-0.338639
7.65608
-0.0567555
7.60972
0.0463535
7.59001
0.0197172
7.62389
-0.0338451
7.65554
-0.0318182
7.66372
-0.00828503
7.66008
0.00366071
7.655
0.00509066
7.65229
0.00271229
7.65827
-0.00591385
7.67018
-0.011893
7.67587
-0.00569412
7.6739
0.00197847
7.66398
0.00993756
7.64357
0.0204452
7.61051
0.03312
7.56178
0.0487617
7.4934
0.0680113
7.39959
0.0910017
7.27652
0.114847
7.12844
0.143262
6.95824
0.169188
6.77101
0.188984
6.5768
0.203576
6.38137
0.202188
6.19425
0.189907
6.02622
0.168624
5.88382
0.142006
5.76895
0.11344
5.68053
0.0876194
5.6149
0.0652434
5.56751
0.047213
5.53409
0.0333596
5.51098
0.0230911
5.49528
0.0156915
5.48479
0.0104814
5.47789
0.00688572
5.47341
0.00444955
5.47055
0.00282794
5.46873
0.00176733
5.46758
0.0010858
5.46686
0.000655645
5.46639
0.00038903
5.46608
0.00022682
5.46586
0.000129853
5.4657
7.30584e-05
5.46558
4.03475e-05
5.46548
2.18571e-05
5.46539
1.15937e-05
5.46532
5.99782e-06
5.46527
3.00057e-06
5.46523
1.42253e-06
5.4652
6.056e-07
5.46519
1.90175e-07
5.46519
-1.85191e-08
5.4652
-1.21539e-07
5.46522
-1.69977e-07
5.46525
-1.93011e-07
5.46529
-2.03136e-07
5.46533
-2.06523e-07
5.46538
-2.06697e-07
5.46542
-2.05047e-07
5.46546
-2.02659e-07
5.46549
-1.99219e-07
5.46552
-1.95234e-07
5.46553
-1.9109e-07
5.46554
-1.86266e-07
5.46553
-1.80788e-07
5.4655
-1.75052e-07
5.46546
-1.70581e-07
5.46541
-1.67922e-07
5.46534
-1.64346e-07
5.46524
-1.5311e-07
5.46514
-1.43211e-07
5.46501
-1.39114e-07
5.46486
-1.35215e-07
5.4647
-1.30758e-07
5.46451
-1.25861e-07
5.46431
-1.21341e-07
5.46408
-1.17221e-07
5.46384
-1.13792e-07
5.46357
-1.10384e-07
5.46328
-1.08297e-07
5.46296
-1.06113e-07
5.46263
-1.04723e-07
5.46226
-1.04032e-07
5.46187
-1.03415e-07
5.46146
-1.03642e-07
5.46101
-1.04224e-07
5.46054
-1.04808e-07
5.46003
-1.05991e-07
5.45949
-1.0736e-07
5.45892
-1.08526e-07
5.4583
-1.10073e-07
5.45765
-1.1158e-07
5.45696
-1.13278e-07
5.45623
-1.14796e-07
5.45546
-1.15882e-07
5.45465
-1.16617e-07
5.45379
-1.17236e-07
5.45289
-1.17809e-07
5.45195
-1.18174e-07
5.45097
-1.18165e-07
5.44994
-1.1783e-07
5.44887
-1.17123e-07
5.44775
-1.16315e-07
5.4466
-1.15439e-07
5.44541
-1.14518e-07
5.44418
-1.13638e-07
5.44292
-1.12594e-07
5.44163
-1.11697e-07
5.44031
-1.10691e-07
5.43896
-1.09789e-07
5.43759
-1.08937e-07
5.4362
-1.08184e-07
5.4348
-1.07586e-07
5.43338
-1.072e-07
5.43197
-1.07144e-07
5.43055
-1.07464e-07
5.42914
-1.08321e-07
5.42774
-1.09774e-07
5.42636
-1.11842e-07
5.425
-1.1442e-07
5.42367
-1.17487e-07
5.42238
-1.21068e-07
5.42113
-1.25296e-07
5.41993
-1.3022e-07
5.41878
-1.35848e-07
5.41769
-1.42134e-07
5.41665
-1.4903e-07
5.41569
-1.56491e-07
5.41479
-1.64437e-07
5.41396
-1.72751e-07
5.4132
-1.81339e-07
5.41251
-1.90073e-07
5.41188
-1.98814e-07
5.41132
-2.07463e-07
5.41083
-2.15918e-07
5.41039
-2.2411e-07
5.41
-2.31961e-07
5.40965
-2.39384e-07
5.40935
-2.46313e-07
5.40908
-2.52696e-07
5.40883
-2.58487e-07
5.4086
-2.63648e-07
5.40838
-2.68132e-07
5.40816
-2.71941e-07
5.40794
-2.75091e-07
5.40771
-2.77607e-07
5.40746
-2.7952e-07
5.4072
-2.80845e-07
5.4069
-2.8157e-07
5.40658
-2.81749e-07
5.40623
-2.8147e-07
5.40585
-2.80741e-07
5.40542
-2.79535e-07
5.40496
-2.77882e-07
5.40445
-2.75826e-07
5.4039
-2.73381e-07
5.40329
-2.70566e-07
5.40264
-2.67402e-07
5.40194
-2.63875e-07
5.40118
-2.59977e-07
5.40037
-2.55744e-07
5.39951
-2.51235e-07
5.39859
-2.46508e-07
5.39762
-2.41671e-07
5.3966
-2.36885e-07
5.39553
-2.32261e-07
5.39441
-2.27996e-07
5.39326
-2.24096e-07
5.39207
-2.21009e-07
5.39086
-2.1819e-07
5.38962
-2.16762e-07
5.38838
-2.15168e-07
5.38713
-2.15827e-07
5.38589
-2.16151e-07
5.38467
-2.18803e-07
5.38348
-2.22723e-07
5.38233
-2.25236e-07
5.38123
-2.36854e-07
5.38019
-2.36738e-07
5.37923
-2.50879e-07
5.37834
-2.56381e-07
5.37754
-2.72828e-07
5.37683
-2.84041e-07
5.37621
-3.31929e-07
5.37568
-5.12546e-07
5.37524
-1.41725e-06
5.37489
-5.99807e-06
5.37463
-2.96381e-05
5.37457
-0.00015156
5.3752
-0.000782513
5.3792
-0.00409519
5.40127
-0.0221127
5.56289
-0.161614
-0.627342
6.19028
13.7586
0.966892
13.987
-0.581497
14.5519
-0.905347
14.7087
-0.215606
14.6158
0.139126
14.5394
0.0961915
14.5768
-0.0712507
14.6403
-0.0955232
14.6681
-0.0363289
14.6653
0.00650073
14.6511
0.0193351
14.6347
0.0191271
14.6321
-0.00322086
14.6457
-0.0254751
14.6534
-0.0133937
14.6469
0.0085258
14.6239
0.0329322
14.58
0.0645497
14.5119
0.101328
14.416
0.144867
14.2877
0.19619
14.1213
0.255424
13.9117
0.318991
13.6627
0.389261
13.3779
0.45375
13.0652
0.50286
12.7417
0.532787
12.4197
0.528461
12.1162
0.495581
11.8455
0.4401
11.6167
0.371056
11.4321
0.298099
11.2894
0.230317
11.1828
0.171821
11.1056
0.124418
11.0512
0.0878507
11.0136
0.0606828
10.9882
0.0410982
10.9714
0.0273303
10.9604
0.0178604
10.9533
0.0114745
10.9488
0.00724831
10.946
0.00450186
10.9442
0.00274895
10.9431
0.00165016
10.9423
0.000973683
10.9418
0.000564771
10.9415
0.000321853
10.9412
0.000180397
10.941
9.93369e-05
10.9408
5.37503e-05
10.9406
2.85644e-05
10.9405
1.48892e-05
10.9404
7.59206e-06
10.9403
3.7637e-06
10.9402
1.78863e-06
10.9402
7.87598e-07
10.9402
2.8623e-07
10.9402
3.87819e-08
10.9403
-7.75465e-08
10.9403
-1.33937e-07
10.9404
-1.59691e-07
10.9405
-1.70531e-07
10.9406
-1.74278e-07
10.9407
-1.74502e-07
10.9407
-1.73115e-07
10.9408
-1.70528e-07
10.9408
-1.67258e-07
10.9409
-1.63704e-07
10.9409
-1.5962e-07
10.9409
-1.54967e-07
10.9408
-1.50123e-07
10.9407
-1.46147e-07
10.9406
-1.43694e-07
10.9405
-1.40542e-07
10.9403
-1.31365e-07
10.9401
-1.23083e-07
10.9398
-1.19191e-07
10.9395
-1.15775e-07
10.9392
-1.12016e-07
10.9388
-1.07877e-07
10.9384
-1.04005e-07
10.938
-1.00478e-07
10.9375
-9.74895e-08
10.9369
-9.4672e-08
10.9364
-9.27282e-08
10.9357
-9.09752e-08
10.935
-8.97296e-08
10.9343
-8.91072e-08
10.9335
-8.86353e-08
10.9327
-8.87819e-08
10.9318
-8.92849e-08
10.9309
-8.98274e-08
10.9299
-9.07924e-08
10.9288
-9.19886e-08
10.9276
-9.30129e-08
10.9264
-9.42966e-08
10.9251
-9.56139e-08
10.9237
-9.70512e-08
10.9223
-9.83889e-08
10.9207
-9.93283e-08
10.9191
-9.99581e-08
10.9174
-1.00481e-07
10.9156
-1.00949e-07
10.9137
-1.01305e-07
10.9117
-1.01284e-07
10.9097
-1.00998e-07
10.9075
-1.00429e-07
10.9053
-9.96727e-08
10.903
-9.89186e-08
10.9006
-9.81488e-08
10.8982
-9.73787e-08
10.8956
-9.65119e-08
10.893
-9.57167e-08
10.8904
-9.48797e-08
10.8877
-9.40981e-08
10.885
-9.33787e-08
10.8822
-9.27392e-08
10.8794
-9.22215e-08
10.8765
-9.1886e-08
10.8737
-9.18396e-08
10.8709
-9.21176e-08
10.8681
-9.28388e-08
10.8653
-9.4083e-08
10.8625
-9.58528e-08
10.8598
-9.80648e-08
10.8571
-1.00682e-07
10.8545
-1.03752e-07
10.852
-1.0737e-07
10.8496
-1.11589e-07
10.8473
-1.16413e-07
10.8451
-1.21799e-07
10.8431
-1.27711e-07
10.8411
-1.34116e-07
10.8394
-1.40935e-07
10.8377
-1.48071e-07
10.8362
-1.55438e-07
10.8348
-1.62938e-07
10.8335
-1.70436e-07
10.8324
-1.77851e-07
10.8314
-1.85101e-07
10.8305
-1.92124e-07
10.8298
-1.98849e-07
10.8291
-2.0521e-07
10.8285
-2.11145e-07
10.8279
-2.16605e-07
10.8274
-2.21565e-07
10.827
-2.25978e-07
10.8265
-2.29817e-07
10.8261
-2.3308e-07
10.8256
-2.35777e-07
10.8252
-2.37936e-07
10.8247
-2.39577e-07
10.8241
-2.40712e-07
10.8236
-2.41338e-07
10.8229
-2.41502e-07
10.8222
-2.41267e-07
10.8214
-2.40639e-07
10.8206
-2.39607e-07
10.8197
-2.38196e-07
10.8187
-2.36436e-07
10.8175
-2.34338e-07
10.8163
-2.31928e-07
10.815
-2.29219e-07
10.8136
-2.26195e-07
10.8121
-2.22855e-07
10.8105
-2.19228e-07
10.8088
-2.15367e-07
10.8069
-2.11303e-07
10.805
-2.07172e-07
10.8029
-2.03045e-07
10.8008
-1.99101e-07
10.7986
-1.95441e-07
10.7963
-1.92038e-07
10.7939
-1.89606e-07
10.7914
-1.86711e-07
10.789
-1.86337e-07
10.7865
-1.83707e-07
10.784
-1.85685e-07
10.7815
-1.84374e-07
10.7791
-1.87425e-07
10.7767
-1.91966e-07
10.7744
-1.88905e-07
10.7722
-2.1146e-07
10.7701
-1.94992e-07
10.7682
-2.20173e-07
10.7664
-2.16038e-07
10.7648
-2.44373e-07
10.7634
-2.54515e-07
10.7622
-3.73267e-07
10.7611
-8.82981e-07
10.7602
-3.52921e-06
10.7595
-1.70212e-05
10.759
-8.67324e-05
10.7589
-0.000446249
10.7601
-0.0023042
10.7678
-0.0119666
10.8079
-0.062399
10.9942
-0.347878
-1.43115
11.7981
121.075
0.0566042
120.433
0.0468316
119.484
0.0379066
119.242
0.0234029
119.366
0.0122359
119.447
0.0139561
119.36
0.0139902
119.254
0.00932016
119.212
0.00540508
119.214
0.00376451
119.231
0.0027823
119.249
0.00155387
119.254
-0.00791863
119.257
-0.028337
119.305
-0.0585259
119.421
-0.0987317
119.618
-0.150228
119.906
-0.213587
120.301
-0.286084
120.812
-0.362029
121.444
-0.432237
122.189
-0.486919
123.028
-0.518104
123.942
-0.520946
124.9
-0.500828
125.87
-0.46136
126.816
-0.408774
127.7
-0.351094
128.491
-0.292434
129.17
-0.235923
129.728
-0.185203
130.17
-0.141492
130.507
-0.105216
130.757
-0.0761459
130.937
-0.0536701
131.062
-0.036816
131.149
-0.0245891
131.206
-0.015994
131.244
-0.0101338
131.268
-0.00625331
131.283
-0.00375878
131.291
-0.00219964
131.296
-0.00125237
131.298
-0.000693052
131.298
-0.000372221
131.297
-0.000193545
131.296
-9.71304e-05
131.294
-4.67365e-05
131.292
-2.14055e-05
131.291
-9.14528e-06
131.289
-3.50661e-06
131.287
-1.06941e-06
131.285
-1.06646e-07
131.284
2.18172e-07
131.283
2.92756e-07
131.283
2.83002e-07
131.282
2.54444e-07
131.282
2.28496e-07
131.283
2.09891e-07
131.283
1.98134e-07
131.284
1.90713e-07
131.285
1.86088e-07
131.286
1.82625e-07
131.287
1.79737e-07
131.288
1.76929e-07
131.289
1.74182e-07
131.29
1.7099e-07
131.29
1.67453e-07
131.29
1.63787e-07
131.291
1.59654e-07
131.29
1.54983e-07
131.29
1.5013e-07
131.289
1.46152e-07
131.287
1.43697e-07
131.286
1.40545e-07
131.284
1.31368e-07
131.281
1.23085e-07
131.278
1.19193e-07
131.274
1.15775e-07
131.27
1.12016e-07
131.266
1.07877e-07
131.261
1.04006e-07
131.256
1.00477e-07
131.25
9.74923e-08
131.243
9.46731e-08
131.236
9.27262e-08
131.229
9.09698e-08
131.221
8.97276e-08
131.212
8.9106e-08
131.203
8.86334e-08
131.193
8.87823e-08
131.182
8.92833e-08
131.17
8.9827e-08
131.158
9.07937e-08
131.145