/*--------------------------------*- C++ -*----------------------------------*\
| =========                 |                                                 |
| \\      /  F ield         | OpenFOAM: The Open Source CFD Toolbox           |
|  \\    /   O peration     | Version:  3.0.x                                 |
|   \\  /    A nd           | Web:      www.OpenFOAM.org                      |
|    \\/     M anipulation  |                                                 |
\*---------------------------------------------------------------------------*/
FoamFile
{
    version     2.0;
    format      ascii;
    class       volScalarField;
    location    "0.51";
    object      rho;
}
// * * * * * * * * * * * * * * * * * * * * * * * * * * * * * * * * * * * * * //

dimensions      [1 -3 0 0 0 0 0];

internalField   nonuniform List<scalar> 
6900
(
51.1157
51.1165
51.1178
51.1189
51.1198
51.1209
51.122
51.1231
51.1244
51.1257
51.1271
51.1287
51.1303
51.1321
51.1339
51.1359
51.1379
51.14
51.1423
51.1446
51.147
51.1495
51.1521
51.1548
51.1576
51.1605
51.1634
51.1665
51.1697
51.1729
51.1763
51.1797
51.1833
51.1869
51.1907
51.1946
51.1985
51.2026
51.2068
51.2111
51.2155
51.22
51.2247
51.2296
51.2346
51.2397
51.2449
51.2502
51.2556
51.261
51.2665
51.2721
51.2779
51.2837
51.2896
51.2957
51.3019
51.3082
51.3146
51.3211
51.3277
51.3343
51.341
51.3476
51.3543
51.3611
51.368
51.3749
51.382
51.3892
51.3964
51.4038
51.4113
51.4188
51.4264
51.4341
51.4418
51.4496
51.4575
51.4655
51.4736
51.4818
51.49
51.4984
51.5068
51.5154
51.524
51.5327
51.5415
51.5504
51.5594
51.5684
51.5776
51.5868
51.596
51.6054
51.6148
51.6243
51.6338
51.6434
51.653
51.6628
51.6725
51.6823
51.6922
51.7021
51.7121
51.7221
51.7322
51.7424
51.7526
51.7628
51.7731
51.7835
51.794
51.8045
51.8151
51.8257
51.8364
51.8472
51.858
51.869
51.8799
51.891
51.9021
51.9133
51.9246
51.9359
51.9473
51.9588
51.9703
51.9819
51.9935
52.0053
52.017
52.0289
52.0407
52.0527
52.0647
52.0767
52.0887
52.1008
52.113
52.1251
52.1373
52.1496
52.1618
52.1741
52.1864
52.1987
52.211
52.2234
52.2357
52.2481
52.2605
52.273
52.2854
52.2979
52.3104
52.3229
52.3355
52.348
52.3606
52.3732
52.3858
52.3984
52.411
52.4237
52.4363
52.449
52.4617
52.4744
52.4871
52.4998
52.5125
52.5252
52.5379
52.5506
52.5633
52.5761
52.5888
52.6015
52.6143
52.627
52.6398
52.6524
52.6653
52.6778
52.6909
52.7033
52.7164
52.7287
52.742
52.754
52.7674
52.7794
52.7927
52.805
52.8175
52.8306
51.1159
51.1168
51.118
51.1191
51.1201
51.1211
51.1222
51.1234
51.1246
51.1259
51.1274
51.1289
51.1305
51.1323
51.1341
51.1361
51.1381
51.1403
51.1425
51.1448
51.1472
51.1497
51.1523
51.155
51.1578
51.1607
51.1637
51.1667
51.1699
51.1731
51.1765
51.1799
51.1835
51.1871
51.1909
51.1948
51.1987
51.2028
51.207
51.2113
51.2157
51.2202
51.2249
51.2298
51.2348
51.2399
51.2451
51.2504
51.2558
51.2612
51.2667
51.2723
51.278
51.2839
51.2898
51.2959
51.3021
51.3084
51.3148
51.3213
51.3279
51.3345
51.3411
51.3478
51.3545
51.3613
51.3681
51.3751
51.3822
51.3893
51.3966
51.404
51.4114
51.419
51.4266
51.4342
51.442
51.4498
51.4577
51.4657
51.4738
51.4819
51.4902
51.4985
51.507
51.5155
51.5241
51.5329
51.5417
51.5506
51.5595
51.5686
51.5777
51.5869
51.5962
51.6055
51.615
51.6244
51.634
51.6436
51.6532
51.6629
51.6727
51.6825
51.6923
51.7023
51.7122
51.7223
51.7324
51.7425
51.7527
51.763
51.7733
51.7837
51.7941
51.8047
51.8152
51.8259
51.8366
51.8474
51.8582
51.8691
51.8801
51.8911
51.9023
51.9135
51.9247
51.936
51.9474
51.9589
51.9704
51.982
51.9937
52.0054
52.0172
52.029
52.0409
52.0528
52.0648
52.0768
52.0889
52.101
52.1131
52.1253
52.1375
52.1497
52.162
52.1742
52.1865
52.1988
52.2112
52.2235
52.2359
52.2483
52.2607
52.2731
52.2856
52.2981
52.3106
52.3231
52.3356
52.3482
52.3607
52.3733
52.3859
52.3985
52.4112
52.4238
52.4365
52.4491
52.4618
52.4745
52.4872
52.4999
52.5126
52.5253
52.538
52.5508
52.5635
52.5762
52.589
52.6017
52.6144
52.6271
52.64
52.6526
52.6655
52.678
52.691
52.7034
52.7166
52.7288
52.7421
52.7542
52.7676
52.7795
52.7929
52.8048
52.8183
52.8299
51.1159
51.1168
51.118
51.1191
51.1201
51.1211
51.1222
51.1234
51.1246
51.1259
51.1274
51.1289
51.1305
51.1323
51.1341
51.1361
51.1381
51.1403
51.1425
51.1448
51.1472
51.1497
51.1523
51.155
51.1578
51.1607
51.1636
51.1667
51.1699
51.1731
51.1765
51.1799
51.1835
51.1871
51.1909
51.1948
51.1987
51.2028
51.207
51.2113
51.2157
51.2202
51.2249
51.2298
51.2348
51.2399
51.2451
51.2504
51.2558
51.2612
51.2667
51.2723
51.278
51.2839
51.2898
51.2959
51.3021
51.3084
51.3148
51.3213
51.3279
51.3345
51.3411
51.3478
51.3545
51.3613
51.3681
51.3751
51.3822
51.3893
51.3966
51.404
51.4114
51.419
51.4266
51.4342
51.442
51.4498
51.4577
51.4657
51.4738
51.4819
51.4902
51.4985
51.507
51.5155
51.5241
51.5329
51.5417
51.5506
51.5595
51.5686
51.5777
51.5869
51.5962
51.6055
51.615
51.6244
51.634
51.6436
51.6532
51.6629
51.6727
51.6825
51.6923
51.7023
51.7122
51.7223
51.7324
51.7425
51.7527
51.763
51.7733
51.7837
51.7941
51.8047
51.8152
51.8259
51.8366
51.8474
51.8582
51.8691
51.8801
51.8911
51.9023
51.9135
51.9247
51.936
51.9474
51.9589
51.9704
51.982
51.9937
52.0054
52.0172
52.029
52.0409
52.0528
52.0648
52.0768
52.0889
52.101
52.1131
52.1253
52.1375
52.1497
52.162
52.1742
52.1865
52.1988
52.2112
52.2235
52.2359
52.2483
52.2607
52.2731
52.2856
52.2981
52.3106
52.3231
52.3356
52.3482
52.3607
52.3733
52.3859
52.3985
52.4112
52.4238
52.4365
52.4491
52.4618
52.4745
52.4872
52.4999
52.5126
52.5253
52.538
52.5508
52.5635
52.5762
52.589
52.6017
52.6144
52.6271
52.6399
52.6526
52.6654
52.6781
52.6909
52.7036
52.7164
52.7291
52.7418
52.7545
52.7673
52.7797
52.7926
52.8053
52.8178
52.8303
51.1159
51.1168
51.118
51.1191
51.1201
51.1211
51.1222
51.1234
51.1246
51.1259
51.1274
51.1289
51.1305
51.1323
51.1341
51.1361
51.1381
51.1403
51.1425
51.1448
51.1472
51.1497
51.1523
51.155
51.1578
51.1607
51.1637
51.1667
51.1699
51.1731
51.1765
51.1799
51.1835
51.1871
51.1909
51.1948
51.1987
51.2028
51.207
51.2113
51.2157
51.2202
51.2249
51.2298
51.2348
51.2399
51.2451
51.2504
51.2558
51.2612
51.2667
51.2723
51.278
51.2839
51.2898
51.2959
51.3021
51.3084
51.3148
51.3213
51.3279
51.3345
51.3411
51.3478
51.3545
51.3613
51.3681
51.3751
51.3822
51.3893
51.3966
51.404
51.4114
51.419
51.4266
51.4342
51.442
51.4498
51.4577
51.4657
51.4738
51.4819
51.4902
51.4985
51.507
51.5155
51.5241
51.5329
51.5417
51.5506
51.5595
51.5686
51.5777
51.5869
51.5962
51.6055
51.615
51.6244
51.634
51.6436
51.6532
51.6629
51.6727
51.6825
51.6923
51.7023
51.7122
51.7223
51.7324
51.7425
51.7527
51.763
51.7733
51.7837
51.7941
51.8047
51.8152
51.8259
51.8366
51.8474
51.8582
51.8691
51.8801
51.8911
51.9023
51.9135
51.9247
51.936
51.9474
51.9589
51.9704
51.982
51.9937
52.0054
52.0172
52.029
52.0409
52.0528
52.0648
52.0768
52.0889
52.101
52.1131
52.1253
52.1375
52.1497
52.162
52.1742
52.1865
52.1988
52.2112
52.2235
52.2359
52.2483
52.2607
52.2731
52.2856
52.2981
52.3106
52.3231
52.3356
52.3482
52.3607
52.3733
52.3859
52.3985
52.4112
52.4238
52.4365
52.4491
52.4618
52.4745
52.4872
52.4999
52.5126
52.5253
52.538
52.5508
52.5635
52.5762
52.5889
52.6017
52.6144
52.6272
52.6398
52.6527
52.6653
52.6783
52.6907
52.7038
52.7161
52.7293
52.7415
52.7549
52.7668
52.7803
52.7921
52.8056
52.8173
52.8305
51.1157
51.1165
51.1178
51.1189
51.1198
51.1209
51.122
51.1231
51.1244
51.1257
51.1271
51.1287
51.1303
51.1321
51.1339
51.1359
51.1379
51.14
51.1423
51.1446
51.147
51.1495
51.1521
51.1548
51.1576
51.1605
51.1634
51.1665
51.1697
51.1729
51.1763
51.1797
51.1833
51.1869
51.1907
51.1946
51.1985
51.2026
51.2068
51.2111
51.2155
51.22
51.2247
51.2296
51.2346
51.2397
51.2449
51.2502
51.2556
51.261
51.2665
51.2721
51.2779
51.2837
51.2896
51.2957
51.3019
51.3082
51.3146
51.3211
51.3277
51.3343
51.341
51.3476
51.3543
51.3611
51.368
51.3749
51.382
51.3892
51.3964
51.4038
51.4113
51.4188
51.4264
51.4341
51.4418
51.4496
51.4575
51.4655
51.4736
51.4818
51.49
51.4984
51.5068
51.5154
51.524
51.5327
51.5415
51.5504
51.5594
51.5684
51.5776
51.5868
51.596
51.6054
51.6148
51.6243
51.6338
51.6434
51.653
51.6628
51.6725
51.6823
51.6922
51.7021
51.7121
51.7221
51.7322
51.7424
51.7526
51.7628
51.7731
51.7835
51.794
51.8045
51.8151
51.8257
51.8364
51.8472
51.858
51.869
51.8799
51.891
51.9021
51.9133
51.9246
51.9359
51.9473
51.9588
51.9703
51.9819
51.9935
52.0053
52.017
52.0289
52.0407
52.0527
52.0647
52.0767
52.0887
52.1008
52.113
52.1251
52.1373
52.1496
52.1618
52.1741
52.1864
52.1987
52.211
52.2234
52.2357
52.2481
52.2605
52.273
52.2854
52.2979
52.3104
52.3229
52.3355
52.348
52.3606
52.3732
52.3858
52.3984
52.411
52.4237
52.4363
52.449
52.4617
52.4744
52.4871
52.4998
52.5125
52.5252
52.5379
52.5506
52.5633
52.5761
52.5888
52.6016
52.6142
52.6271
52.6397
52.6526
52.6651
52.6781
52.6906
52.7037
52.716
52.7292
52.7413
52.7547
52.7666
52.7802
52.7919
52.8055
52.8168
52.83
52.8405
52.8442
52.8468
52.8488
52.8507
52.8523
52.8539
52.8562
52.8603
52.8643
52.8665
52.8655
52.8634
52.8633
52.8633
52.8629
52.8642
52.8685
52.8761
52.8841
52.8395
52.8426
52.8453
52.8475
52.8495
52.8512
52.8531
52.8555
52.8598
52.8637
52.8655
52.8638
52.8614
52.8617
52.8622
52.8622
52.8638
52.8684
52.8758
52.8812
52.838
52.8404
52.8426
52.8445
52.8462
52.8478
52.849
52.85
52.8506
52.8511
52.8515
52.8523
52.8529
52.8528
52.8522
52.8519
52.8512
52.8496
52.8472
52.8463
52.8369
52.839
52.8412
52.8431
52.8443
52.8453
52.8462
52.8471
52.8478
52.8485
52.8492
52.8499
52.8506
52.8514
52.8523
52.8531
52.8546
52.8552
52.8564
52.8574
52.8348
52.835
52.8365
52.8384
52.8396
52.8405
52.8412
52.8418
52.8423
52.8427
52.8431
52.8434
52.8438
52.8443
52.8449
52.8455
52.8464
52.8469
52.848
52.8492
52.8741
52.8698
52.8807
52.8949
52.9015
52.9066
52.9162
52.9286
52.9377
52.9443
52.953
52.9648
52.9754
52.9825
52.99
52.9995
53.0109
53.0218
53.0292
53.0363
53.0453
53.0547
53.0649
53.074
53.0821
53.0907
53.0997
53.1087
53.1175
53.1264
53.1352
53.144
53.1529
53.1617
53.1705
53.1794
53.1887
53.1969
53.2049
53.2134
53.2219
53.2303
53.2388
53.2472
53.2556
53.2639
53.2723
53.2805
53.2888
53.297
53.3052
53.3133
53.3214
53.3294
53.3373
53.3453
53.3531
53.361
53.3688
53.3766
53.3843
53.392
53.3997
53.4073
53.4149
53.4225
53.43
53.4375
53.4449
53.4523
53.4597
53.467
53.4742
53.4814
53.4886
53.4957
53.5028
53.5098
53.5168
53.5236
53.5305
53.5373
53.5441
53.5509
53.5578
53.5646
53.5714
53.5782
53.5855
53.594
53.5994
53.6038
53.6095
53.6161
53.6226
53.6292
53.6357
53.6422
53.6484
53.6544
53.6606
53.6673
53.674
53.6798
53.6847
53.6899
53.6962
53.7031
53.7095
53.7139
53.7141
53.7155
53.7204
53.727
53.7352
53.7455
53.7544
53.7618
53.768
53.7729
53.7769
53.7813
53.7858
53.7903
53.7948
53.7993
53.8038
53.8083
53.8127
53.8171
53.8215
53.8258
53.8301
53.8343
53.8385
53.8427
53.8468
53.8509
53.8549
53.8589
53.8628
53.8667
53.8706
53.8744
53.8782
53.8819
53.8856
53.8893
53.8929
53.8965
53.9
53.9035
53.907
53.9104
53.9138
53.9171
53.9204
53.9236
53.9268
53.9299
53.933
53.936
53.939
53.9419
53.9448
53.9476
53.9504
53.9531
53.9557
53.9583
53.9608
53.9633
53.9657
53.9681
53.9704
53.9727
53.9749
53.9772
53.9792
53.9815
53.9834
53.9856
53.9873
53.9895
53.9912
53.9934
53.9949
53.997
53.9985
54.0006
54.002
54.004
54.0053
54.0072
54.0085
54.0103
54.0116
54.0129
54.0148
54.0158
52.8717
52.8698
52.8794
52.8914
52.8992
52.905
52.9142
52.9243
52.9337
52.9415
52.9506
52.9609
52.9714
52.9795
52.9877
52.9969
53.0074
53.0181
53.0264
53.0344
53.0434
53.0526
53.0626
53.0719
53.0804
53.0892
53.0983
53.1073
53.1162
53.1251
53.134
53.1428
53.1517
53.1605
53.1692
53.1779
53.187
53.1954
53.2036
53.2121
53.2207
53.2292
53.2377
53.2461
53.2545
53.2629
53.2712
53.2795
53.2878
53.296
53.3041
53.3122
53.3203
53.3283
53.3362
53.3441
53.352
53.3599
53.3677
53.3755
53.3833
53.391
53.3987
53.4064
53.414
53.4216
53.4291
53.4366
53.444
53.4514
53.4587
53.466
53.4733
53.4805
53.4876
53.4947
53.5017
53.5087
53.5156
53.5224
53.5293
53.5362
53.5431
53.5498
53.5564
53.5629
53.5692
53.5757
53.5828
53.5913
53.5972
53.6021
53.6081
53.6147
53.6212
53.6276
53.6339
53.64
53.6465
53.6532
53.6597
53.6653
53.6704
53.6762
53.683
53.6898
53.696
53.7
53.7016
53.7035
53.7075
53.7138
53.721
53.7299
53.7399
53.7486
53.7561
53.7624
53.7677
53.772
53.7765
53.7811
53.7857
53.7903
53.7948
53.7994
53.8039
53.8084
53.8128
53.8173
53.8216
53.826
53.8302
53.8345
53.8387
53.8428
53.8469
53.851
53.855
53.859
53.863
53.8669
53.8707
53.8746
53.8783
53.8821
53.8858
53.8894
53.8931
53.8966
53.9002
53.9037
53.9071
53.9105
53.9139
53.9172
53.9205
53.9237
53.9269
53.93
53.9331
53.9362
53.9391
53.9421
53.9449
53.9478
53.9505
53.9532
53.9559
53.9585
53.961
53.9635
53.9659
53.9683
53.9706
53.9729
53.975
53.9773
53.9794
53.9816
53.9835
53.9857
53.9875
53.9897
53.9913
53.9935
53.9951
53.9972
53.9987
54.0007
54.0021
54.0041
54.0054
54.0073
54.0086
54.0104
54.0116
54.0133
54.0148
54.0157
52.8434
52.8565
52.8659
52.8729
52.8801
52.8881
52.8966
52.9049
52.9135
52.9227
52.9318
52.9407
52.9498
52.9593
52.9689
52.9783
52.9874
52.9965
53.006
53.0156
53.025
53.0342
53.0433
53.0524
53.0616
53.0708
53.0799
53.089
53.0981
53.1071
53.1161
53.1251
53.1339
53.1428
53.1515
53.1602
53.1688
53.1774
53.1861
53.1947
53.2034
53.2119
53.2205
53.229
53.2375
53.246
53.2544
53.2628
53.2712
53.2795
53.2877
53.2958
53.3039
53.3119
53.3199
53.3278
53.3356
53.3434
53.3512
53.359
53.3668
53.3745
53.3822
53.3898
53.3973
53.4048
53.4122
53.4196
53.4269
53.4342
53.4414
53.4484
53.4554
53.4623
53.4693
53.4762
53.4829
53.4896
53.4963
53.5032
53.5106
53.5189
53.5275
53.5366
53.5464
53.5558
53.5647
53.5733
53.5815
53.5889
53.5961
53.603
53.6097
53.6162
53.6225
53.6288
53.635
53.6412
53.6475
53.6538
53.6601
53.6665
53.6728
53.679
53.6853
53.6915
53.6976
53.7038
53.7099
53.7159
53.7219
53.7279
53.7337
53.7393
53.7449
53.7502
53.7555
53.7606
53.7656
53.7706
53.7755
53.7803
53.7851
53.7899
53.7945
53.7992
53.8038
53.8083
53.8128
53.8172
53.8216
53.8259
53.8302
53.8345
53.8387
53.8428
53.8469
53.851
53.855
53.859
53.863
53.8669
53.8707
53.8746
53.8783
53.8821
53.8858
53.8894
53.8931
53.8966
53.9002
53.9037
53.9071
53.9105
53.9139
53.9172
53.9205
53.9237
53.9269
53.93
53.9331
53.9362
53.9391
53.9421
53.9449
53.9477
53.9505
53.9532
53.9559
53.9584
53.961
53.9635
53.9659
53.9683
53.9706
53.9728
53.9751
53.9772
53.9794
53.9815
53.9836
53.9856
53.9876
53.9895
53.9915
53.9934
53.9952
53.997
53.9989
54.0005
54.0024
54.0039
54.0056
54.0072
54.0087
54.0103
54.0118
54.0132
54.0146
54.016
52.8587
52.8688
52.8777
52.8862
52.8952
52.9044
52.9134
52.9223
52.9314
52.9406
52.9499
52.959
52.9681
52.9774
52.9868
52.9961
53.0053
53.0144
53.0236
53.033
53.0423
53.0515
53.0607
53.0699
53.0791
53.0883
53.0974
53.1066
53.1156
53.1247
53.1337
53.1426
53.1516
53.1604
53.1692
53.178
53.1867
53.1953
53.204
53.2126
53.2212
53.2297
53.2382
53.2466
53.255
53.2634
53.2717
53.28
53.2882
53.2964
53.3045
53.3127
53.3208
53.3288
53.3368
53.3448
53.3527
53.3606
53.3684
53.3762
53.3839
53.3916
53.3992
53.4068
53.4144
53.4219
53.4294
53.4368
53.4443
53.4516
53.459
53.4663
53.4735
53.4808
53.488
53.4951
53.5022
53.5093
53.5163
53.5233
53.5303
53.5372
53.5441
53.5512
53.558
53.5647
53.5714
53.5781
53.5845
53.5905
53.5964
53.6029
53.6096
53.616
53.6221
53.6283
53.6345
53.6406
53.6464
53.6522
53.6578
53.6634
53.6689
53.6741
53.6785
53.6824
53.6865
53.6922
53.6991
53.7066
53.7153
53.7245
53.7329
53.7404
53.747
53.7526
53.7571
53.7619
53.7666
53.7713
53.7761
53.7808
53.7855
53.7901
53.7947
53.7993
53.8039
53.8084
53.8128
53.8172
53.8216
53.8259
53.8302
53.8345
53.8387
53.8428
53.8469
53.851
53.855
53.859
53.863
53.8669
53.8707
53.8746
53.8783
53.8821
53.8858
53.8894
53.8931
53.8966
53.9002
53.9037
53.9071
53.9105
53.9139
53.9172
53.9205
53.9237
53.9269
53.93
53.9331
53.9362
53.9391
53.9421
53.9449
53.9477
53.9505
53.9532
53.9559
53.9584
53.961
53.9635
53.9659
53.9682
53.9706
53.9728
53.9751
53.9772
53.9795
53.9815
53.9837
53.9855
53.9877
53.9894
53.9916
53.9932
53.9953
53.9969
53.999
54.0004
54.0024
54.0038
54.0057
54.007
54.0089
54.0101
54.0119
54.0131
54.0147
54.016
52.8571
52.8677
52.8771
52.8853
52.8936
52.9022
52.911
52.9197
52.9284
52.9372
52.946
52.9548
52.9636
52.9724
52.9814
52.9904
52.9992
53.008
53.0169
53.026
53.0352
53.0443
53.0533
53.0623
53.0714
53.0805
53.0896
53.0986
53.1076
53.1165
53.1254
53.1343
53.1432
53.152
53.1607
53.1694
53.178
53.1866
53.1952
53.2038
53.2123
53.2208
53.2293
53.2377
53.2461
53.2545
53.2629
53.2712
53.2795
53.2877
53.2959
53.304
53.3121
53.3201
53.3281
53.3361
53.344
53.3518
53.3597
53.3675
53.3752
53.383
53.3906
53.3983
53.4059
53.4135
53.421
53.4285
53.436
53.4434
53.4508
53.4581
53.4655
53.4727
53.4799
53.4871
53.4942
53.5014
53.5084
53.5153
53.5222
53.5291
53.536
53.5427
53.5495
53.5562
53.563
53.5698
53.5764
53.5828
53.5888
53.595
53.6018
53.6089
53.6152
53.6205
53.626
53.6328
53.6403
53.6473
53.6519
53.6527
53.6553
53.6613
53.6689
53.6781
53.6888
53.6982
53.7067
53.7144
53.7215
53.728
53.7337
53.7393
53.7448
53.7501
53.7554
53.7605
53.7655
53.7705
53.7754
53.7802
53.785
53.7898
53.7944
53.7991
53.8036
53.8082
53.8126
53.8171
53.8215
53.8258
53.8301
53.8343
53.8385
53.8427
53.8468
53.8509
53.8549
53.8589
53.8628
53.8667
53.8706
53.8744
53.8782
53.8819
53.8856
53.8893
53.8929
53.8965
53.9
53.9035
53.907
53.9104
53.9138
53.9171
53.9204
53.9236
53.9268
53.9299
53.933
53.936
53.939
53.9419
53.9448
53.9476
53.9504
53.9531
53.9557
53.9583
53.9608
53.9633
53.9658
53.9681
53.9705
53.9727
53.975
53.9771
53.9793
53.9813
53.9835
53.9854
53.9876
53.9893
53.9915
53.9931
53.9952
53.9967
53.9988
54.0003
54.0023
54.0037
54.0056
54.007
54.0086
54.0103
54.0114
54.0132
54.0146
54.0158
54.0164
54.0166
54.0168
54.017
54.0173
54.0175
54.0178
54.0181
54.0184
54.0187
54.0189
54.0192
54.0195
54.0197
54.02
54.0202
54.0205
54.0208
54.021
54.0213
54.0168
54.0171
54.0174
54.0177
54.0179
54.0182
54.0185
54.0188
54.0191
54.0194
54.0195
54.0197
54.02
54.0202
54.0203
54.0204
54.0206
54.0207
54.0208
54.0208
54.0169
54.0172
54.0175
54.0178
54.0181
54.0184
54.0185
54.0186
54.0188
54.0188
54.0188
54.0189
54.0189
54.0188
54.0185
54.0185
54.0184
54.0184
54.0178
54.0175
54.0167
54.0171
54.0175
54.0178
54.018
54.0182
54.0184
54.0185
54.0189
54.0198
54.0208
54.0214
54.021
54.0203
54.0201
54.02
54.0195
54.0197
54.0202
54.0209
54.0166
54.0169
54.0173
54.0176
54.0179
54.0181
54.0183
54.0185
54.0189
54.0197
54.0207
54.0214
54.0215
54.0209
54.0204
54.0193
54.0187
54.0192
54.0199
54.0214
54.022
54.023
54.0238
54.0243
54.0245
54.0245
54.0248
54.0252
54.0249
54.0243
54.0247
54.0254
54.0254
54.0246
54.0244
54.0256
54.0264
54.0261
54.0245
54.0241
54.0258
54.0274
54.0273
54.0257
54.0235
54.0228
54.0251
54.0272
54.0274
54.0263
54.0243
54.0236
54.0249
54.0263
54.0272
54.0279
54.0285
54.0292
54.0297
54.0302
54.0307
54.0312
54.0317
54.0321
54.0326
54.033
54.0334
54.0339
54.0343
54.0347
54.0351
54.0355
54.0359
54.0364
54.0368
54.0372
54.0376
54.038
54.0385
54.0389
54.0394
54.0399
54.0403
54.0408
54.0412
54.0417
54.0421
54.0425
54.043
54.0438
54.0447
54.0451
54.0441
54.043
54.0433
54.0442
54.0449
54.0452
54.0456
54.046
54.0464
54.0466
54.0468
54.0472
54.0479
54.0485
54.0485
54.048
54.0487
54.05
54.0506
54.0466
54.0404
54.04
54.0435
54.0513
54.0564
54.0586
54.0596
54.0615
54.0204
54.0204
54.02
54.0195
54.0198
54.0204
54.0211
54.0211
54.0202
54.0207
54.0219
54.0229
54.0225
54.0229
54.0239
54.0257
54.026
54.0257
54.0254
54.0265
54.0289
54.0303
54.029
54.0283
54.0271
54.0277
54.0305
54.0323
54.0315
54.031
54.0297
54.0299
54.0317
54.0333
54.0343
54.035
54.0357
54.0364
54.0371
54.0377
54.0383
54.0389
54.0394
54.04
54.0405
54.041
54.0415
54.0419
54.0424
54.0428
54.0433
54.0437
54.0442
54.0446
54.0451
54.0455
54.0459
54.0464
54.0468
54.0472
54.0476
54.048
54.0485
54.0489
54.0492
54.0496
54.05
54.0504
54.0509
54.0517
54.0524
54.0523
54.0517
54.0506
54.051
54.052
54.0528
54.0532
54.0534
54.0538
54.0541
54.0545
54.0545
54.0548
54.0553
54.0557
54.0558
54.056
54.0562
54.0564
54.0568
54.0565
54.0552
54.0551
54.055
54.0537
54.0521
54.0521
54.0529
54.0551
54.015
54.0125
54.0112
54.0099
54.0083
54.0064
54.0055
54.005
54.0045
54.0034
54.0039
54.0041
54.0052
54.0039
54.0051
54.0059
54.0066
54.0079
54.0063
54.0077
54.0091
54.0101
54.0111
54.0105
54.0083
54.0104
54.0118
54.013
54.0147
54.0132
54.0117
54.0135
54.0158
54.0174
54.0188
54.0198
54.0206
54.0213
54.022
54.0225
54.023
54.0235
54.024
54.0244
54.0247
54.0251
54.0254
54.0257
54.0261
54.0264
54.0267
54.0271
54.0274
54.0278
54.0282
54.0285
54.0288
54.0291
54.0294
54.0298
54.0301
54.0304
54.0306
54.0309
54.0311
54.0313
54.0313
54.0312
54.0312
54.0315
54.0327
54.034
54.0338
54.0373
54.0418
54.0451
54.0478
54.0501
54.0519
54.053
54.0537
54.054
54.0544
54.0546
54.0549
54.0551
54.0555
54.0559
54.0565
54.0571
54.0581
54.0587
54.0598
54.0605
54.0613
54.0623
54.0631
54.064
54.0652
54.0661
54.0213
54.0215
54.0203
54.0206
54.0189
54.0209
54.0196
54.0211
54.0204
54.0234
54.0201
54.022
54.0233
54.0302
54.0253
54.0246
54.0268
54.026
54.0409
54.0325
54.0278
54.0312
54.0313
54.0415
54.0514
54.0335
54.03
54.0343
54.0355
54.0484
54.0593
54.043
54.0346
54.0356
54.037
54.0376
54.0381
54.0385
54.039
54.0394
54.0398
54.0402
54.0405
54.0409
54.0412
54.0415
54.0419
54.0422
54.0425
54.0429
54.0432
54.0435
54.0438
54.0442
54.0445
54.0449
54.0453
54.0457
54.0462
54.0466
54.0471
54.0475
54.048
54.0484
54.0488
54.0492
54.0496
54.05
54.0503
54.0509
54.0521
54.0539
54.0667
54.0608
54.0523
54.0514
54.052
54.0522
54.0524
54.0525
54.0528
54.0531
54.0535
54.0537
54.054
54.0544
54.055
54.0555
54.0559
54.0566
54.0575
54.0583
54.0585
54.0582
54.0587
54.0595
54.0607
54.0613
54.0603
54.0552
54.0238
54.0236
54.0211
54.0224
54.0254
54.0278
54.0237
54.0235
54.0267
54.0338
54.0277
54.0264
54.0296
54.0419
54.0354
54.0297
54.0311
54.0351
54.0539
54.0436
54.0329
54.0339
54.0376
54.053
54.064
54.0433
54.0332
54.0363
54.0409
54.0591
54.0712
54.0523
54.038
54.0375
54.0385
54.039
54.0393
54.0396
54.04
54.0404
54.0408
54.0412
54.0416
54.0419
54.0422
54.0426
54.0429
54.0432
54.0435
54.0439
54.0442
54.0446
54.0449
54.0453
54.0457
54.046
54.0464
54.0468
54.0472
54.0477
54.0481
54.0485
54.0489
54.0494
54.0498
54.0501
54.0505
54.0509
54.0513
54.0519
54.0526
54.0561
54.0741
54.0671
54.0555
54.0531
54.0534
54.0535
54.0536
54.0538
54.054
54.0542
54.0545
54.0549
54.0554
54.0559
54.0563
54.0568
54.0576
54.0583
54.0589
54.0595
54.0604
54.0613
54.062
54.0621
54.0617
54.0622
54.0631
54.064
54.0601
54.0602
54.0608
54.0617
54.0626
54.0636
54.0645
54.0654
54.0662
54.0668
54.0674
54.0679
54.0685
54.0691
54.0696
54.07
54.0703
54.0705
54.0707
54.0709
54.0549
54.0555
54.0562
54.0574
54.0586
54.0599
54.0612
54.0624
54.0635
54.0647
54.0657
54.0668
54.0678
54.0689
54.0699
54.0704
54.0705
54.0705
54.0704
54.0701
54.0666
54.0666
54.0667
54.0669
54.0671
54.0674
54.0678
54.0681
54.0683
54.0685
54.0686
54.0685
54.0683
54.0681
54.0679
54.0677
54.0675
54.0675
54.0671
54.0662
54.0525
54.0513
54.0506
54.0502
54.0501
54.0502
54.0503
54.0506
54.051
54.052
54.0539
54.0559
54.0579
54.0599
54.0619
54.0639
54.0663
54.0691
54.0702
54.0684
54.0642
54.0643
54.0635
54.062
54.06
54.0578
54.0558
54.0543
54.0533
54.0524
54.0517
54.0516
54.0526
54.0545
54.0573
54.0607
54.0642
54.0679
54.0705
54.0705
54.0714
54.0717
54.0716
54.0712
54.0709
54.0706
54.0707
54.0703
54.0693
54.0685
54.0689
54.0692
54.0684
54.0669
54.0655
54.0659
54.067
54.0673
54.0657
54.0636
54.0616
54.0609
54.0627
54.0648
54.065
54.0631
54.061
54.0592
54.0577
54.056
54.0565
54.0579
54.0587
54.0592
54.0596
54.06
54.0603
54.0606
54.0609
54.0611
54.0614
54.0616
54.0619
54.0621
54.0624
54.0626
54.0629
54.0632
54.0635
54.0638
54.0641
54.0645
54.065
54.0658
54.0672
54.0693
54.0705
54.0697
54.0672
54.0648
54.063
54.0657
54.0678
54.0671
54.0643
54.0624
54.0623
54.0634
54.0642
54.0646
54.065
54.0654
54.0656
54.0657
54.0658
54.0661
54.0665
54.0666
54.0661
54.0663
54.0671
54.0665
54.0585
54.0534
54.056
54.0653
54.0714
54.0746
54.0769
54.0791
54.0807
54.0817
54.0823
54.0826
54.0829
54.083
54.0831
54.0832
54.0832
54.0832
54.0832
54.0832
54.0831
54.0831
54.0831
54.083
54.083
54.0829
54.0829
54.0828
54.0828
54.0828
54.0827
54.0827
54.0827
54.0827
54.0828
54.0828
54.0828
54.0829
54.083
54.0831
54.0831
54.0832
54.0833
54.0834
54.0835
54.0836
54.0837
54.0838
54.084
54.0841
54.0842
54.0843
54.0844
54.0845
54.0846
54.0847
54.0848
54.0849
54.085
54.0851
54.0852
54.0853
54.0854
54.0855
54.0856
54.0858
54.0859
54.086
54.0862
54.0863
54.0865
54.0866
54.0868
54.0869
54.0871
54.0873
54.0875
54.0877
54.0879
54.088
54.0882
54.0884
54.0886
54.0888
54.089
54.0892
54.0894
54.0896
54.0897
54.0899
54.0901
54.0903
54.0905
54.0906
54.0909
54.091
54.0912
54.0914
54.0916
54.0917
54.092
54.0921
54.0924
54.0924
54.0928
54.0928
54.0932
54.0932
54.0936
54.0936
54.094
54.0941
54.0943
54.0947
54.0947
54.0951
54.0953
54.0954
54.0699
54.0694
54.0676
54.0657
54.0655
54.0657
54.0655
54.0634
54.0629
54.0634
54.0644
54.064
54.062
54.0618
54.063
54.0648
54.0658
54.064
54.0616
54.0606
54.0611
54.0631
54.0657
54.067
54.0647
54.0621
54.0604
54.0597
54.0612
54.0608
54.0621
54.0636
54.0642
54.0645
54.065
54.0654
54.0659
54.0665
54.067
54.0675
54.068
54.0684
54.0688
54.0692
54.0696
54.07
54.0703
54.0706
54.071
54.0714
54.0718
54.0722
54.0727
54.0735
54.0749
54.0762
54.0762
54.0732
54.0708
54.0693
54.0681
54.0717
54.0732
54.0723
54.0702
54.0688
54.0693
54.071
54.072
54.0726
54.0729
54.0732
54.0734
54.0735
54.0735
54.0735
54.0737
54.0737
54.0737
54.0735
54.0736
54.0737
54.0726
54.0706
54.0703
54.0697
54.068
54.0668
54.0669
54.068
54.0726
54.0789
54.0828
54.0843
54.0846
54.0844
54.0841
54.0839
54.0837
54.0836
54.0835
54.0834
54.0833
54.0833
54.0832
54.0831
54.0831
54.083
54.083
54.0829
54.0829
54.0829
54.0828
54.0828
54.0828
54.0829
54.0829
54.0829
54.083
54.083
54.0831
54.0832
54.0832
54.0833
54.0834
54.0835
54.0836
54.0837
54.0838
54.084
54.0841
54.0842
54.0843
54.0844
54.0845
54.0846
54.0847
54.0848
54.0849
54.085
54.0851
54.0852
54.0853
54.0854
54.0855
54.0856
54.0857
54.0859
54.086
54.0861
54.0863
54.0864
54.0866
54.0867
54.0869
54.087
54.0872
54.0874
54.0876
54.0878
54.088
54.0881
54.0883
54.0885
54.0887
54.0889
54.0891
54.0893
54.0895
54.0897
54.0898
54.09
54.0902
54.0904
54.0906
54.0907
54.091
54.0911
54.0913
54.0915
54.0917
54.0918
54.0921
54.0922
54.0925
54.0925
54.0929
54.0929
54.0933
54.0933
54.0937
54.0937
54.0941
54.0942
54.0946
54.0946
54.095
54.0951
54.0954
54.0956
54.0638
54.0607
54.0582
54.0563
54.0538
54.0517
54.05
54.0487
54.0473
54.0462
54.0462
54.0458
54.0457
54.0452
54.0446
54.0453
54.0459
54.046
54.0458
54.046
54.0451
54.0454
54.046
54.047
54.0471
54.047
54.0469
54.0463
54.0443
54.0445
54.0467
54.0483
54.0498
54.0509
54.0516
54.0521
54.0524
54.0527
54.0529
54.0531
54.0533
54.0535
54.0537
54.0539
54.0542
54.0544
54.0545
54.0547
54.0548
54.0549
54.055
54.055
54.0549
54.0545
54.0539
54.0536
54.0521
54.0502
54.0497
54.0483
54.0488
54.0503
54.0533
54.0558
54.0563
54.0592
54.0635
54.0668
54.0696
54.0717
54.0727
54.073
54.0732
54.0732
54.0732
54.0731
54.0731
54.0733
54.0735
54.0739
54.0744
54.0749
54.0756
54.0762
54.0768
54.0774
54.0779
54.0785
54.079
54.0797
54.0804
54.0811
54.0818
54.0825
54.0829
54.0832
54.0833
54.0833
54.0833
54.0833
54.0833
54.0833
54.0832
54.0832
54.0832
54.0831
54.0831
54.083
54.083
54.0829
54.0829
54.0829
54.0828
54.0828
54.0828
54.0829
54.0829
54.0829
54.083
54.083
54.0831
54.0832
54.0832
54.0833
54.0834
54.0835
54.0836
54.0837
54.0838
54.084
54.0841
54.0842
54.0843
54.0844
54.0845
54.0846
54.0847
54.0848
54.0849
54.085
54.0851
54.0852
54.0853
54.0854
54.0855
54.0856
54.0857
54.0859
54.086
54.0861
54.0863
54.0864
54.0866
54.0867
54.0869
54.087
54.0872
54.0874
54.0876
54.0878
54.088
54.0881
54.0883
54.0885
54.0887
54.0889
54.0891
54.0893
54.0895
54.0897
54.0898
54.09
54.0902
54.0904
54.0906
54.0908
54.0909
54.0911
54.0913
54.0915
54.0917
54.0919
54.0921
54.0922
54.0924
54.0926
54.0928
54.093
54.0933
54.0934
54.0937
54.0938
54.0941
54.0943
54.0944
54.0947
54.095
54.0951
54.0954
54.0955
54.068
54.0679
54.0677
54.0658
54.0629
54.0636
54.0642
54.0643
54.0614
54.0624
54.0619
54.0638
54.0595
54.0627
54.0644
54.0602
54.0644
54.063
54.0576
54.0629
54.0706
54.0627
54.0618
54.0668
54.0641
54.0605
54.0646
54.0756
54.088
54.0786
54.0647
54.066
54.0686
54.0694
54.0696
54.0696
54.0697
54.0698
54.0699
54.0701
54.0702
54.0704
54.0705
54.0707
54.0709
54.071
54.0712
54.0714
54.0715
54.0716
54.0717
54.0717
54.0717
54.0719
54.0726
54.075
54.0727
54.0653
54.0704
54.082
54.0733
54.0682
54.0721
54.0724
54.0917
54.0902
54.0735
54.0706
54.0718
54.0723
54.0723
54.0722
54.0723
54.0724
54.0725
54.0725
54.0726
54.0729
54.0732
54.0735
54.0741
54.0747
54.0753
54.0753
54.0747
54.0748
54.0752
54.0758
54.0759
54.0731
54.0678
54.0658
54.0664
54.0712
54.0791
54.0836
54.0849
54.0847
54.0842
54.0839
54.0837
54.0835
54.0834
54.0833
54.0832
54.0832
54.0831
54.083
54.083
54.0829
54.0829
54.0829
54.0828
54.0828
54.0828
54.0829
54.0829
54.0829
54.083
54.083
54.0831
54.0832
54.0832
54.0833
54.0834
54.0835
54.0836
54.0837
54.0838
54.084
54.0841
54.0842
54.0843
54.0844
54.0845
54.0846
54.0847
54.0848
54.0849
54.085
54.0851
54.0852
54.0853
54.0854
54.0855
54.0856
54.0857
54.0859
54.086
54.0861
54.0863
54.0864
54.0866
54.0867
54.0869
54.087
54.0872
54.0874
54.0876
54.0878
54.088
54.0881
54.0883
54.0885
54.0887
54.0889
54.0891
54.0893
54.0895
54.0897
54.0898
54.09
54.0902
54.0904
54.0906
54.0908
54.0909
54.0911
54.0913
54.0915
54.0916
54.0919
54.092
54.0923
54.0924
54.0927
54.0927
54.0931
54.0931
54.0935
54.0935
54.0939
54.0939
54.0943
54.0944
54.0948
54.0949
54.0951
54.0956
54.0954
54.0712
54.0708
54.0695
54.0696
54.0702
54.0701
54.0672
54.0682
54.0718
54.0733
54.068
54.068
54.0693
54.0753
54.0766
54.0667
54.0671
54.0704
54.0703
54.0742
54.0815
54.0716
54.0635
54.0686
54.0728
54.0722
54.0749
54.0849
54.0972
54.0865
54.0673
54.0666
54.0696
54.0706
54.0709
54.0708
54.0709
54.071
54.0711
54.0712
54.0713
54.0715
54.0716
54.0717
54.0719
54.072
54.0722
54.0723
54.0725
54.0726
54.0727
54.0727
54.0727
54.0728
54.0734
54.075
54.0776
54.0777
54.0821
54.0937
54.083
54.071
54.0743
54.0806
54.1014
54.0987
54.0789
54.0729
54.0735
54.0737
54.0737
54.0735
54.0734
54.0734
54.0735
54.0737
54.074
54.0742
54.0745
54.075
54.0755
54.0759
54.0764
54.077
54.0776
54.078
54.0779
54.0774
54.0776
54.0781
54.0784
54.0761
54.0694
54.0676
54.0706