/*--------------------------------*- C++ -*----------------------------------*\
| =========                 |                                                 |
| \\      /  F ield         | OpenFOAM: The Open Source CFD Toolbox           |
|  \\    /   O peration     | Version:  3.0.x                                 |
|   \\  /    A nd           | Web:      www.OpenFOAM.org                      |
|    \\/     M anipulation  |                                                 |
\*---------------------------------------------------------------------------*/
FoamFile
{
    version     2.0;
    format      ascii;
    class       volScalarField;
    location    "0.51";
    object      T;
}
// * * * * * * * * * * * * * * * * * * * * * * * * * * * * * * * * * * * * * //

dimensions      [0 0 0 1 0 0 0];

internalField   nonuniform List<scalar> 
6900
(
775.109
775.102
775.095
775.091
775.09
775.091
775.092
775.095
775.098
775.102
775.107
775.111
775.116
775.121
775.126
775.132
775.138
775.144
775.151
775.158
775.165
775.173
775.18
775.189
775.197
775.206
775.214
775.224
775.233
775.243
775.253
775.263
775.274
775.285
775.297
775.308
775.32
775.333
775.346
775.359
775.372
775.386
775.399
775.411
775.424
775.436
775.449
775.463
775.478
775.494
775.51
775.526
775.542
775.558
775.575
775.591
775.606
775.622
775.637
775.652
775.667
775.683
775.7
775.719
775.738
775.757
775.777
775.796
775.816
775.835
775.854
775.873
775.893
775.913
775.934
775.955
775.977
775.999
776.022
776.046
776.07
776.094
776.119
776.144
776.169
776.195
776.221
776.247
776.274
776.301
776.328
776.355
776.383
776.411
776.439
776.467
776.495
776.524
776.553
776.582
776.611
776.64
776.669
776.699
776.729
776.759
776.789
776.819
776.849
776.88
776.91
776.941
776.972
777.004
777.035
777.067
777.099
777.131
777.163
777.195
777.228
777.261
777.294
777.327
777.36
777.394
777.428
777.462
777.496
777.53
777.565
777.6
777.635
777.67
777.705
777.741
777.776
777.812
777.848
777.884
777.92
777.956
777.993
778.029
778.066
778.102
778.139
778.176
778.212
778.249
778.286
778.323
778.36
778.397
778.434
778.471
778.508
778.546
778.583
778.62
778.658
778.695
778.733
778.77
778.808
778.845
778.883
778.921
778.958
778.996
779.034
779.072
779.11
779.147
779.185
779.223
779.261
779.299
779.336
779.374
779.412
779.45
779.488
779.526
779.563
779.603
779.638
779.679
779.713
779.756
779.787
779.832
779.862
779.909
779.936
779.984
780.013
780.056
780.095
780.126
775.105
775.099
775.091
775.087
775.087
775.087
775.089
775.091
775.095
775.099
775.103
775.108
775.112
775.117
775.123
775.129
775.135
775.141
775.147
775.154
775.162
775.169
775.177
775.185
775.194
775.202
775.211
775.22
775.23
775.24
775.25
775.26
775.271
775.282
775.293
775.305
775.317
775.33
775.342
775.356
775.369
775.383
775.396
775.408
775.421
775.433
775.446
775.46
775.475
775.491
775.507
775.523
775.539
775.556
775.572
775.588
775.604
775.619
775.634
775.649
775.665
775.681
775.698
775.716
775.735
775.754
775.774
775.794
775.813
775.832
775.852
775.871
775.891
775.911
775.931
775.952
775.974
775.997
776.02
776.043
776.067
776.092
776.116
776.141
776.167
776.193
776.219
776.245
776.272
776.298
776.326
776.353
776.38
776.408
776.436
776.464
776.493
776.521
776.55
776.579
776.608
776.637
776.667
776.697
776.726
776.756
776.786
776.816
776.847
776.877
776.908
776.939
776.97
777.001
777.033
777.064
777.096
777.128
777.16
777.193
777.225
777.258
777.291
777.324
777.358
777.391
777.425
777.459
777.494
777.528
777.563
777.597
777.632
777.667
777.703
777.738
777.774
777.81
777.846
777.882
777.918
777.954
777.99
778.027
778.063
778.1
778.137
778.173
778.21
778.247
778.284
778.321
778.358
778.395
778.432
778.469
778.506
778.543
778.581
778.618
778.655
778.693
778.73
778.768
778.805
778.843
778.881
778.918
778.956
778.994
779.032
779.07
779.107
779.145
779.183
779.221
779.259
779.296
779.334
779.372
779.41
779.448
779.485
779.524
779.561
779.6
779.636
779.677
779.71
779.754
779.785
779.83
779.859
779.906
779.934
779.982
780.009
780.058
780.084
780.138
775.105
775.099
775.091
775.087
775.087
775.087
775.089
775.092
775.095
775.099
775.103
775.108
775.112
775.118
775.123
775.129
775.135
775.141
775.148
775.154
775.162
775.169
775.177
775.185
775.194
775.202
775.211
775.22
775.23
775.24
775.25
775.26
775.271
775.282
775.294
775.305
775.317
775.33
775.342
775.356
775.369
775.383
775.396
775.408
775.421
775.433
775.446
775.46
775.475
775.491
775.507
775.523
775.539
775.556
775.572
775.588
775.604
775.619
775.634
775.649
775.665
775.681
775.698
775.716
775.735
775.754
775.774
775.794
775.813
775.832
775.852
775.871
775.891
775.911
775.931
775.952
775.974
775.997
776.02
776.043
776.067
776.092
776.116
776.141
776.167
776.193
776.219
776.245
776.272
776.298
776.326
776.353
776.38
776.408
776.436
776.464
776.493
776.521
776.55
776.579
776.608
776.637
776.667
776.696
776.726
776.756
776.786
776.816
776.847
776.877
776.908
776.939
776.97
777.001
777.033
777.064
777.096
777.128
777.16
777.193
777.225
777.258
777.291
777.324
777.358
777.391
777.425
777.459
777.494
777.528
777.563
777.597
777.632
777.667
777.703
777.738
777.774
777.81
777.846
777.882
777.918
777.954
777.99
778.027
778.063
778.1
778.137
778.173
778.21
778.247
778.284
778.321
778.358
778.395
778.432
778.469
778.506
778.543
778.581
778.618
778.655
778.693
778.73
778.768
778.805
778.843
778.881
778.918
778.956
778.994
779.032
779.07
779.107
779.145
779.183
779.221
779.259
779.296
779.334
779.372
779.41
779.448
779.486
779.524
779.561
779.6
779.636
779.676
779.712
779.751
779.788
779.826
779.864
779.902
779.937
779.979
780.013
780.051
780.09
780.129
775.105
775.099
775.091
775.087
775.087
775.087
775.089
775.091
775.095
775.099
775.103
775.108
775.112
775.117
775.123
775.129
775.135
775.141
775.147
775.154
775.162
775.169
775.177
775.185
775.194
775.202
775.211
775.22
775.23
775.24
775.25
775.26
775.271
775.282
775.293
775.305
775.317
775.33
775.342
775.356
775.369
775.383
775.396
775.408
775.421
775.433
775.446
775.46
775.475
775.491
775.507
775.523
775.539
775.556
775.572
775.588
775.604
775.619
775.634
775.649
775.665
775.681
775.698
775.716
775.735
775.754
775.774
775.794
775.813
775.832
775.852
775.871
775.891
775.911
775.931
775.952
775.974
775.997
776.02
776.043
776.067
776.092
776.116
776.141
776.167
776.193
776.219
776.245
776.272
776.298
776.326
776.353
776.38
776.408
776.436
776.464
776.493
776.521
776.55
776.579
776.608
776.637
776.667
776.697
776.726
776.756
776.786
776.816
776.847
776.877
776.908
776.939
776.97
777.001
777.033
777.064
777.096
777.128
777.16
777.193
777.225
777.258
777.291
777.324
777.358
777.391
777.425
777.459
777.494
777.528
777.563
777.597
777.632
777.667
777.703
777.738
777.774
777.81
777.846
777.882
777.918
777.954
777.99
778.027
778.063
778.1
778.137
778.173
778.21
778.247
778.284
778.321
778.358
778.395
778.432
778.469
778.506
778.543
778.581
778.618
778.655
778.693
778.73
778.768
778.805
778.843
778.881
778.918
778.956
778.994
779.032
779.069
779.107
779.145
779.183
779.221
779.259
779.296
779.334
779.372
779.41
779.448
779.486
779.523
779.562
779.598
779.639
779.673
779.715
779.748
779.792
779.822
779.869
779.896
779.945
779.971
780.021
780.045
780.096
780.124
775.109
775.102
775.095
775.091
775.09
775.091
775.092
775.095
775.098
775.102
775.107
775.111
775.116
775.121
775.126
775.132
775.138
775.144
775.151
775.158
775.165
775.173
775.18
775.189
775.197
775.206
775.214
775.224
775.233
775.243
775.253
775.263
775.274
775.285
775.297
775.308
775.32
775.333
775.346
775.359
775.372
775.386
775.399
775.411
775.424
775.436
775.449
775.463
775.478
775.494
775.51
775.526
775.542
775.558
775.575
775.591
775.606
775.622
775.637
775.652
775.667
775.683
775.7
775.719
775.738
775.757
775.777
775.796
775.816
775.835
775.854
775.873
775.893
775.913
775.934
775.955
775.977
775.999
776.022
776.046
776.07
776.094
776.119
776.144
776.169
776.195
776.221
776.247
776.274
776.301
776.328
776.355
776.383
776.411
776.439
776.467
776.495
776.524
776.553
776.582
776.611
776.64
776.669
776.699
776.729
776.759
776.789
776.819
776.849
776.88
776.91
776.941
776.972
777.004
777.035
777.067
777.099
777.131
777.163
777.195
777.228
777.261
777.294
777.327
777.36
777.394
777.428
777.462
777.496
777.53
777.565
777.6
777.635
777.67
777.705
777.741
777.776
777.812
777.848
777.884
777.92
777.956
777.993
778.029
778.066
778.102
778.139
778.176
778.212
778.249
778.286
778.323
778.36
778.397
778.434
778.471
778.508
778.546
778.583
778.62
778.658
778.695
778.733
778.77
778.808
778.845
778.883
778.921
778.958
778.996
779.034
779.072
779.11
779.147
779.185
779.223
779.261
779.299
779.337
779.374
779.412
779.45
779.488
779.525
779.565
779.6
779.641
779.675
779.718
779.75
779.794
779.824
779.871
779.898
779.947
779.973
780.023
780.047
780.104
780.131
780.157
780.172
780.183
780.194
780.205
780.217
780.232
780.243
780.25
780.254
780.257
780.263
780.268
780.276
780.294
780.321
780.327
780.324
780.309
780.255
780.157
780.168
780.177
780.186
780.194
780.203
780.214
780.224
780.23
780.234
780.236
780.244
780.248
780.254
780.27
780.295
780.304
780.301
780.285
780.252
780.149
780.155
780.161
780.167
780.174
780.179
780.185
780.192
780.198
780.205
780.214
780.22
780.226
780.238
780.251
780.26
780.269
780.289
780.316
780.329
780.141
780.147
780.153
780.159
780.161
780.162
780.163
780.164
780.165
780.166
780.167
780.167
780.167
780.169
780.17
780.17
780.172
780.172
780.175
780.176
780.13
780.132
780.133
780.136
780.138
780.138
780.14
780.141
780.142
780.143
780.144
780.145
780.147
780.148
780.15
780.152
780.156
780.157
780.16
780.166
780.274
780.317
780.318
780.347
780.399
780.414
780.424
780.446
780.486
780.513
780.539
780.564
780.589
780.615
780.644
780.672
780.699
780.723
780.749
780.776
780.8
780.827
780.855
780.881
780.907
780.932
780.958
780.984
781.011
781.038
781.064
781.091
781.116
781.142
781.167
781.194
781.221
781.246
781.271
781.295
781.32
781.345
781.37
781.395
781.419
781.443
781.467
781.491
781.515
781.539
781.563
781.586
781.61
781.634
781.658
781.681
781.705
781.729
781.752
781.775
781.798
781.82
781.843
781.865
781.887
781.908
781.93
781.951
781.972
781.994
782.015
782.036
782.057
782.077
782.098
782.119
782.14
782.16
782.181
782.203
782.224
782.245
782.265
782.285
782.304
782.322
782.342
782.364
782.388
782.41
782.43
782.449
782.466
782.482
782.499
782.517
782.534
782.552
782.574
782.598
782.619
782.632
782.643
782.667
782.702
782.731
782.742
782.746
782.754
782.79
782.887
782.965
782.991
782.989
782.964
782.906
782.867
782.848
782.846
782.861
782.887
782.908
782.926
782.943
782.959
782.974
782.988
783.002
783.016
783.029
783.042
783.055
783.067
783.08
783.092
783.104
783.116
783.128
783.14
783.152
783.163
783.175
783.186
783.197
783.208
783.219
783.23
783.24
783.251
783.261
783.272
783.282
783.292
783.302
783.312
783.321
783.331
783.34
783.35
783.359
783.368
783.376
783.385
783.394
783.402
783.41
783.418
783.426
783.434
783.441
783.449
783.456
783.463
783.47
783.477
783.483
783.49
783.496
783.503
783.507
783.516
783.519
783.528
783.53
783.54
783.541
783.551
783.552
783.561
783.562
783.571
783.572
783.581
783.581
783.59
783.59
783.597
783.603
783.601
783.61
780.292
780.316
780.337
780.4
780.434
780.438
780.453
780.509
780.544
780.554
780.574
780.622
780.648
780.658
780.677
780.71
780.751
780.777
780.791
780.805
780.829
780.858
780.889
780.912
780.932
780.954
780.978
781.004
781.03
781.057
781.083
781.108
781.134
781.159
781.186
781.217
781.245
781.268
781.29
781.314
781.338
781.362
781.386
781.411
781.435
781.459
781.483
781.506
781.53
781.554
781.578
781.602
781.626
781.65
781.674
781.698
781.722
781.745
781.768
781.791
781.813
781.835
781.857
781.878
781.9
781.922
781.943
781.964
781.986
782.007
782.028
782.049
782.07
782.091
782.113
782.134
782.155
782.177
782.199
782.22
782.241
782.261
782.28
782.301
782.324
782.348
782.374
782.401
782.428
782.448
782.462
782.473
782.487
782.503
782.52
782.538
782.56
782.583
782.602
782.615
782.632
782.661
782.696
782.719
782.726
782.732
782.746
782.791
782.87
782.942
782.983
782.99
782.983
782.947
782.896
782.861
782.842
782.839
782.85
782.873
782.893
782.911
782.928
782.943
782.958
782.973
782.987
783.001
783.014
783.027
783.04
783.053
783.066
783.078
783.09
783.102
783.114
783.126
783.138
783.15
783.161
783.173
783.184
783.195
783.206
783.217
783.228
783.238
783.249
783.259
783.27
783.28
783.29
783.3
783.31
783.319
783.329
783.338
783.348
783.357
783.366
783.375
783.383
783.392
783.4
783.408
783.416
783.424
783.432
783.439
783.447
783.454
783.461
783.468
783.475
783.481
783.488
783.494
783.501
783.506
783.514
783.517
783.526
783.528
783.538
783.539
783.549
783.55
783.559
783.56
783.569
783.57
783.579
783.579
783.588
783.588
783.596
783.598
783.6
783.611
780.387
780.432
780.498
780.554
780.603
780.65
780.697
780.739
780.775
780.806
780.839
780.871
780.898
780.922
780.947
780.975
781.003
781.026
781.048
781.071
781.097
781.123
781.149
781.173
781.197
781.222
781.248
781.272
781.297
781.322
781.346
781.37
781.395
781.42
781.445
781.471
781.496
781.52
781.544
781.568
781.592
781.616
781.639
781.661
781.684
781.707
781.729
781.751
781.774
781.797
781.819
781.843
781.866
781.89
781.914
781.938
781.962
781.986
782.01
782.033
782.055
782.077
782.1
782.122
782.145
782.168
782.191
782.214
782.236
782.259
782.283
782.308
782.333
782.358
782.382
782.406
782.431
782.457
782.482
782.503
782.516
782.516
782.511
782.497
782.472
782.455
782.443
782.435
782.431
782.431
782.437
782.45
782.467
782.486
782.507
782.528
782.55
782.572
782.592
782.612
782.631
782.649
782.666
782.681
782.696
782.711
782.725
782.737
782.75
782.762
782.774
782.785
782.797
782.81
782.823
782.837
782.851
782.865
782.88
782.894
782.908
782.922
782.935
782.949
782.962
782.976
782.989
783.002
783.015
783.028
783.041
783.053
783.066
783.078
783.09
783.103
783.115
783.126
783.138
783.15
783.161
783.173
783.184
783.195
783.206
783.217
783.228
783.238
783.249
783.259
783.27
783.28
783.29
783.3
783.31
783.319
783.329
783.338
783.348
783.357
783.366
783.375
783.383
783.392
783.4
783.408
783.416
783.424
783.432
783.439
783.447
783.454
783.461
783.468
783.475
783.482
783.488
783.495
783.5
783.507
783.512
783.519
783.524
783.53
783.536
783.541
783.547
783.552
783.556
783.564
783.565
783.573
783.576
783.581
783.587
783.591
783.594
783.6
783.603
783.607
780.194
780.226
780.274
780.312
780.338
780.368
780.405
780.444
780.476
780.505
780.536
780.569
780.6
780.628
780.656
780.686
780.716
780.744
780.77
780.796
780.824
780.851
780.878
780.904
780.929
780.954
780.979
781.005
781.03
781.055
781.08
781.105
781.13
781.155
781.18
781.205
781.23
781.255
781.279
781.304
781.329
781.353
781.378
781.403
781.427
781.452
781.476
781.501
781.525
781.549
781.572
781.596
781.619
781.643
781.666
781.689
781.712
781.736
781.759
781.782
781.805
781.827
781.85
781.873
781.895
781.917
781.939
781.961
781.983
782.004
782.025
782.046
782.068
782.089
782.109
782.13
782.151
782.171
782.191
782.211
782.231
782.251
782.27
782.288
782.307
782.329
782.35
782.37
782.392
782.418
782.44
782.456
782.473
782.494
782.519
782.542
782.564
782.587
782.614
782.641
782.669
782.697
782.725
782.756
782.797
782.845
782.888
782.908
782.908
782.9
782.872
782.836
782.809
782.794
782.792
782.803
782.827
782.847
782.866
782.883
782.9
782.915
782.931
782.945
782.96
782.974
782.988
783.001
783.014
783.027
783.04
783.053
783.066
783.078
783.09
783.102
783.114
783.126
783.138
783.15
783.161
783.173
783.184
783.195
783.206
783.217
783.228
783.238
783.249
783.259
783.27
783.28
783.29
783.3
783.31
783.319
783.329
783.338
783.348
783.357
783.366
783.375
783.383
783.392
783.4
783.408
783.416
783.424
783.432
783.439
783.447
783.454
783.461
783.468
783.475
783.482
783.488
783.495
783.5
783.507
783.512
783.52
783.523
783.532
783.534
783.543
783.544
783.554
783.555
783.564
783.565
783.574
783.575
783.583
783.584
783.592
783.593
783.6
783.601
783.607
780.197
780.24
780.282
780.325
780.362
780.4
780.441
780.482
780.52
780.556
780.593
780.631
780.667
780.701
780.735
780.77
780.806
780.839
780.869
780.899
780.928
780.958
780.987
781.014
781.041
781.068
781.095
781.122
781.149
781.175
781.201
781.227
781.253
781.279
781.306
781.332
781.358
781.383
781.408
781.434
781.459
781.484
781.509
781.533
781.557
781.581
781.605
781.629
781.652
781.676
781.699
781.723
781.746
781.77
781.793
781.817
781.84
781.863
781.886
781.909
781.931
781.954
781.976
781.997
782.019
782.041
782.062
782.083
782.104
782.125
782.145
782.166
782.186
782.206
782.226
782.247
782.267
782.286
782.307
782.328
782.349
782.369
782.389
782.411
782.432
782.453
782.473
782.492
782.511
782.53
782.551
782.571
782.586
782.598
782.62
782.655
782.687
782.7
782.704
782.713
782.755
782.853
782.923
782.942
782.938
782.908
782.855
782.82
782.798
782.785
782.781
782.785
782.797
782.81
782.824
782.838
782.853
782.867
782.881
782.895
782.909
782.923
782.937
782.951
782.964
782.978
782.991
783.004
783.017
783.03
783.043
783.055
783.068
783.08
783.092
783.105
783.116
783.128
783.14
783.152
783.163
783.175
783.186
783.197
783.208
783.219
783.23
783.24
783.251
783.261
783.272
783.282
783.292
783.302
783.312
783.321
783.331
783.34
783.35
783.359
783.368
783.376
783.385
783.394
783.402
783.41
783.418
783.426
783.434
783.441
783.449
783.456
783.463
783.47
783.477
783.484
783.49
783.497
783.502
783.509
783.513
783.522
783.525
783.534
783.536
783.545
783.546
783.556
783.557
783.566
783.567
783.576
783.577
783.584
783.589
783.59
783.6
783.6
783.604
783.61
783.615
783.616
783.617
783.617
783.617
783.616
783.615
783.614
783.612
783.611
783.609
783.608
783.607
783.606
783.605
783.604
783.603
783.601
783.6
783.599
783.611
783.61
783.61
783.61
783.609
783.608
783.607
783.606
783.605
783.603
783.603
783.603
783.603
783.602
783.603
783.605
783.606
783.607
783.608
783.611
783.609
783.61
783.611
783.611
783.613
783.614
783.616
783.62
783.621
783.623
783.628
783.63
783.632
783.637
783.647
783.651
783.656
783.661
783.673
783.68
783.612
783.613
783.615
783.617
783.619
783.621
783.625
783.631
783.634
783.635
783.634
783.635
783.639
783.642
783.643
783.65
783.665
783.666
783.664
783.666
783.614
783.616
783.618
783.619
783.622
783.624
783.628
783.631
783.635
783.637
783.637
783.637
783.637
783.638
783.644
783.664
783.678
783.676
783.67
783.659
783.599
783.599
783.601
783.613
783.625
783.632
783.637
783.649
783.668
783.682
783.687
783.695
783.714
783.732
783.739
783.743
783.752
783.774
783.789
783.792
783.792
783.795
783.809
783.828
783.831
783.825
783.821
783.823
783.834
783.847
783.847
783.839
783.834
783.837
783.841
783.843
783.845
783.846
783.847
783.848
783.848
783.849
783.849
783.849
783.85
783.85
783.85
783.85
783.85
783.851
783.851
783.852
783.853
783.854
783.855
783.856
783.857
783.859
783.86
783.861
783.861
783.862
783.862
783.863
783.863
783.864
783.864
783.865
783.866
783.867
783.867
783.869
783.873
783.872
783.868
783.868
783.87
783.872
783.874
783.874
783.874
783.876
783.881
783.881
783.879
783.879
783.888
783.905
783.907
783.9
783.903
783.974
784.076
784.091
784.051
783.948
783.883
783.861
783.857
783.83
783.623
783.636
783.656
783.682
783.693
783.69
783.69
783.708
783.736
783.735
783.727
783.732
783.757
783.757
783.746
783.742
783.759
783.781
783.777
783.757
783.747
783.754
783.785
783.791
783.779
783.753
783.742
783.749
783.775
783.779
783.77
783.747
783.735
783.735
783.737
783.74
783.74
783.741
783.74
783.739
783.739
783.738
783.737
783.736
783.735
783.734
783.734
783.733
783.733
783.733
783.733
783.733
783.733
783.734
783.735
783.736
783.737
783.738
783.739
783.74
783.742
783.744
783.744
783.746
783.747
783.749
783.75
783.751
783.753
783.753
783.756
783.764
783.764
783.761
783.757
783.755
783.755
783.757
783.76
783.761
783.762
783.763
783.768
783.771
783.772
783.775
783.783
783.789
783.797
783.806
783.813
783.831
783.86
783.873
783.885
783.913
783.945
783.956
783.955
783.923
783.721
783.771
783.807
783.849
783.889
783.918
783.94
783.968
783.997
784.008
784.009
784.022
784.046
784.047
784.029
784.031
784.05
784.075
784.061
784.027
784.023
784.039
784.067
784.076
784.039
784.001
784
784.021
784.051
784.06
784.027
783.984
783.97
783.97
783.972
783.973
783.973
783.972
783.972
783.971
783.97
783.97
783.969
783.97
783.97
783.971
783.971
783.973
783.973
783.974
783.975
783.976
783.978
783.978
783.98
783.982
783.985
783.989
783.991
783.993
783.995
783.999
784.003
784.006
784.009
784.013
784.02
784.027
784.033
784.036
784.035
784.042
784.013
783.948
783.89
783.853
783.823
783.797
783.776
783.765
783.762
783.762
783.762
783.766
783.77
783.775
783.779
783.784
783.786
783.79
783.789
783.794
783.792
783.793
783.793
783.789
783.787
783.784
783.78
783.771
783.695
783.704
783.69
783.703
783.783
783.808
783.772
783.744
783.792
783.85
783.814
783.778
783.812
783.889
783.865
783.79
783.782
783.864
783.92
783.901
783.803
783.769
783.825
783.92
783.917
783.886
783.784
783.753
783.81
783.901
783.904
783.877
783.772
783.731
783.72
783.72
783.722
783.724
783.725
783.726
783.727
783.727
783.728
783.729
783.731
783.731
783.732
783.733
783.734
783.735
783.737
783.738
783.739
783.741
783.742
783.744
783.746
783.747
783.748
783.749
783.749
783.75
783.751
783.752
783.752
783.753
783.753
783.754
783.757
783.759
783.764
783.797
783.863
783.853
783.799
783.773
783.766
783.765
783.766
783.768
783.768
783.768
783.769
783.772
783.776
783.778
783.78
783.784
783.79
783.792
783.793
783.795
783.805
783.822
783.827
783.825
783.819
783.82
783.846
783.922
783.662
783.674
783.679
783.678
783.689
783.708
783.713
783.709
783.701
783.701
783.703
783.715
783.72
783.721
783.719
783.715
783.72
783.733
783.738
783.74
783.728
783.729
783.736
783.753
783.742
783.744
783.738
783.724
783.733
783.746
783.738
783.744
783.722
783.703
783.698
783.7
783.704
783.707
783.709
783.711
783.712
783.713
783.714
783.715
783.716
783.717
783.718
783.719
783.719
783.72
783.721
783.722
783.724
783.725
783.726
783.728
783.729
783.731
783.732
783.734
783.735
783.736
783.737
783.738
783.738
783.74
783.74
783.74
783.741
783.744
783.758
783.765
783.758
783.763
783.752
783.748
783.745
783.746
783.748
783.75
783.751
783.753
783.755
783.756
783.756
783.757
783.761
783.764
783.765
783.767
783.773
783.778
783.778
783.777
783.778
783.788
783.804
783.807
783.805
783.795
783.833
783.825
783.816
783.806
783.798
783.79
783.782
783.774
783.768
783.762
783.759
783.756
783.753
783.749
783.745
783.743
783.741
783.74
783.739
783.737
783.909
783.899
783.888
783.875
783.861
783.847
783.833
783.819
783.807
783.794
783.784
783.773
783.763
783.752
783.741
783.737
783.739
783.742
783.745
783.75
783.772
783.775
783.778
783.78
783.78
783.78
783.779
783.778
783.777
783.777
783.778
783.78
783.784
783.787
783.792
783.796
783.801
783.804
783.811
783.826
783.955
783.969
783.978
783.986
783.99
783.994
783.997
783.998
783.997
783.988
783.966
783.942
783.917
783.892
783.869
783.849
783.821
783.791
783.782
783.807
783.796
783.798
783.808
783.832
783.864
783.899
783.933
783.959
783.978
783.995
784.01
784.014
784.003
783.981
783.945
783.902
783.859
783.812
783.779
783.778
783.735
783.734
783.738
783.749
783.755
783.757
783.76
783.773
783.788
783.795
783.797
783.803
783.819
783.838
783.845
783.845
783.848
783.856
783.877
783.896
783.906
783.905
783.898
783.898
783.906
783.928
783.94
783.945
783.941
783.925
783.916
783.917
783.92
783.923
783.925
783.926
783.927
783.928
783.929
783.929
783.93
783.93
783.931
783.931
783.931
783.931
783.931
783.931
783.93
783.93
783.93
783.93
783.931
783.934
783.934
783.925
783.918
783.921
783.936
783.947
783.942
783.923
783.92
783.931
783.94
783.937
783.926
783.924
783.927
783.931
783.932
783.932
783.932
783.934
783.935
783.935
783.933
783.936
783.95
783.953
783.95
783.968
784.092
784.173
784.141
784.01
783.927
783.886
783.86
783.835
783.818
783.809
783.806
783.805
783.805
783.805
783.805
783.805
783.805
783.805
783.805
783.805
783.804
783.804
783.804
783.804
783.804
783.804
783.803
783.803
783.803
783.803
783.803
783.803
783.803
783.803
783.803
783.803
783.803
783.803
783.804
783.804
783.804
783.804
783.805
783.805
783.805
783.806
783.806
783.806
783.806
783.807
783.807
783.807
783.808
783.808
783.808
783.809
783.809
783.809
783.809
783.81
783.81
783.81
783.811
783.811
783.811
783.812
783.812
783.812
783.813
783.813
783.814
783.814
783.815
783.815
783.816
783.816
783.817
783.817
783.818
783.818
783.819
783.819
783.82
783.82
783.821
783.822
783.822
783.823
783.823
783.824
783.824
783.825
783.825
783.826
783.826
783.827
783.827
783.828
783.828
783.83
783.829
783.831
783.83
783.832
783.831
783.834
783.832
783.835
783.833
783.836
783.834
783.836
783.837
783.835
783.84
783.838
783.839
783.841
783.757
783.767
783.797
783.829
783.833
783.829
783.835
783.872
783.882
783.869
783.862
783.879
783.913
783.911
783.882
783.861
783.866
783.904
783.938
783.94
783.913
783.874
783.856
783.867
783.91
783.942
783.949
783.937
783.892
783.855
783.836
783.835
783.841
783.846
783.847
783.847
783.845
783.843
783.84
783.837
783.834
783.832
783.83
783.828
783.826
783.825
783.824
783.822
783.821
783.82
783.819
783.819
783.82
783.823
783.824
783.826
783.836
783.871
783.885
783.881
783.867
783.836
783.842
783.856
783.856
783.843
783.824
783.815
783.814
783.815
783.817
783.819
783.82
783.821
783.824
783.827
783.829
783.833
783.839
783.849
783.856
783.863
783.887
783.923
783.934
783.946
783.976
784
784.005
783.995
783.935
783.85
783.799
783.78
783.78
783.786
783.792
783.795
783.798
783.799
783.8
783.801
783.801
783.802
783.802
783.802
783.802
783.802
783.802
783.802
783.802
783.801
783.801
783.801
783.801
783.801
783.801
783.802
783.802
783.802
783.802
783.802
783.803
783.803
783.803
783.803
783.804
783.804
783.804
783.805
783.805
783.805
783.806
783.806
783.806
783.807
783.807
783.807
783.807
783.808
783.808
783.808
783.809
783.809
783.809
783.809
783.81
783.81
783.811
783.811
783.811
783.812
783.812
783.813
783.813
783.814
783.814
783.815
783.815
783.816
783.816
783.817
783.817
783.818
783.818
783.819
783.82
783.82
783.821
783.821
783.822
783.822
783.823
783.823
783.824
783.825
783.825
783.826
783.826
783.827
783.826
783.828
783.827
783.83
783.828
783.831
783.829
783.832
783.83
783.834
783.831
783.835
783.833
783.836
783.834
783.837
783.835
783.838
783.837
783.838
783.86
783.905
783.944
783.986
784.021
784.048
784.073
784.105
784.129
784.13
784.133
784.149
784.171
784.17
784.148
784.135
784.146
784.169
784.182
784.175
784.149
784.123
784.125
784.147
784.173
784.182
784.176
784.162
784.128
784.083
784.06
784.058
784.059
784.061
784.062
784.062
784.062
784.062
784.062
784.061
784.061
784.061
784.061
784.061
784.06
784.06
784.06
784.061
784.061
784.061
784.061
784.063
784.068
784.08
784.099
784.127
784.174
784.205
784.205
784.18
784.142
784.134
784.134
784.122
784.064
783.975
783.91
783.874
783.848
783.828
783.819
783.816
783.815
783.817
783.821
783.825
783.829
783.832
783.835
783.838
783.839
783.84
783.841
783.84
783.838
783.836
783.833
783.83
783.827
783.824
783.82
783.816
783.811
783.807
783.804
783.803
783.804
783.804
783.804
783.804
783.803
783.803
783.803
783.803
783.803
783.802
783.802
783.802
783.802
783.802
783.802
783.801
783.801
783.801
783.801
783.801
783.801
783.802
783.802
783.802
783.802
783.802
783.803
783.803
783.803
783.803
783.804
783.804
783.804
783.805
783.805
783.805
783.806
783.806
783.806
783.807
783.807
783.807
783.807
783.808
783.808
783.808
783.809
783.809
783.809
783.809
783.81
783.81
783.811
783.811
783.811
783.812
783.812
783.813
783.813
783.814
783.814
783.815
783.815
783.816
783.816
783.817
783.817
783.818
783.818
783.819
783.82
783.82
783.821
783.821
783.822
783.822
783.823
783.823
783.824
783.825
783.825
783.826
783.826
783.827
783.827
783.828
783.828
783.829
783.829
783.83
783.83
783.831
783.831
783.833
783.832
783.834
783.834
783.834
783.836
783.836
783.836
783.838
783.838
783.839
783.84
783.835
783.816
783.853
783.936
783.934
783.882
783.89
783.993
784.001
783.928
783.903
783.991
784.071
784.063
783.969
783.896
783.948
784.045
784.074
784.067
784.048
783.927
783.884
783.962
784.027
784.044
784.038
784.03
784.029
783.921
783.834
783.805
783.803
783.805
783.809
783.811
783.813
783.814
783.815
783.816
783.817
783.817
783.817
783.818
783.818
783.818
783.818
783.818
783.818
783.818
783.818
783.818
783.819
783.823
783.83
783.908
784.035
784.072
784.063
784.05
783.938
783.9
783.952
783.975
783.972
783.919
783.849
783.826
783.821
783.822
783.823
783.823
783.823
783.824
783.827
783.829
783.831
783.833
783.836
783.838
783.838
783.839
783.848
783.864
783.869
783.869
783.867
783.872
783.918
784.002
784.037
784.034
783.97
783.86
783.798
783.781
783.783
783.791
783.796
783.798
783.8
783.801
783.801
783.801
783.802
783.802
783.802
783.802
783.802
783.801
783.801
783.801
783.801
783.801
783.801
783.801
783.802
783.802
783.802
783.802
783.802
783.803
783.803
783.803
783.803
783.804
783.804
783.804
783.805
783.805
783.805
783.806
783.806
783.806
783.807
783.807
783.807
783.807
783.808
783.808
783.808
783.809
783.809
783.809
783.809
783.81
783.81
783.811
783.811
783.811
783.812
783.812
783.813
783.813
783.814
783.814
783.815
783.815
783.816
783.816
783.817
783.817
783.818
783.818
783.819
783.82
783.82
783.821
783.821
783.822
783.822
783.823
783.823
783.824
783.824
783.825
783.825
783.826
783.826
783.828
783.827
783.829
783.828
783.83
783.829
783.832
783.83
783.833
783.831
783.834
783.832
783.835
783.833
783.837
783.834
783.837
783.838
783.835
783.841
783.797
783.793
783.789
783.798
783.83
783.84
783.839
783.833
783.842
783.843
783.839
783.841
783.849
783.888
783.888
783.871
783.855
783.842
783.863
783.913
783.914
783.919
783.901
783.859
783.836
783.857
783.896
783.905
783.903
783.917
783.88
783.824
783.79
783.785
783.787
783.792
783.795
783.796
783.798
783.799
783.8
783.801
783.801
783.802
783.803
783.803
783.804
783.804
783.804
783.804
783.804
783.804
783.804
783.807
783.813
783.83
783.839
783.856
783.905
783.901
783.91
783.896
783.868
783.835
783.839
783.852
783.837
783.816
783.803
783.801
783.802
783.805
783.807
783.809
783.809
783.81
783.81
783.812
783.814
783.815
783.818
783.822
783.824
783.824
783.823
783.823
783.83
783.844
783.847
783.847
783.849
783.888
783.992
784.022
783.983
783.853
783.788
783.778
783.785