/*--------------------------------*- C++ -*----------------------------------*\
| =========                 |                                                 |
| \\      /  F ield         | OpenFOAM: The Open Source CFD Toolbox           |
|  \\    /   O peration     | Version:  3.0.x                                 |
|   \\  /    A nd           | Web:      www.OpenFOAM.org                      |
|    \\/     M anipulation  |                                                 |
\*---------------------------------------------------------------------------*/
FoamFile
{
    version     2.0;
    format      ascii;
    class       volVectorField;
    location    "0.51";
    object      U;
}
// * * * * * * * * * * * * * * * * * * * * * * * * * * * * * * * * * * * * * //

dimensions      [0 1 -1 0 0 0 0];

internalField   nonuniform List<vector> 
6900
(
(42.6712 0.000100884 0)
(42.6035 9.23933e-05 0)
(42.5259 9.00549e-05 0)
(42.4524 9.0934e-05 0)
(42.3817 9.16496e-05 0)
(42.3108 9.20865e-05 0)
(42.2391 9.24171e-05 0)
(42.167 9.26699e-05 0)
(42.0945 9.28678e-05 0)
(42.0216 9.30189e-05 0)
(41.9484 9.31363e-05 0)
(41.8748 9.3229e-05 0)
(41.8008 9.33031e-05 0)
(41.7264 9.33633e-05 0)
(41.6517 9.34126e-05 0)
(41.5766 9.34537e-05 0)
(41.5011 9.34884e-05 0)
(41.4253 9.35182e-05 0)
(41.3492 9.35442e-05 0)
(41.2728 9.35672e-05 0)
(41.1962 9.3588e-05 0)
(41.1192 9.36072e-05 0)
(41.042 9.36252e-05 0)
(40.9645 9.36425e-05 0)
(40.8868 9.36592e-05 0)
(40.8088 9.36759e-05 0)
(40.7307 9.36925e-05 0)
(40.6522 9.37096e-05 0)
(40.5735 9.37271e-05 0)
(40.4945 9.37453e-05 0)
(40.4153 9.37646e-05 0)
(40.3357 9.37849e-05 0)
(40.2558 9.38066e-05 0)
(40.1755 9.38304e-05 0)
(40.0949 9.38558e-05 0)
(40.0138 9.38839e-05 0)
(39.9323 9.39146e-05 0)
(39.8502 9.39481e-05 0)
(39.7677 9.39844e-05 0)
(39.6846 9.40221e-05 0)
(39.6009 9.40624e-05 0)
(39.5165 9.41061e-05 0)
(39.4316 9.41536e-05 0)
(39.346 9.42056e-05 0)
(39.2597 9.42624e-05 0)
(39.1727 9.4323e-05 0)
(39.0851 9.43858e-05 0)
(38.9967 9.44493e-05 0)
(38.9076 9.45134e-05 0)
(38.8179 9.45779e-05 0)
(38.7274 9.4644e-05 0)
(38.6363 9.47122e-05 0)
(38.5445 9.47814e-05 0)
(38.452 9.48524e-05 0)
(38.359 9.49222e-05 0)
(38.2653 9.49906e-05 0)
(38.171 9.50569e-05 0)
(38.0762 9.51204e-05 0)
(37.9807 9.51787e-05 0)
(37.8848 9.52285e-05 0)
(37.7883 9.52641e-05 0)
(37.6913 9.52774e-05 0)
(37.5937 9.52588e-05 0)
(37.4956 9.51988e-05 0)
(37.3971 9.50872e-05 0)
(37.2979 9.49122e-05 0)
(37.1983 9.46597e-05 0)
(37.0981 9.43136e-05 0)
(36.9973 9.3855e-05 0)
(36.8959 9.32627e-05 0)
(36.7939 9.25135e-05 0)
(36.6913 9.15839e-05 0)
(36.588 9.04506e-05 0)
(36.484 8.90915e-05 0)
(36.3793 8.74873e-05 0)
(36.2739 8.56225e-05 0)
(36.1676 8.3486e-05 0)
(36.0606 8.10725e-05 0)
(35.9528 7.83828e-05 0)
(35.8441 7.54245e-05 0)
(35.7346 7.22125e-05 0)
(35.6242 6.87686e-05 0)
(35.5129 6.51216e-05 0)
(35.4007 6.13057e-05 0)
(35.2876 5.73604e-05 0)
(35.1736 5.33287e-05 0)
(35.0587 4.92561e-05 0)
(34.943 4.5189e-05 0)
(34.8263 4.11728e-05 0)
(34.7088 3.7251e-05 0)
(34.5905 3.34635e-05 0)
(34.4714 2.98453e-05 0)
(34.3514 2.64263e-05 0)
(34.2307 2.32299e-05 0)
(34.1093 2.02733e-05 0)
(33.9872 1.75671e-05 0)
(33.8644 1.51157e-05 0)
(33.7409 1.2918e-05 0)
(33.6168 1.09682e-05 0)
(33.492 9.25578e-06 0)
(33.3667 7.76716e-06 0)
(33.2408 6.48598e-06 0)
(33.1143 5.39423e-06 0)
(32.9872 4.47307e-06 0)
(32.8596 3.70347e-06 0)
(32.7314 3.06669e-06 0)
(32.6026 2.54481e-06 0)
(32.4732 2.12103e-06 0)
(32.3433 1.78006e-06 0)
(32.2127 1.50811e-06 0)
(32.0816 1.2931e-06 0)
(31.9498 1.12459e-06 0)
(31.8174 9.93723e-07 0)
(31.6843 8.92824e-07 0)
(31.5506 8.15524e-07 0)
(31.4162 7.56501e-07 0)
(31.2811 7.11657e-07 0)
(31.1453 6.77731e-07 0)
(31.0087 6.52106e-07 0)
(30.8714 6.32712e-07 0)
(30.7334 6.17826e-07 0)
(30.5946 6.06309e-07 0)
(30.455 5.97311e-07 0)
(30.3146 5.9026e-07 0)
(30.1733 5.84635e-07 0)
(30.0313 5.79784e-07 0)
(29.8884 5.75344e-07 0)
(29.7447 5.71028e-07 0)
(29.6002 5.66798e-07 0)
(29.4548 5.62677e-07 0)
(29.3086 5.5845e-07 0)
(29.1616 5.53975e-07 0)
(29.0138 5.49058e-07 0)
(28.8653 5.43532e-07 0)
(28.7161 5.37397e-07 0)
(28.5661 5.30648e-07 0)
(28.4155 5.23404e-07 0)
(28.2643 5.15648e-07 0)
(28.1124 5.07296e-07 0)
(27.9601 4.98206e-07 0)
(27.8072 4.88208e-07 0)
(27.6539 4.77378e-07 0)
(27.5002 4.65788e-07 0)
(27.3461 4.53384e-07 0)
(27.1917 4.40161e-07 0)
(27.0369 4.26343e-07 0)
(26.8819 4.11994e-07 0)
(26.7266 3.97218e-07 0)
(26.5711 3.82073e-07 0)
(26.4154 3.66578e-07 0)
(26.2595 3.5068e-07 0)
(26.1034 3.3437e-07 0)
(25.9471 3.17603e-07 0)
(25.7906 3.00553e-07 0)
(25.6339 2.83344e-07 0)
(25.477 2.65975e-07 0)
(25.32 2.48582e-07 0)
(25.1628 2.30938e-07 0)
(25.0054 2.12852e-07 0)
(24.8478 1.94313e-07 0)
(24.6901 1.75767e-07 0)
(24.5321 1.57133e-07 0)
(24.374 1.38485e-07 0)
(24.2157 1.19477e-07 0)
(24.0573 1.00365e-07 0)
(23.8987 8.07899e-08 0)
(23.7399 6.09439e-08 0)
(23.581 4.07263e-08 0)
(23.422 2.04647e-08 0)
(23.2629 1.66874e-10 0)
(23.1036 -1.80984e-08 0)
(22.9443 -3.9561e-08 0)
(22.7848 -6.1226e-08 0)
(22.6253 -8.40276e-08 0)
(22.4658 -1.06257e-07 0)
(22.3061 -1.30615e-07 0)
(22.1464 -1.5203e-07 0)
(21.9867 -1.77925e-07 0)
(21.8269 -1.97248e-07 0)
(21.667 -2.27746e-07 0)
(21.5072 -2.41124e-07 0)
(21.3472 -2.84347e-07 0)
(21.1873 -2.80014e-07 0)
(21.0273 -3.52179e-07 0)
(20.8674 -3.11181e-07 0)
(20.7075 -4.36027e-07 0)
(20.5476 -3.30522e-07 0)
(20.3877 -5.46254e-07 0)
(20.2279 -3.46553e-07 0)
(20.0681 -7.14279e-07 0)
(19.9085 -2.91221e-07 0)
(19.749 -8.84605e-07 0)
(19.5897 -2.06444e-07 0)
(19.4305 -5.95582e-07 0)
(19.2715 2.09225e-06 0)
(19.1124 1.52699e-05 0)
(18.9511 0.000104204 0)
(18.7746 0.000695305 0)
(18.5577 0.00813393 0)
(17.2964 0.03206 0)
(42.673 0.000127925 0)
(42.6071 9.85827e-05 0)
(42.5312 8.6469e-05 0)
(42.4596 8.57536e-05 0)
(42.3906 8.56471e-05 0)
(42.3215 8.52778e-05 0)
(42.2516 8.50146e-05 0)
(42.1813 8.48429e-05 0)
(42.1106 8.47255e-05 0)
(42.0395 8.46355e-05 0)
(41.9681 8.45688e-05 0)
(41.8963 8.45209e-05 0)
(41.8241 8.44876e-05 0)
(41.7515 8.44661e-05 0)
(41.6786 8.44538e-05 0)
(41.6053 8.4449e-05 0)
(41.5316 8.44502e-05 0)
(41.4576 8.44562e-05 0)
(41.3833 8.44662e-05 0)
(41.3087 8.44794e-05 0)
(41.2338 8.44954e-05 0)
(41.1586 8.45136e-05 0)
(41.0832 8.4534e-05 0)
(41.0076 8.45561e-05 0)
(40.9316 8.45798e-05 0)
(40.8555 8.46053e-05 0)
(40.7791 8.46319e-05 0)
(40.7024 8.46606e-05 0)
(40.6255 8.46904e-05 0)
(40.5484 8.47218e-05 0)
(40.4709 8.47552e-05 0)
(40.3931 8.47901e-05 0)
(40.315 8.48268e-05 0)
(40.2366 8.48665e-05 0)
(40.1577 8.49077e-05 0)
(40.0784 8.49525e-05 0)
(39.9987 8.5e-05 0)
(39.9184 8.50505e-05 0)
(39.8377 8.51041e-05 0)
(39.7564 8.51581e-05 0)
(39.6745 8.52151e-05 0)
(39.592 8.52757e-05 0)
(39.5088 8.53405e-05 0)
(39.425 8.54107e-05 0)
(39.3406 8.54866e-05 0)
(39.2554 8.55663e-05 0)
(39.1696 8.56479e-05 0)
(39.083 8.57292e-05 0)
(38.9957 8.58106e-05 0)
(38.9078 8.58919e-05 0)
(38.8191 8.59749e-05 0)
(38.7298 8.60602e-05 0)
(38.6398 8.61463e-05 0)
(38.5492 8.62347e-05 0)
(38.458 8.63211e-05 0)
(38.3661 8.64063e-05 0)
(38.2736 8.64899e-05 0)
(38.1806 8.65719e-05 0)
(38.087 8.665e-05 0)
(37.9929 8.67211e-05 0)
(37.8982 8.67792e-05 0)
(37.803 8.68154e-05 0)
(37.7073 8.68201e-05 0)
(37.611 8.67846e-05 0)
(37.5143 8.67e-05 0)
(37.417 8.65562e-05 0)
(37.3191 8.63406e-05 0)
(37.2207 8.6039e-05 0)
(37.1217 8.56341e-05 0)
(37.0221 8.5106e-05 0)
(36.9219 8.44331e-05 0)
(36.8211 8.35932e-05 0)
(36.7195 8.25646e-05 0)
(36.6172 8.13268e-05 0)
(36.5142 7.98624e-05 0)
(36.4104 7.81572e-05 0)
(36.3058 7.62019e-05 0)
(36.2004 7.39922e-05 0)
(36.0941 7.15295e-05 0)
(35.9869 6.88218e-05 0)
(35.8788 6.58834e-05 0)
(35.7697 6.27353e-05 0)
(35.6597 5.94042e-05 0)
(35.5487 5.59221e-05 0)
(35.4367 5.23255e-05 0)
(35.3238 4.8654e-05 0)
(35.2099 4.49492e-05 0)
(35.095 4.12534e-05 0)
(34.9792 3.76078e-05 0)
(34.8624 3.40516e-05 0)
(34.7448 3.06206e-05 0)
(34.6262 2.73462e-05 0)
(34.5068 2.42547e-05 0)
(34.3866 2.13666e-05 0)
(34.2655 1.86965e-05 0)
(34.1437 1.62533e-05 0)
(34.0212 1.40401e-05 0)
(33.898 1.20553e-05 0)
(33.7741 1.02927e-05 0)
(33.6495 8.74282e-06 0)
(33.5243 7.3929e-06 0)
(33.3985 6.2281e-06 0)
(33.2721 5.23227e-06 0)
(33.1451 4.38873e-06 0)
(33.0175 3.68074e-06 0)
(32.8894 3.09185e-06 0)
(32.7606 2.60638e-06 0)
(32.6313 2.20963e-06 0)
(32.5013 1.88824e-06 0)
(32.3708 1.63005e-06 0)
(32.2396 1.4245e-06 0)
(32.1078 1.26229e-06 0)
(31.9754 1.13555e-06 0)
(31.8423 1.03732e-06 0)
(31.7086 9.61786e-07 0)
(31.5742 9.03947e-07 0)
(31.4391 8.60026e-07 0)
(31.3032 8.2692e-07 0)
(31.1667 8.02154e-07 0)
(31.0294 7.83674e-07 0)
(30.8913 7.69779e-07 0)
(30.7525 7.59313e-07 0)
(30.6128 7.51453e-07 0)
(30.4724 7.45598e-07 0)
(30.3311 7.41205e-07 0)
(30.1891 7.37532e-07 0)
(30.0462 7.34177e-07 0)
(29.9024 7.30792e-07 0)
(29.7579 7.27328e-07 0)
(29.6125 7.23793e-07 0)
(29.4663 7.19929e-07 0)
(29.3193 7.15501e-07 0)
(29.1715 7.10316e-07 0)
(29.0229 7.04097e-07 0)
(28.8737 6.96889e-07 0)
(28.7237 6.88656e-07 0)
(28.573 6.79526e-07 0)
(28.4218 6.69524e-07 0)
(28.2699 6.58512e-07 0)
(28.1176 6.4639e-07 0)
(27.9647 6.32968e-07 0)
(27.8114 6.18325e-07 0)
(27.6576 6.02709e-07 0)
(27.5035 5.85927e-07 0)
(27.349 5.68246e-07 0)
(27.1942 5.49754e-07 0)
(27.0392 5.30684e-07 0)
(26.8839 5.11228e-07 0)
(26.7284 4.91475e-07 0)
(26.5726 4.71452e-07 0)
(26.4166 4.51107e-07 0)
(26.2605 4.30624e-07 0)
(26.1042 4.09763e-07 0)
(25.9476 3.88766e-07 0)
(25.7909 3.67974e-07 0)
(25.6341 3.47068e-07 0)
(25.477 3.2649e-07 0)
(25.3197 3.05693e-07 0)
(25.1623 2.84725e-07 0)
(25.0047 2.62996e-07 0)
(24.8469 2.41674e-07 0)
(24.6889 2.19916e-07 0)
(24.5308 1.98833e-07 0)
(24.3725 1.76664e-07 0)
(24.214 1.54607e-07 0)
(24.0554 1.3134e-07 0)
(23.8966 1.08074e-07 0)
(23.7376 8.35258e-08 0)
(23.5786 5.86052e-08 0)
(23.4194 3.04912e-08 0)
(23.2601 6.65365e-09 0)
(23.1007 -2.0604e-08 0)
(22.9413 -3.82476e-08 0)
(22.7817 -6.39202e-08 0)
(22.6221 -7.95091e-08 0)
(22.4624 -1.10199e-07 0)
(22.3027 -1.20315e-07 0)
(22.1429 -1.60264e-07 0)
(21.9831 -1.55756e-07 0)
(21.8232 -2.21459e-07 0)
(21.6632 -1.75352e-07 0)
(21.5033 -3.12699e-07 0)
(21.3433 -1.53167e-07 0)
(21.1833 -4.5818e-07 0)
(21.0233 -6.29705e-08 0)
(20.8633 -6.75763e-07 0)
(20.7034 1.06974e-07 0)
(20.5434 -1.03403e-06 0)
(20.3836 4.96595e-07 0)
(20.2238 -1.72364e-06 0)
(20.0641 1.23953e-06 0)
(19.9046 -2.49054e-06 0)
(19.7452 2.08064e-06 0)
(19.586 4.27032e-07 0)
(19.427 2.03512e-05 0)
(19.2678 0.000124608 0)
(19.1065 0.000833996 0)
(18.9305 0.0054078 0)
(18.7146 0.0383854 0)
(17.7777 0.143056 0)
(42.6729 -4.23015e-13 0)
(42.607 -1.06965e-14 0)
(42.5312 -2.17701e-13 0)
(42.4595 1.91723e-12 0)
(42.3906 9.61185e-13 0)
(42.3215 -1.93237e-12 0)
(42.2516 -4.64204e-12 0)
(42.1813 -5.35576e-12 0)
(42.1106 -3.21593e-12 0)
(42.0395 -2.13928e-12 0)
(41.9681 -1.90033e-12 0)
(41.8963 -3.51633e-12 0)
(41.8241 -5.76836e-12 0)
(41.7515 -1.02184e-11 0)
(41.6785 -1.31163e-11 0)
(41.6052 -1.60259e-11 0)
(41.5316 -2.01653e-11 0)
(41.4576 -2.29133e-11 0)
(41.3833 -2.4575e-11 0)
(41.3087 -2.43105e-11 0)
(41.2338 -2.52965e-11 0)
(41.1586 -2.66598e-11 0)
(41.0832 -2.58493e-11 0)
(41.0075 -2.41734e-11 0)
(40.9316 -2.32436e-11 0)
(40.8555 -2.13515e-11 0)
(40.7791 -2.03868e-11 0)
(40.7024 -1.93457e-11 0)
(40.6255 -2.03222e-11 0)
(40.5484 -1.97183e-11 0)
(40.4709 -1.96153e-11 0)
(40.3931 -2.08806e-11 0)
(40.315 -2.28785e-11 0)
(40.2366 -2.27447e-11 0)
(40.1577 -2.32376e-11 0)
(40.0784 -2.37687e-11 0)
(39.9987 -2.45779e-11 0)
(39.9184 -2.3557e-11 0)
(39.8377 -2.23413e-11 0)
(39.7564 -2.0558e-11 0)
(39.6745 -1.81891e-11 0)
(39.592 -1.54704e-11 0)
(39.5089 -1.38998e-11 0)
(39.4251 -1.24954e-11 0)
(39.3406 -1.08977e-11 0)
(39.2554 -1.12615e-11 0)
(39.1696 -1.19195e-11 0)
(39.083 -1.21354e-11 0)
(38.9958 -8.0447e-12 0)
(38.9078 -5.22926e-12 0)
(38.8192 -4.51437e-12 0)
(38.7298 -3.6149e-12 0)
(38.6399 -3.00734e-12 0)
(38.5492 -3.1307e-12 0)
(38.458 -3.11734e-12 0)
(38.3661 -2.00035e-12 0)
(38.2737 -1.15646e-12 0)
(38.1806 -7.29134e-13 0)
(38.087 -1.59452e-12 0)
(37.9929 -3.2108e-12 0)
(37.8982 -6.33821e-12 0)
(37.8031 -1.00079e-11 0)
(37.7073 -1.13255e-11 0)
(37.6111 -1.29386e-11 0)
(37.5143 -1.27291e-11 0)
(37.417 -1.1575e-11 0)
(37.3192 -1.09089e-11 0)
(37.2208 -1.07587e-11 0)
(37.1218 -1.09556e-11 0)
(37.0222 -1.15641e-11 0)
(36.922 -1.3268e-11 0)
(36.8211 -1.48178e-11 0)
(36.7196 -1.47759e-11 0)
(36.6173 -1.61495e-11 0)
(36.5143 -1.7416e-11 0)
(36.4105 -1.85708e-11 0)
(36.3059 -1.92516e-11 0)
(36.2005 -2.12962e-11 0)
(36.0942 -2.3072e-11 0)
(35.987 -2.66169e-11 0)
(35.8788 -3.24369e-11 0)
(35.7698 -3.68142e-11 0)
(35.6598 -4.04367e-11 0)
(35.5488 -4.24866e-11 0)
(35.4368 -4.21336e-11 0)
(35.3239 -4.02892e-11 0)
(35.21 -3.82999e-11 0)
(35.0951 -3.62514e-11 0)
(34.9793 -3.34251e-11 0)
(34.8625 -3.0559e-11 0)
(34.7448 -2.88903e-11 0)
(34.6263 -2.63937e-11 0)
(34.5069 -2.43073e-11 0)
(34.3866 -2.35962e-11 0)
(34.2656 -2.2602e-11 0)
(34.1438 -2.28818e-11 0)
(34.0213 -2.23492e-11 0)
(33.8981 -2.07223e-11 0)
(33.7741 -1.9259e-11 0)
(33.6496 -1.73531e-11 0)
(33.5244 -1.55678e-11 0)
(33.3986 -1.40384e-11 0)
(33.2722 -1.30587e-11 0)
(33.1452 -1.35405e-11 0)
(33.0176 -1.2745e-11 0)
(32.8894 -1.50939e-11 0)
(32.7607 -1.36001e-11 0)
(32.6313 -1.67335e-11 0)
(32.5014 -1.16565e-11 0)
(32.3708 -1.16158e-11 0)
(32.2397 4.76844e-12 0)
(32.1079 -5.37493e-12 0)
(31.9755 8.15742e-12 0)
(31.8424 -1.29665e-11 0)
(31.7086 3.1948e-12 0)
(31.5742 -2.11218e-11 0)
(31.4391 7.32021e-12 0)
(31.3033 -2.44426e-11 0)
(31.1667 1.67904e-11 0)
(31.0294 -2.47631e-11 0)
(30.8913 1.72985e-11 0)
(30.7525 -2.17901e-11 0)
(30.6129 8.93587e-12 0)
(30.4724 -8.65259e-12 0)
(30.3312 1.0837e-11 0)
(30.1891 1.17464e-11 0)
(30.0462 2.03851e-11 0)
(29.9025 1.00041e-11 0)
(29.7579 2.22968e-11 0)
(29.6125 -1.28659e-11 0)
(29.4663 5.08808e-11 0)
(29.3193 -5.17544e-11 0)
(29.1715 7.26863e-11 0)
(29.023 -6.50451e-11 0)
(28.8737 6.06239e-11 0)
(28.7237 -3.05686e-11 0)
(28.5731 1.65601e-11 0)
(28.4218 5.35797e-12 0)
(28.27 -2.64969e-13 0)
(28.1176 6.35572e-12 0)
(27.9647 3.06127e-11 0)
(27.8114 -1.05828e-10 0)
(27.6577 1.69598e-10 0)
(27.5035 -1.87979e-10 0)
(27.3491 8.22972e-11 0)
(27.1943 2.4685e-11 0)
(27.0392 -3.28939e-11 0)
(26.8839 -8.31229e-11 0)
(26.7284 1.44578e-10 0)
(26.5727 -1.41301e-10 0)
(26.4167 8.20932e-11 0)
(26.2606 -8.43059e-11 0)
(26.1042 1.42044e-10 0)
(25.9477 -1.52938e-10 0)
(25.791 1.12056e-10 0)
(25.6341 -1.26737e-10 0)
(25.477 8.59661e-11 0)
(25.3198 -3.60071e-10 0)
(25.1624 6.66057e-10 0)
(25.0048 -3.16398e-10 0)
(24.847 4.7244e-10 0)
(24.689 -1.60629e-09 0)
(24.5309 1.47189e-09 0)
(24.3725 -5.61854e-10 0)
(24.2141 1.30175e-09 0)
(24.0554 -1.86786e-09 0)
(23.8966 1.46068e-09 0)
(23.7377 -1.54697e-09 0)
(23.5786 2.61923e-09 0)
(23.4194 -4.35603e-09 0)
(23.2602 4.62494e-09 0)
(23.1008 -4.93826e-09 0)
(22.9413 7.2394e-09 0)
(22.7818 -9.56e-09 0)
(22.6222 1.19111e-08 0)
(22.4625 -1.72995e-08 0)
(22.3027 2.41285e-08 0)
(22.143 -3.47507e-08 0)
(21.9831 5.33828e-08 0)
(21.8232 -8.61019e-08 0)
(21.6633 1.36221e-07 0)
(21.5033 -2.32671e-07 0)
(21.3433 3.42406e-07 0)
(21.1834 -5.36017e-07 0)
(21.0234 7.44132e-07 0)
(20.8634 -1.029e-06 0)
(20.7034 1.2992e-06 0)
(20.5435 -1.62588e-06 0)
(20.3836 1.98821e-06 0)
(20.2239 -2.35482e-06 0)
(20.0642 2.86194e-06 0)
(19.9046 -3.19864e-06 0)
(19.7453 4.63513e-06 0)
(19.5861 1.09195e-06 0)
(19.4271 3.97457e-05 0)
(19.2683 0.000225748 0)
(19.1098 0.00151071 0)
(18.9515 0.00968964 0)
(18.7932 0.0627345 0)
(18.5788 0.226636 0)
(42.673 -0.000127925 0)
(42.6071 -9.85827e-05 0)
(42.5312 -8.6469e-05 0)
(42.4596 -8.57536e-05 0)
(42.3906 -8.56471e-05 0)
(42.3215 -8.52778e-05 0)
(42.2516 -8.50146e-05 0)
(42.1813 -8.48429e-05 0)
(42.1106 -8.47255e-05 0)
(42.0395 -8.46355e-05 0)
(41.9681 -8.45688e-05 0)
(41.8963 -8.45209e-05 0)
(41.8241 -8.44876e-05 0)
(41.7515 -8.44661e-05 0)
(41.6786 -8.44538e-05 0)
(41.6053 -8.44489e-05 0)
(41.5316 -8.44502e-05 0)
(41.4576 -8.44562e-05 0)
(41.3833 -8.44662e-05 0)
(41.3087 -8.44794e-05 0)
(41.2338 -8.44954e-05 0)
(41.1586 -8.45136e-05 0)
(41.0832 -8.4534e-05 0)
(41.0076 -8.45561e-05 0)
(40.9316 -8.45798e-05 0)
(40.8555 -8.46053e-05 0)
(40.7791 -8.46319e-05 0)
(40.7024 -8.46605e-05 0)
(40.6255 -8.46903e-05 0)
(40.5484 -8.47218e-05 0)
(40.4709 -8.47551e-05 0)
(40.3931 -8.47901e-05 0)
(40.315 -8.48268e-05 0)
(40.2366 -8.48665e-05 0)
(40.1577 -8.49077e-05 0)
(40.0784 -8.49525e-05 0)
(39.9987 -8.5e-05 0)
(39.9184 -8.50505e-05 0)
(39.8377 -8.51041e-05 0)
(39.7564 -8.51581e-05 0)
(39.6745 -8.52151e-05 0)
(39.592 -8.52757e-05 0)
(39.5088 -8.53405e-05 0)
(39.425 -8.54107e-05 0)
(39.3406 -8.54866e-05 0)
(39.2554 -8.55663e-05 0)
(39.1696 -8.56479e-05 0)
(39.083 -8.57292e-05 0)
(38.9957 -8.58106e-05 0)
(38.9078 -8.58919e-05 0)
(38.8191 -8.59749e-05 0)
(38.7298 -8.60602e-05 0)
(38.6398 -8.61463e-05 0)
(38.5492 -8.62347e-05 0)
(38.458 -8.63211e-05 0)
(38.3661 -8.64063e-05 0)
(38.2736 -8.64899e-05 0)
(38.1806 -8.65719e-05 0)
(38.087 -8.665e-05 0)
(37.9929 -8.67211e-05 0)
(37.8982 -8.67792e-05 0)
(37.803 -8.68154e-05 0)
(37.7073 -8.68201e-05 0)
(37.611 -8.67846e-05 0)
(37.5143 -8.67e-05 0)
(37.417 -8.65562e-05 0)
(37.3191 -8.63406e-05 0)
(37.2207 -8.6039e-05 0)
(37.1217 -8.56341e-05 0)
(37.0221 -8.5106e-05 0)
(36.9219 -8.44331e-05 0)
(36.8211 -8.35932e-05 0)
(36.7195 -8.25646e-05 0)
(36.6172 -8.13268e-05 0)
(36.5142 -7.98623e-05 0)
(36.4104 -7.81572e-05 0)
(36.3058 -7.62019e-05 0)
(36.2004 -7.39922e-05 0)
(36.0941 -7.15295e-05 0)
(35.9869 -6.88218e-05 0)
(35.8788 -6.58834e-05 0)
(35.7697 -6.27353e-05 0)
(35.6597 -5.94042e-05 0)
(35.5487 -5.59221e-05 0)
(35.4367 -5.23255e-05 0)
(35.3238 -4.8654e-05 0)
(35.2099 -4.49492e-05 0)
(35.095 -4.12533e-05 0)
(34.9792 -3.76078e-05 0)
(34.8624 -3.40516e-05 0)
(34.7448 -3.06206e-05 0)
(34.6262 -2.73462e-05 0)
(34.5068 -2.42547e-05 0)
(34.3866 -2.13666e-05 0)
(34.2655 -1.86965e-05 0)
(34.1437 -1.62533e-05 0)
(34.0212 -1.40401e-05 0)
(33.898 -1.20553e-05 0)
(33.7741 -1.02927e-05 0)
(33.6495 -8.74282e-06 0)
(33.5243 -7.3929e-06 0)
(33.3985 -6.2281e-06 0)
(33.2721 -5.23227e-06 0)
(33.1451 -4.38873e-06 0)
(33.0175 -3.68073e-06 0)
(32.8894 -3.09185e-06 0)
(32.7606 -2.60637e-06 0)
(32.6313 -2.20963e-06 0)
(32.5013 -1.88823e-06 0)
(32.3708 -1.63006e-06 0)
(32.2396 -1.42449e-06 0)
(32.1078 -1.2623e-06 0)
(31.9754 -1.13554e-06 0)
(31.8423 -1.03734e-06 0)
(31.7086 -9.61766e-07 0)
(31.5742 -9.03961e-07 0)
(31.4391 -8.6001e-07 0)
(31.3032 -8.26934e-07 0)
(31.1667 -8.02142e-07 0)
(31.0294 -7.83686e-07 0)
(30.8913 -7.69769e-07 0)
(30.7525 -7.59323e-07 0)
(30.6128 -7.51438e-07 0)
(30.4724 -7.45616e-07 0)
(30.3311 -7.41183e-07 0)
(30.1891 -7.37559e-07 0)
(30.0462 -7.34168e-07 0)
(29.9024 -7.3079e-07 0)
(29.7579 -7.27338e-07 0)
(29.6125 -7.23808e-07 0)
(29.4663 -7.19883e-07 0)
(29.3193 -7.15577e-07 0)
(29.1715 -7.10231e-07 0)
(29.0229 -7.04182e-07 0)
(28.8737 -6.96821e-07 0)
(28.7237 -6.88694e-07 0)
(28.573 -6.79518e-07 0)
(28.4218 -6.69528e-07 0)
(28.2699 -6.58513e-07 0)
(28.1176 -6.46373e-07 0)
(27.9647 -6.32946e-07 0)
(27.8114 -6.18463e-07 0)
(27.6576 -6.025e-07 0)
(27.5035 -5.8608e-07 0)
(27.349 -5.68193e-07 0)
(27.1942 -5.49749e-07 0)
(27.0392 -5.30688e-07 0)
(26.8839 -5.11265e-07 0)
(26.7284 -4.91313e-07 0)
(26.5726 -4.71658e-07 0)
(26.4166 -4.51027e-07 0)
(26.2605 -4.30678e-07 0)
(26.1042 -4.09574e-07 0)
(25.9476 -3.88943e-07 0)
(25.7909 -3.67848e-07 0)
(25.6341 -3.47244e-07 0)
(25.477 -3.26384e-07 0)
(25.3197 -3.05996e-07 0)
(25.1623 -2.83955e-07 0)
(25.0047 -2.63456e-07 0)
(24.8469 -2.41263e-07 0)
(24.6889 -2.21693e-07 0)
(24.5308 -1.9714e-07 0)
(24.3725 -1.77237e-07 0)
(24.214 -1.53182e-07 0)
(24.0554 -1.33435e-07 0)
(23.8966 -1.06519e-07 0)
(23.7376 -8.51628e-08 0)
(23.5786 -5.57806e-08 0)
(23.4194 -3.50183e-08 0)
(23.2601 -2.06715e-09 0)
(23.1007 1.5454e-08 0)
(22.9413 4.6121e-08 0)
(22.7817 5.35585e-08 0)
(22.6221 9.30465e-08 0)
(22.4624 9.05179e-08 0)
(22.3027 1.4789e-07 0)
(22.1429 1.20301e-07 0)
(21.9831 2.17972e-07 0)
(21.8232 1.21464e-07 0)
(21.6632 3.36703e-07 0)
(21.5033 4.42402e-08 0)
(21.3433 5.649e-07 0)
(21.1833 -1.67466e-07 0)
(21.0233 9.6648e-07 0)
(20.8633 -5.22939e-07 0)
(20.7034 1.48175e-06 0)
(20.5435 -9.29159e-07 0)
(20.3836 1.89642e-06 0)
(20.2238 -1.14254e-06 0)
(20.0641 2.18271e-06 0)
(19.9046 -1.36931e-06 0)
(19.7452 3.4305e-06 0)
(19.586 5.2575e-07 0)
(19.4271 2.55189e-05 0)
(19.2688 0.00013404 0)
(19.1131 0.000900633 0)
(18.9733 0.00589272 0)
(18.8651 0.049156 0)
(19.4145 0.158777 0)
(42.6712 -0.000100884 0)
(42.6035 -9.23933e-05 0)
(42.5259 -9.00549e-05 0)
(42.4524 -9.0934e-05 0)
(42.3817 -9.16496e-05 0)
(42.3108 -9.20865e-05 0)
(42.2391 -9.24171e-05 0)
(42.167 -9.26699e-05 0)
(42.0945 -9.28678e-05 0)
(42.0216 -9.30189e-05 0)
(41.9484 -9.31363e-05 0)
(41.8748 -9.3229e-05 0)
(41.8008 -9.33031e-05 0)
(41.7264 -9.33633e-05 0)
(41.6517 -9.34126e-05 0)
(41.5766 -9.34537e-05 0)
(41.5011 -9.34884e-05 0)
(41.4253 -9.35182e-05 0)
(41.3492 -9.35442e-05 0)
(41.2728 -9.35672e-05 0)
(41.1962 -9.3588e-05 0)
(41.1192 -9.36072e-05 0)
(41.042 -9.36252e-05 0)
(40.9645 -9.36425e-05 0)
(40.8868 -9.36592e-05 0)
(40.8088 -9.36759e-05 0)
(40.7307 -9.36925e-05 0)
(40.6522 -9.37096e-05 0)
(40.5735 -9.37271e-05 0)
(40.4945 -9.37453e-05 0)
(40.4153 -9.37646e-05 0)
(40.3357 -9.37849e-05 0)
(40.2558 -9.38066e-05 0)
(40.1755 -9.38304e-05 0)
(40.0949 -9.38558e-05 0)
(40.0138 -9.38839e-05 0)
(39.9323 -9.39146e-05 0)
(39.8502 -9.39481e-05 0)
(39.7677 -9.39845e-05 0)
(39.6846 -9.40221e-05 0)
(39.6009 -9.40624e-05 0)
(39.5165 -9.41061e-05 0)
(39.4316 -9.41536e-05 0)
(39.346 -9.42056e-05 0)
(39.2597 -9.42624e-05 0)
(39.1727 -9.4323e-05 0)
(39.0851 -9.43858e-05 0)
(38.9967 -9.44493e-05 0)
(38.9076 -9.45134e-05 0)
(38.8179 -9.45779e-05 0)
(38.7274 -9.4644e-05 0)
(38.6363 -9.47122e-05 0)
(38.5445 -9.47814e-05 0)
(38.452 -9.48524e-05 0)
(38.359 -9.49222e-05 0)
(38.2653 -9.49906e-05 0)
(38.171 -9.50569e-05 0)
(38.0762 -9.51204e-05 0)
(37.9807 -9.51787e-05 0)
(37.8848 -9.52285e-05 0)
(37.7883 -9.52641e-05 0)
(37.6913 -9.52774e-05 0)
(37.5937 -9.52588e-05 0)
(37.4956 -9.51988e-05 0)
(37.3971 -9.50872e-05 0)
(37.2979 -9.49122e-05 0)
(37.1983 -9.46597e-05 0)
(37.0981 -9.43136e-05 0)
(36.9973 -9.3855e-05 0)
(36.8959 -9.32627e-05 0)
(36.7939 -9.25135e-05 0)
(36.6913 -9.15839e-05 0)
(36.588 -9.04506e-05 0)
(36.484 -8.90915e-05 0)
(36.3793 -8.74873e-05 0)
(36.2739 -8.56225e-05 0)
(36.1676 -8.3486e-05 0)
(36.0606 -8.10725e-05 0)
(35.9528 -7.83828e-05 0)
(35.8441 -7.54245e-05 0)
(35.7346 -7.22125e-05 0)
(35.6242 -6.87687e-05 0)
(35.5129 -6.51216e-05 0)
(35.4007 -6.13057e-05 0)
(35.2876 -5.73604e-05 0)
(35.1736 -5.33287e-05 0)
(35.0587 -4.92561e-05 0)
(34.943 -4.5189e-05 0)
(34.8263 -4.11728e-05 0)
(34.7088 -3.7251e-05 0)
(34.5905 -3.34635e-05 0)
(34.4714 -2.98453e-05 0)
(34.3514 -2.64263e-05 0)
(34.2307 -2.323e-05 0)
(34.1093 -2.02733e-05 0)
(33.9872 -1.75671e-05 0)
(33.8644 -1.51157e-05 0)
(33.7409 -1.2918e-05 0)
(33.6168 -1.09682e-05 0)
(33.492 -9.25577e-06 0)
(33.3667 -7.76717e-06 0)
(33.2408 -6.48598e-06 0)
(33.1143 -5.39423e-06 0)
(32.9872 -4.47307e-06 0)
(32.8596 -3.70347e-06 0)
(32.7314 -3.0667e-06 0)
(32.6026 -2.54481e-06 0)
(32.4732 -2.12103e-06 0)
(32.3433 -1.78006e-06 0)
(32.2127 -1.5081e-06 0)
(32.0816 -1.29309e-06 0)
(31.9498 -1.1246e-06 0)
(31.8174 -9.93714e-07 0)
(31.6843 -8.9283e-07 0)
(31.5506 -8.15522e-07 0)
(31.4162 -7.56506e-07 0)
(31.2811 -7.1166e-07 0)
(31.1453 -6.77728e-07 0)
(31.0087 -6.5211e-07 0)
(30.8714 -6.32702e-07 0)
(30.7334 -6.17833e-07 0)
(30.5946 -6.06304e-07 0)
(30.455 -5.97313e-07 0)
(30.3146 -5.90273e-07 0)
(30.1733 -5.84617e-07 0)
(30.0313 -5.79797e-07 0)
(29.8884 -5.75333e-07 0)
(29.7447 -5.71022e-07 0)
(29.6002 -5.66812e-07 0)
(29.4548 -5.62669e-07 0)
(29.3086 -5.58443e-07 0)
(29.1616 -5.5399e-07 0)
(29.0138 -5.49043e-07 0)
(28.8653 -5.43549e-07 0)
(28.7161 -5.37383e-07 0)
(28.5661 -5.30657e-07 0)
(28.4155 -5.234e-07 0)
(28.2643 -5.15651e-07 0)
(28.1124 -5.07295e-07 0)
(27.9601 -4.98186e-07 0)
(27.8072 -4.88217e-07 0)
(27.6539 -4.77414e-07 0)
(27.5002 -4.65754e-07 0)
(27.3461 -4.53359e-07 0)
(27.1917 -4.40197e-07 0)
(27.0369 -4.2637e-07 0)
(26.8819 -4.11971e-07 0)
(26.7266 -3.97179e-07 0)
(26.5711 -3.82058e-07 0)
(26.4154 -3.66648e-07 0)
(26.2595 -3.5069e-07 0)
(26.1034 -3.34343e-07 0)
(25.9471 -3.1756e-07 0)
(25.7906 -3.00581e-07 0)
(25.6339 -2.83339e-07 0)
(25.477 -2.66028e-07 0)
(25.32 -2.48566e-07 0)
(25.1628 -2.30878e-07 0)
(25.0054 -2.12739e-07 0)
(24.8478 -1.94444e-07 0)
(24.6901 -1.75822e-07 0)
(24.5321 -1.57297e-07 0)
(24.374 -1.38245e-07 0)
(24.2157 -1.19479e-07 0)
(24.0573 -1.00229e-07 0)
(23.8987 -8.10157e-08 0)
(23.7399 -6.08427e-08 0)
(23.581 -4.08148e-08 0)
(23.422 -2.0259e-08 0)
(23.2629 -3.36519e-10 0)
(23.1036 1.80517e-08 0)
(22.9443 3.93369e-08 0)
(22.7848 6.18507e-08 0)
(22.6253 8.32247e-08 0)
(22.4658 1.07893e-07 0)
(22.3061 1.28233e-07 0)
(22.1464 1.55491e-07 0)
(21.9867 1.72699e-07 0)
(21.8269 2.06116e-07 0)
(21.667 2.13807e-07 0)
(21.5072 2.66357e-07 0)
(21.3472 2.48418e-07 0)
(21.1873 3.4961e-07 0)
(21.0274 2.62096e-07 0)
(20.8674 4.71279e-07 0)
(20.7075 2.65201e-07 0)
(20.5475 6.21541e-07 0)
(20.3877 2.06868e-07 0)
(20.2279 7.53837e-07 0)
(20.0681 1.99856e-07 0)
(19.9085 8.55154e-07 0)
(19.749 2.19342e-07 0)
(19.5897 1.08829e-06 0)
(19.4306 4.5633e-07 0)
(19.2717 4.0796e-06 0)
(19.1135 1.79019e-05 0)
(18.958 0.000121721 0)
(18.8202 0.000936257 0)
(18.7215 0.0180032 0)
(20.3737 0.0554468 0)
(16.6897 0.604025 -3.44219e-15)
(16.2268 1.71945 6.89235e-15)
(16.0556 2.9438 -1.29207e-14)
(15.9205 4.17273 2.66905e-14)
(15.683 5.39917 -2.75401e-14)
(15.24 6.56864 -1.72145e-15)
(14.5602 7.61042 -9.28033e-20)
(13.7955 8.58916 -2.41232e-14)
(13.4099 9.80247 -1.11644e-13)
(13.5394 11.6349 1.09273e-13)
(13.7307 13.8888 -2.71625e-14)
(13.3053 15.827 -5.59258e-14)
(12.117 16.7943 2.88156e-14)
(10.5045 16.9217 0)
(8.75931 16.588 2.72679e-14)
(7.00104 15.8996 2.7397e-14)
(5.34804 15.1978 -2.75382e-14)
(4.038 15.5181 2.75391e-14)
(2.98346 17.7308 2.12827e-16)
(1.89001 22.0208 -2.08562e-16)
(17.4385 0.87231 0)
(17.1879 2.18591 0)
(17.0246 3.62631 -1.75698e-15)
(16.8518 5.07385 -3.51037e-15)
(16.5544 6.56328 8.76958e-15)
(15.9848 8.07787 1.75432e-14)
(15.1343 9.43727 0)
(14.2286 10.4951 1.0532e-14)
(13.8708 11.3582 1.7478e-14)
(14.0416 12.7663 -4.16547e-14)
(14.0875 15.0362 2.75946e-14)
(13.1702 17.7813 1.37815e-14)
(11.3661 19.5945 -1.37844e-14)
(9.156 20.2932 1.37789e-14)
(6.7966 20.289 0)
(4.50622 19.5287 -1.73243e-15)
(2.72985 18.1016 1.74422e-15)
(2.35458 17.0388 -6.14379e-15)
(2.69047 17.8103 -8.68936e-16)
(3.06216 20.1526 0)
(18.5234 0.411927 -4.60697e-17)
(18.5261 0.639098 -2.34059e-14)
(18.6089 0.880381 2.37753e-14)
(18.7526 1.13964 -2.28586e-14)
(18.944 1.44061 -2.508e-14)
(19.1851 1.82027 9.33411e-14)
(19.4469 2.34393 -4.7235e-14)
(19.666 3.05002 4.57761e-14)
(19.7279 3.9299 -9.30642e-14)
(19.6581 4.80653 1.47802e-15)
(19.6443 5.52889 4.58968e-14)
(19.8694 6.14915 0)
(20.2051 6.953 -4.60013e-14)
(20.3668 8.0775 4.60027e-14)
(20.2272 9.45125 -3.70872e-16)
(19.7279 11.0033 0)
(18.7922 12.6471 3.70595e-16)
(17.2197 14.2204 0)
(15.1564 15.4428 0)
(13.3911 16.155 0)
(19.4211 1.04033 7.44838e-16)
(19.1899 2.53385 -7.46191e-15)
(18.8144 4.29197 -1.49221e-15)
(18.4354 6.06636 2.97876e-15)
(18.0612 7.81406 -2.97208e-15)
(17.6317 9.53558 2.6768e-20)
(17.1149 11.2249 -1.18206e-14)
(16.487 12.8734 0)
(15.7351 14.4737 0)
(14.8493 16.0201 -5.85725e-15)
(13.8206 17.502 5.84066e-15)
(12.642 18.9028 0)
(11.3159 20.2007 -5.8112e-15)
(9.8586 21.3777 5.79892e-15)
(8.29066 22.4267 -5.78623e-15)
(6.62786 23.3345 1.155e-14)
(4.89303 24.108 -5.76236e-15)
(3.104 24.7392 0)
(1.28923 25.2307 -2.87051e-15)
(-0.467939 25.6937 0)
(20.8231 0.85223 -1.15265e-15)
(21.1343 2.16232 8.83583e-15)
(21.0241 3.68868 6.14251e-15)
(20.7629 5.25365 1.22679e-14)
(20.4903 6.8446 0)
(20.1738 8.47856 0)
(19.7691 10.1445 1.21927e-14)
(19.2483 11.8255 3.04026e-15)
(18.597 13.5054 -6.06426e-15)
(17.8069 15.165 3.02396e-15)
(16.8718 16.7786 2.4129e-14)
(15.7859 18.3183 -1.50445e-14)
(14.5453 19.7613 1.50127e-14)
(13.1527 21.093 -2.99665e-15)
(11.6183 22.3048 -1.19654e-14)
(9.95539 23.3837 -2.09081e-14)
(8.17292 24.3322 -1.04368e-14)
(6.30407 25.1192 -1.48927e-15)
(4.38727 25.6763 8.56132e-15)
(2.56586 25.8436 3.72306e-16)
(0.568186 30.8377 0)
(0.635782 30.1085 0)
(0.679986 27.9557 0)
(0.549751 28.7203 0)
(0.571252 30.83 0)
(0.703284 31.7017 0)
(0.757074 31.3893 0)
(0.720151 31.4177 0)
(0.725261 32.1585 0)
(0.808831 32.5803 0)
(0.850301 32.3563 0)
(0.825523 32.316 0)
(0.818348 32.8469 0)
(0.880838 33.2488 0)
(0.924133 33.0855 0)
(0.945096 32.6771 0)
(0.921214 32.5727 0)
(0.902767 32.9966 0)
(0.946664 33.3721 0)
(0.990192 33.276 0)
(1.012 32.9396 0)
(1.02266 32.6572 0)
(1.00908 32.6053 0)
(1.01555 32.6979 0)
(1.0365 32.6572 0)
(1.05115 32.4702 0)
(1.05996 32.2644 0)
(1.06525 32.0863 0)
(1.06851 31.9292 0)
(1.07066 31.7841 0)
(1.07214 31.6447 0)
(1.07313 31.5051 0)
(1.07371 31.3596 0)
(1.07387 31.1999 0)
(1.07247 31.0199 0)
(1.0654 30.88 0)
(1.05241 30.8726 0)
(1.05778 30.8969 0)
(1.06682 30.807 0)
(1.071 30.6484 0)
(1.07234 30.4914 0)
(1.07225 30.3459 0)
(1.07152 30.2071 0)
(1.07046 30.0728 0)
(1.0692 29.9415 0)
(1.06776 29.8123 0)
(1.06614 29.6845 0)
(1.06433 29.5581 0)
(1.06237 29.4329 0)
(1.06029 29.309 0)
(1.0581 29.1863 0)
(1.05584 29.0647 0)
(1.05352 28.944 0)
(1.05117 28.8239 0)
(1.04882 28.7043 0)
(1.0465 28.5849 0)
(1.04425 28.4657 0)
(1.04208 28.3464 0)
(1.04 28.2269 0)
(1.03804 28.1071 0)
(1.03619 27.9871 0)
(1.03444 27.8668 0)
(1.03278 27.7464 0)
(1.03119 27.6259 0)
(1.02964 27.5055 0)
(1.02811 27.3854 0)
(1.02655 27.2658 0)
(1.02492 27.1468 0)
(1.02319 27.0288 0)
(1.0213 26.9117 0)
(1.0192 26.7957 0)
(1.01683 26.6809 0)
(1.01411 26.5675 0)
(1.01095 26.4553 0)
(1.00725 26.3444 0)
(1.00286 26.2346 0)
(0.997643 26.1257 0)
(0.991412 26.0173 0)
(0.983974 25.9087 0)
(0.975114 25.799 0)
(0.964605 25.687 0)
(0.952217 25.5705 0)
(0.937736 25.4463 0)
(0.92099 25.309 0)
(0.901888 25.1488 0)
(0.880408 24.9482 0)
(0.85614 24.6803 0)
(0.823675 24.3246 0)
(0.767884 24.1564 0)
(0.683687 24.5939 0)
(0.66185 25.2213 0)
(0.668271 25.3395 0)
(0.656286 25.0519 0)
(0.627169 24.6989 0)
(0.590935 24.3626 0)
(0.551764 24.0297 0)
(0.511548 23.6922 0)
(0.471376 23.347 0)
(0.431938 22.9936 0)
(0.393724 22.6337 0)