/*--------------------------------*- C++ -*----------------------------------*\
| =========                 |                                                 |
| \\      /  F ield         | OpenFOAM: The Open Source CFD Toolbox           |
|  \\    /   O peration     | Version:  3.0.x                                 |
|   \\  /    A nd           | Web:      www.OpenFOAM.org                      |
|    \\/     M anipulation  |                                                 |
\*---------------------------------------------------------------------------*/
FoamFile
{
    version     2.0;
    format      ascii;
    class       volScalarField;
    location    "0.11";
    object      rho;
}
// * * * * * * * * * * * * * * * * * * * * * * * * * * * * * * * * * * * * * //

dimensions      [1 -3 0 0 0 0 0];

internalField   nonuniform List<scalar> 
6900
(
50.5832
50.5832
50.5832
50.5834
50.5836
50.5839
50.5841
50.5843
50.5844
50.5845
50.5845
50.5846
50.5846
50.5846
50.5846
50.5846
50.5846
50.5845
50.5845
50.5844
50.5843
50.5841
50.584
50.5838
50.5835
50.5832
50.5829
50.5826
50.5822
50.5817
50.5813
50.5808
50.5802
50.5796
50.579
50.5784
50.5777
50.577
50.5763
50.5756
50.5749
50.5741
50.5734
50.5726
50.5719
50.5712
50.5705
50.5699
50.5692
50.5686
50.5681
50.5675
50.5671
50.5667
50.5663
50.566
50.5657
50.5655
50.5654
50.5653
50.5653
50.5653
50.5654
50.5655
50.5657
50.566
50.5663
50.5666
50.5669
50.5673
50.5678
50.5682
50.5687
50.5691
50.5696
50.5701
50.5705
50.571
50.5714
50.5718
50.5722
50.5725
50.5728
50.573
50.5732
50.5733
50.5734
50.5735
50.5734
50.5733
50.5732
50.573
50.5727
50.5724
50.5721
50.5717
50.5713
50.5709
50.5704
50.57
50.5695
50.5691
50.5687
50.5683
50.5679
50.5676
50.5674
50.5671
50.567
50.5669
50.5669
50.5669
50.567
50.5672
50.5674
50.5677
50.5681
50.5685
50.569
50.5695
50.5701
50.5707
50.5714
50.5721
50.5728
50.5736
50.5744
50.5752
50.576
50.5768
50.5776
50.5784
50.5793
50.58
50.5808
50.5816
50.5823
50.583
50.5837
50.5843
50.585
50.5856
50.5862
50.5868
50.5874
50.5879
50.5885
50.5891
50.5898
50.5904
50.5911
50.5918
50.5925
50.5933
50.5941
50.595
50.5959
50.5969
50.5978
50.5989
50.6
50.6011
50.6022
50.6033
50.6045
50.6056
50.6068
50.6079
50.609
50.61
50.611
50.612
50.6128
50.6136
50.6143
50.6149
50.6154
50.6159
50.6163
50.6167
50.617
50.6172
50.6175
50.6177
50.6179
50.6182
50.6184
50.6186
50.6189
50.6191
50.6194
50.6197
50.6201
50.6204
50.6209
50.6213
50.6219
50.6225
50.6236
50.6216
50.5832
50.5832
50.5833
50.5834
50.5837
50.5839
50.5842
50.5844
50.5845
50.5845
50.5846
50.5846
50.5846
50.5846
50.5847
50.5846
50.5846
50.5846
50.5845
50.5844
50.5843
50.5842
50.584
50.5838
50.5836
50.5833
50.583
50.5826
50.5822
50.5818
50.5813
50.5808
50.5803
50.5797
50.5791
50.5784
50.5778
50.5771
50.5764
50.5756
50.5749
50.5742
50.5734
50.5727
50.572
50.5712
50.5706
50.5699
50.5693
50.5687
50.5681
50.5676
50.5671
50.5667
50.5663
50.566
50.5658
50.5656
50.5654
50.5653
50.5653
50.5653
50.5654
50.5656
50.5658
50.566
50.5663
50.5666
50.567
50.5674
50.5678
50.5682
50.5687
50.5692
50.5696
50.5701
50.5706
50.571
50.5714
50.5718
50.5722
50.5725
50.5728
50.5731
50.5732
50.5734
50.5735
50.5735
50.5735
50.5734
50.5732
50.573
50.5728
50.5725
50.5721
50.5717
50.5713
50.5709
50.5705
50.57
50.5696
50.5691
50.5687
50.5683
50.568
50.5677
50.5674
50.5672
50.567
50.5669
50.5669
50.5669
50.5671
50.5672
50.5675
50.5678
50.5681
50.5686
50.569
50.5696
50.5702
50.5708
50.5714
50.5721
50.5729
50.5736
50.5744
50.5752
50.576
50.5769
50.5777
50.5785
50.5793
50.5801
50.5808
50.5816
50.5823
50.583
50.5837
50.5844
50.585
50.5856
50.5862
50.5868
50.5874
50.588
50.5886
50.5892
50.5898
50.5904
50.5911
50.5918
50.5926
50.5933
50.5942
50.595
50.5959
50.5969
50.5979
50.5989
50.6
50.6011
50.6022
50.6034
50.6045
50.6057
50.6068
50.6079
50.609
50.6101
50.6111
50.612
50.6128
50.6136
50.6143
50.6149
50.6155
50.6159
50.6163
50.6167
50.617
50.6173
50.6175
50.6177
50.618
50.6182
50.6184
50.6186
50.6189
50.6192
50.6194
50.6197
50.6201
50.6205
50.6209
50.6214
50.622
50.6225
50.6236
50.622
50.5832
50.5832
50.5833
50.5834
50.5837
50.5839
50.5842
50.5844
50.5845
50.5845
50.5846
50.5846
50.5846
50.5846
50.5847
50.5846
50.5846
50.5846
50.5845
50.5844
50.5843
50.5842
50.584
50.5838
50.5836
50.5833
50.583
50.5826
50.5822
50.5818
50.5813
50.5808
50.5803
50.5797
50.5791
50.5784
50.5778
50.5771
50.5764
50.5756
50.5749
50.5742
50.5734
50.5727
50.572
50.5712
50.5706
50.5699
50.5693
50.5687
50.5681
50.5676
50.5671
50.5667
50.5663
50.566
50.5658
50.5656
50.5654
50.5653
50.5653
50.5653
50.5654
50.5656
50.5658
50.566
50.5663
50.5666
50.567
50.5674
50.5678
50.5682
50.5687
50.5692
50.5696
50.5701
50.5706
50.571
50.5714
50.5718
50.5722
50.5725
50.5728
50.5731
50.5732
50.5734
50.5735
50.5735
50.5735
50.5734
50.5732
50.573
50.5728
50.5725
50.5721
50.5717
50.5713
50.5709
50.5705
50.57
50.5696
50.5691
50.5687
50.5683
50.568
50.5677
50.5674
50.5672
50.567
50.5669
50.5669
50.5669
50.5671
50.5672
50.5675
50.5678
50.5681
50.5686
50.569
50.5696
50.5702
50.5708
50.5714
50.5721
50.5729
50.5736
50.5744
50.5752
50.576
50.5769
50.5777
50.5785
50.5793
50.5801
50.5808
50.5816
50.5823
50.583
50.5837
50.5844
50.585
50.5856
50.5862
50.5868
50.5874
50.588
50.5886
50.5892
50.5898
50.5904
50.5911
50.5918
50.5926
50.5933
50.5942
50.595
50.5959
50.5969
50.5979
50.5989
50.6
50.6011
50.6022
50.6034
50.6045
50.6057
50.6068
50.6079
50.609
50.6101
50.6111
50.612
50.6128
50.6136
50.6143
50.6149
50.6155
50.6159
50.6163
50.6167
50.617
50.6173
50.6175
50.6177
50.618
50.6182
50.6184
50.6187
50.6189
50.6192
50.6194
50.6197
50.6201
50.6205
50.6209
50.6214
50.6219
50.6225
50.6232
50.624
50.5832
50.5832
50.5833
50.5834
50.5837
50.5839
50.5842
50.5844
50.5845
50.5845
50.5846
50.5846
50.5846
50.5846
50.5847
50.5846
50.5846
50.5846
50.5845
50.5844
50.5843
50.5842
50.584
50.5838
50.5836
50.5833
50.583
50.5826
50.5822
50.5818
50.5813
50.5808
50.5803
50.5797
50.5791
50.5784
50.5778
50.5771
50.5764
50.5756
50.5749
50.5742
50.5734
50.5727
50.572
50.5712
50.5706
50.5699
50.5693
50.5687
50.5681
50.5676
50.5671
50.5667
50.5663
50.566
50.5658
50.5656
50.5654
50.5653
50.5653
50.5653
50.5654
50.5656
50.5658
50.566
50.5663
50.5666
50.567
50.5674
50.5678
50.5682
50.5687
50.5692
50.5696
50.5701
50.5706
50.571
50.5714
50.5718
50.5722
50.5725
50.5728
50.5731
50.5732
50.5734
50.5735
50.5735
50.5735
50.5734
50.5732
50.573
50.5728
50.5725
50.5721
50.5717
50.5713
50.5709
50.5705
50.57
50.5696
50.5691
50.5687
50.5683
50.568
50.5677
50.5674
50.5672
50.567
50.5669
50.5669
50.5669
50.5671
50.5672
50.5675
50.5678
50.5681
50.5686
50.569
50.5696
50.5702
50.5708
50.5714
50.5721
50.5729
50.5736
50.5744
50.5752
50.576
50.5769
50.5777
50.5785
50.5793
50.5801
50.5808
50.5816
50.5823
50.583
50.5837
50.5844
50.585
50.5856
50.5862
50.5868
50.5874
50.588
50.5886
50.5892
50.5898
50.5904
50.5911
50.5918
50.5926
50.5933
50.5942
50.595
50.5959
50.5969
50.5979
50.5989
50.6
50.6011
50.6022
50.6034
50.6045
50.6057
50.6068
50.6079
50.609
50.6101
50.6111
50.612
50.6128
50.6136
50.6143
50.6149
50.6155
50.6159
50.6163
50.6167
50.617
50.6173
50.6175
50.6177
50.618
50.6182
50.6184
50.6187
50.6189
50.6192
50.6194
50.6198
50.6201
50.6205
50.6209
50.6214
50.6219
50.6226
50.6224
50.6289
50.5832
50.5832
50.5832
50.5834
50.5836
50.5839
50.5841
50.5843
50.5844
50.5845
50.5845
50.5846
50.5846
50.5846
50.5846
50.5846
50.5846
50.5845
50.5845
50.5844
50.5843
50.5841
50.584
50.5838
50.5835
50.5832
50.5829
50.5826
50.5822
50.5817
50.5813
50.5808
50.5802
50.5796
50.579
50.5784
50.5777
50.577
50.5763
50.5756
50.5749
50.5741
50.5734
50.5726
50.5719
50.5712
50.5705
50.5699
50.5692
50.5686
50.5681
50.5675
50.5671
50.5667
50.5663
50.566
50.5657
50.5655
50.5654
50.5653
50.5653
50.5653
50.5654
50.5655
50.5657
50.566
50.5663
50.5666
50.5669
50.5673
50.5678
50.5682
50.5687
50.5691
50.5696
50.5701
50.5705
50.571
50.5714
50.5718
50.5722
50.5725
50.5728
50.573
50.5732
50.5733
50.5734
50.5735
50.5734
50.5733
50.5732
50.573
50.5727
50.5724
50.5721
50.5717
50.5713
50.5709
50.5704
50.57
50.5695
50.5691
50.5687
50.5683
50.5679
50.5676
50.5674
50.5671
50.567
50.5669
50.5669
50.5669
50.567
50.5672
50.5674
50.5677
50.5681
50.5685
50.569
50.5695
50.5701
50.5707
50.5714
50.5721
50.5728
50.5736
50.5744
50.5752
50.576
50.5768
50.5776
50.5784
50.5793
50.58
50.5808
50.5816
50.5823
50.583
50.5837
50.5843
50.585
50.5856
50.5862
50.5868
50.5874
50.5879
50.5885
50.5891
50.5898
50.5904
50.5911
50.5918
50.5925
50.5933
50.5941
50.595
50.5959
50.5969
50.5978
50.5989
50.6
50.6011
50.6022
50.6033
50.6045
50.6056
50.6068
50.6079
50.609
50.61
50.611
50.612
50.6128
50.6136
50.6143
50.6149
50.6154
50.6159
50.6163
50.6167
50.617
50.6172
50.6175
50.6177
50.6179
50.6182
50.6184
50.6186
50.6189
50.6191
50.6194
50.6197
50.62
50.6204
50.6209
50.6214
50.6219
50.6226
50.6219
50.6341
50.6391
50.6456
50.6464
50.6447
50.6431
50.6414
50.6397
50.6387
50.6406
50.6417
50.6385
50.6302
50.6193
50.6109
50.6037
50.5972
50.5945
50.6004
50.6126
50.6151
50.6358
50.639
50.639
50.6374
50.6359
50.6344
50.6326
50.6318
50.634
50.6351
50.6308
50.6214
50.6108
50.603
50.5962
50.5903
50.5881
50.5954
50.6071
50.6059
50.6252
50.6253
50.6244
50.6226
50.6201
50.6169
50.613
50.6083
50.6023
50.596
50.5895
50.5832
50.5763
50.5681
50.5589
50.5489
50.5379
50.5256
50.5128
50.5018
50.6044
50.6017
50.6027
50.6041
50.6032
50.5997
50.595
50.5884
50.583
50.576
50.5701
50.5634
50.5574
50.5515
50.546
50.5412
50.5374
50.5338
50.5313
50.5293
50.5952
50.584
50.5799
50.5793
50.5773
50.5727
50.5669
50.5593
50.5524
50.5442
50.5367
50.5288
50.5215
50.5143
50.5081
50.5021
50.4973
50.493
50.4898
50.4883
50.5446
50.5148
50.5243
50.5297
50.5238
50.5201
50.5204
50.5212
50.5215
50.5216
50.5223
50.523
50.5232
50.5233
50.5236
50.5241
50.5246
50.5249
50.5214
50.4967
50.4319
50.394
50.3905
50.4139
50.4924
50.5512
50.5717
50.573
50.5646
50.5503
50.542
50.5377
50.5356
50.5345
50.534
50.5336
50.5334
50.5332
50.533
50.5328
50.5327
50.5326
50.5324
50.5323
50.5323
50.5322
50.5321
50.5321
50.5321
50.5321
50.5321
50.5321
50.5322
50.5322
50.5323
50.5324
50.5325
50.5326
50.5327
50.5328
50.5329
50.533
50.5331
50.5332
50.5333
50.5334
50.5335
50.5336
50.5337
50.5338
50.5338
50.5339
50.5339
50.5339
50.5339
50.5339
50.5338
50.5338
50.5337
50.5336
50.5335
50.5334
50.5333
50.5331
50.533
50.5328
50.5326
50.5324
50.5322
50.532
50.5318
50.5317
50.5315
50.5313
50.5311
50.531
50.5309
50.5307
50.5306
50.5306
50.5305
50.5305
50.5305
50.5305
50.5305
50.5306
50.5307
50.5308
50.531
50.5311
50.5313
50.5315
50.5317
50.532
50.5322
50.5325
50.5327
50.533
50.5333
50.5336
50.5338
50.5341
50.5344
50.5347
50.535
50.5353
50.5356
50.5359
50.5362
50.5365
50.5368
50.5371
50.5375
50.5379
50.5382
50.5386
50.5391
50.5395
50.54
50.5405
50.541
50.5416
50.5422
50.5428
50.5434
50.5441
50.5448
50.5456
50.5463
50.5471
50.548
50.5488
50.5497
50.5506
50.5514
50.5523
50.5532
50.5541
50.555
50.5559
50.5568
50.5576
50.5584
50.5592
50.5599
50.5606
50.5612
50.5618
50.5624
50.5629
50.5633
50.5637
50.564
50.5642
50.5644
50.5646
50.5648
50.5649
50.5649
50.565
50.565
50.5651
50.5651
50.5651
50.5652
50.5652
50.5653
50.5654
50.5654
50.5655
50.5657
50.5658
50.566
50.5662
50.5664
50.5666
50.5669
50.5673
50.5665
50.5751
50.5399
50.5141
50.5242
50.5286
50.5227
50.5193
50.5193
50.52
50.5202
50.5203
50.5209
50.5216
50.5217
50.5217
50.5222
50.523
50.5238
50.5244
50.5238
50.5162
50.4951
50.4824
50.4809
50.4866
50.5068
50.5248
50.533
50.5356
50.5359
50.5357
50.5351
50.5346
50.5343
50.534
50.5337
50.5335
50.5333
50.5332
50.533
50.5329
50.5327
50.5326
50.5325
50.5324
50.5323
50.5322
50.5322
50.5321
50.5321
50.5321
50.5321
50.5321
50.5322
50.5322
50.5323
50.5324
50.5325
50.5326
50.5327
50.5328
50.5329
50.533
50.5332
50.5333
50.5334
50.5335
50.5336
50.5337
50.5337
50.5338
50.5339
50.5339
50.5339
50.5339
50.5339
50.5339
50.5339
50.5338
50.5337
50.5337
50.5336
50.5334
50.5333
50.5331
50.533
50.5328
50.5326
50.5325
50.5323
50.5321
50.5319
50.5317
50.5315
50.5313
50.5312
50.531
50.5309
50.5308
50.5307
50.5306
50.5305
50.5305
50.5305
50.5305
50.5306
50.5306
50.5307
50.5308
50.531
50.5312
50.5313
50.5316
50.5318
50.532
50.5322
50.5325
50.5328
50.533
50.5333
50.5336
50.5339
50.5342
50.5345
50.5347
50.535
50.5353
50.5356
50.5359
50.5362
50.5365
50.5368
50.5372
50.5375
50.5379
50.5383
50.5387
50.5391
50.5395
50.54
50.5405
50.541
50.5416
50.5422
50.5428
50.5435
50.5441
50.5449
50.5456
50.5464
50.5472
50.548
50.5488
50.5497
50.5506
50.5515
50.5524
50.5533
50.5542
50.5551
50.5559
50.5568
50.5576
50.5584
50.5592
50.56
50.5606
50.5613
50.5619
50.5624
50.5629
50.5633
50.5637
50.564
50.5643
50.5645
50.5647
50.5648
50.5649
50.565
50.565
50.5651
50.5651
50.5651
50.5652
50.5652
50.5653
50.5653
50.5654
50.5655
50.5656
50.5657
50.5658
50.566
50.5662
50.5664
50.5667
50.5669
50.5673
50.567
50.5708
50.4815
50.4937
50.5013
50.5021
50.5015
50.5017
50.5022
50.5027
50.503
50.5034
50.5038
50.5043
50.5051
50.507
50.5123
50.5181
50.5223
50.5248
50.5263
50.5273
50.5281
50.529
50.53
50.5312
50.5324
50.5333
50.5338
50.534
50.534
50.5339
50.5338
50.5338
50.5337
50.5336
50.5335
50.5334
50.5332
50.5331
50.533
50.5328
50.5327
50.5326
50.5325
50.5324
50.5323
50.5322
50.5322
50.5321
50.5321
50.5321
50.5321
50.5321
50.5322
50.5322
50.5323
50.5324
50.5325
50.5326
50.5327
50.5328
50.5329
50.533
50.5332
50.5333
50.5334
50.5335
50.5336
50.5337
50.5337
50.5338
50.5339
50.5339
50.5339
50.5339
50.5339
50.5339
50.5339
50.5338
50.5337
50.5337
50.5336
50.5334
50.5333
50.5331
50.533
50.5328
50.5326
50.5325
50.5323
50.5321
50.5319
50.5317
50.5315
50.5313
50.5312
50.531
50.5309
50.5308
50.5307
50.5306
50.5305
50.5305
50.5305
50.5305
50.5306
50.5306
50.5307
50.5308
50.531
50.5312
50.5313
50.5316
50.5318
50.532
50.5322
50.5325
50.5328
50.533
50.5333
50.5336
50.5339
50.5342
50.5345
50.5347
50.535
50.5353
50.5356
50.5359
50.5362
50.5365
50.5368
50.5372
50.5375
50.5379
50.5383
50.5387
50.5391
50.5395
50.54
50.5405
50.541
50.5416
50.5422
50.5428
50.5435
50.5441
50.5449
50.5456
50.5464
50.5472
50.548
50.5488
50.5497
50.5506
50.5515
50.5524
50.5533
50.5542
50.5551
50.5559
50.5568
50.5576
50.5584
50.5592
50.56
50.5606
50.5613
50.5619
50.5624
50.5629
50.5633
50.5637
50.564
50.5643
50.5645
50.5647
50.5648
50.5649
50.565
50.565
50.5651
50.5651
50.5651
50.5652
50.5652
50.5653
50.5653
50.5654
50.5655
50.5656
50.5657
50.5658
50.566
50.5662
50.5664
50.5666
50.567
50.5673
50.5677
50.5681
50.5215
50.52
50.5201
50.5194
50.5189
50.5192
50.5198
50.5203
50.5208
50.5213
50.5219
50.5223
50.5223
50.5226
50.5229
50.5231
50.5224
50.5219
50.5223
50.5228
50.5226
50.5197
50.5178
50.5182
50.52
50.5253
50.5307
50.5335
50.5347
50.535
50.5349
50.5346
50.5342
50.5339
50.5337
50.5335
50.5333
50.5331
50.533
50.5328
50.5327
50.5326
50.5325
50.5324
50.5323
50.5322
50.5322
50.5321
50.5321
50.5321
50.5321
50.5321
50.5322
50.5322
50.5323
50.5324
50.5325
50.5326
50.5327
50.5328
50.5329
50.533
50.5332
50.5333
50.5334
50.5335
50.5336
50.5337
50.5337
50.5338
50.5339
50.5339
50.5339
50.5339
50.5339
50.5339
50.5339
50.5338
50.5337
50.5337
50.5336
50.5334
50.5333
50.5331
50.533
50.5328
50.5326
50.5325
50.5323
50.5321
50.5319
50.5317
50.5315
50.5313
50.5312
50.531
50.5309
50.5308
50.5307
50.5306
50.5305
50.5305
50.5305
50.5305
50.5306
50.5306
50.5307
50.5308
50.531
50.5312
50.5313
50.5316
50.5318
50.532
50.5322
50.5325
50.5328
50.533
50.5333
50.5336
50.5339
50.5342
50.5345
50.5347
50.535
50.5353
50.5356
50.5359
50.5362
50.5365
50.5368
50.5372
50.5375
50.5379
50.5383
50.5387
50.5391
50.5395
50.54
50.5405
50.541
50.5416
50.5422
50.5428
50.5435
50.5441
50.5449
50.5456
50.5464
50.5472
50.548
50.5488
50.5497
50.5506
50.5515
50.5524
50.5533
50.5542
50.5551
50.5559
50.5568
50.5576
50.5584
50.5592
50.56
50.5606
50.5613
50.5619
50.5624
50.5629
50.5633
50.5637
50.564
50.5643
50.5645
50.5647
50.5648
50.5649
50.565
50.565
50.5651
50.5651
50.5651
50.5652
50.5652
50.5653
50.5653
50.5654
50.5655
50.5656
50.5657
50.5658
50.566
50.5662
50.5664
50.5667
50.567
50.5673
50.5681
50.5674
50.5073
50.5113
50.5121
50.5117
50.5112
50.5114
50.512
50.5125
50.513
50.5135
50.5139
50.5141
50.5144
50.5145
50.5141
50.5141
50.5149
50.5174
50.5215
50.5227
50.5186
50.4949
50.4679
50.4578
50.458
50.4659
50.4883
50.5074
50.5194
50.5264
50.5301
50.532
50.5329
50.5332
50.5333
50.5333
50.5332
50.5331
50.5329
50.5328
50.5327
50.5325
50.5324
50.5323
50.5322
50.5322
50.5321
50.5321
50.5321
50.5321
50.5321
50.5321
50.5322
50.5322
50.5323
50.5324
50.5325
50.5326
50.5327
50.5328
50.5329
50.533
50.5331
50.5332
50.5333
50.5334
50.5335
50.5336
50.5337
50.5338
50.5338
50.5339
50.5339
50.5339
50.5339
50.5339
50.5338
50.5338
50.5337
50.5336
50.5335
50.5334
50.5333
50.5331
50.533
50.5328
50.5326
50.5324
50.5322
50.532
50.5318
50.5317
50.5315
50.5313
50.5311
50.531
50.5309
50.5307
50.5306
50.5306
50.5305
50.5305
50.5305
50.5305
50.5305
50.5306
50.5307
50.5308
50.531
50.5311
50.5313
50.5315
50.5317
50.532
50.5322
50.5325
50.5327
50.533
50.5333
50.5336
50.5338
50.5341
50.5344
50.5347
50.535
50.5353
50.5356
50.5359
50.5362
50.5365
50.5368
50.5371
50.5375
50.5379
50.5382
50.5386
50.5391
50.5395
50.54
50.5405
50.541
50.5416
50.5422
50.5428
50.5434
50.5441
50.5448
50.5456
50.5463
50.5471
50.548
50.5488
50.5497
50.5506
50.5514
50.5523
50.5532
50.5541
50.555
50.5559
50.5568
50.5576
50.5584
50.5592
50.5599
50.5606
50.5612
50.5618
50.5624
50.5629
50.5633
50.5637
50.564
50.5642
50.5644
50.5646
50.5648
50.5649
50.5649
50.565
50.565
50.5651
50.5651
50.5651
50.5652
50.5652
50.5653
50.5654
50.5654
50.5655
50.5657
50.5658
50.566
50.5661
50.5664
50.5666
50.5669
50.5673
50.5681
50.5672
50.5414
50.5297
50.5254
50.5246
50.5225
50.5179
50.5117
50.5052
50.4978
50.4906
50.483
50.4754
50.4684
50.4616
50.4557
50.4501
50.4455
50.4413
50.4382
50.4367
50.5497
50.5469
50.5475
50.5488
50.5477
50.5443
50.5388
50.534
50.5273
50.5219
50.5153
50.5092
50.5033
50.4974
50.4926
50.4883
50.4844
50.4811
50.4787
50.4766
50.5691
50.5692
50.5683
50.5665
50.5641
50.561
50.5573
50.5523
50.5469
50.541
50.5352
50.529
50.5216
50.513
50.5037
50.4936
50.482
50.4701
50.4594
50.4505
50.5789
50.5822
50.5822
50.5808
50.5795
50.5782
50.5772
50.5776
50.5785
50.5761
50.569
50.5597
50.5525
50.5465
50.5412
50.5393
50.5468
50.5575
50.56
50.5481
50.5821
50.5886
50.5894
50.5878
50.5864
50.5851
50.584
50.5841
50.5849
50.5831
50.5769
50.5675
50.5599
50.5536
50.5478
50.5455
50.5522
50.5618
50.5681
50.5589
50.4563
50.4605
50.4609
50.4603
50.46
50.4602
50.4608
50.4613
50.4619
50.4624
50.4629
50.4632
50.4634
50.4638
50.4638
50.4635
50.4641
50.4656
50.4695
50.4722
50.4716
50.4586
50.4275
50.4099
50.4064
50.4096
50.4258
50.4482
50.4632
50.4723
50.4774
50.48
50.4813
50.4818
50.4819
50.4819
50.4818
50.4817
50.4815
50.4814
50.4812
50.4811
50.481
50.4809
50.4808
50.4808
50.4807
50.4807
50.4807
50.4808
50.4808
50.4809
50.481
50.4811
50.4813
50.4815
50.4817
50.4819
50.4821
50.4823
50.4825
50.4828
50.483
50.4832
50.4835
50.4837
50.4839
50.484
50.4842
50.4843
50.4844
50.4845
50.4846
50.4846
50.4846
50.4846
50.4846
50.4845
50.4845
50.4844
50.4843
50.4842
50.484
50.4839
50.4837
50.4835
50.4834
50.4832
50.483
50.4828
50.4825
50.4823
50.4821
50.4819
50.4817
50.4815
50.4813
50.4812
50.48
50.4875
50.4702
50.469
50.4686
50.4679
50.4676
50.4678
50.4684
50.4689
50.4694
50.47
50.4706
50.4711
50.4711
50.4714
50.4718
50.4723
50.4723
50.4715
50.4714
50.472
50.4724
50.471
50.4684
50.4681
50.4691
50.4721
50.4777
50.4814
50.4831
50.4837
50.4838
50.4835
50.4831
50.4827
50.4824
50.4822
50.482
50.4818
50.4816
50.4814
50.4813
50.4811
50.481
50.4809
50.4809
50.4808
50.4808
50.4808
50.4808
50.4808
50.4809
50.4809
50.481
50.4812
50.4813
50.4815
50.4817
50.4819
50.4821
50.4823
50.4826
50.4828
50.483
50.4833
50.4835
50.4837
50.4839
50.4841
50.4842
50.4844
50.4845
50.4846
50.4846
50.4847
50.4847
50.4847
50.4846
50.4846
50.4845
50.4844
50.4843
50.4842
50.484
50.4839
50.4837
50.4836
50.4834
50.4832
50.483
50.4828
50.4826
50.4824
50.4821
50.4819
50.4817
50.4815
50.4813
50.4812
50.4803
50.4833
50.4336
50.4434
50.4502
50.451
50.4507
50.4509
50.4515
50.4522
50.4525
50.4525
50.4527
50.453
50.4535
50.4547
50.4585
50.4646
50.4694
50.4725
50.4744
50.4756
50.4765
50.4774
50.4783
50.4795
50.4808
50.4819
50.4826
50.4829
50.483
50.4828
50.4827
50.4826
50.4824
50.4823
50.4822
50.482
50.4819
50.4817
50.4816
50.4814
50.4813
50.4811
50.481
50.4809
50.4809
50.4808
50.4808
50.4808
50.4808
50.4808
50.4809
50.4809
50.481
50.4812
50.4813
50.4815
50.4817
50.4819
50.4821
50.4823
50.4826
50.4828
50.483
50.4833
50.4835
50.4837
50.4839
50.4841
50.4842
50.4844
50.4845
50.4846
50.4846
50.4847
50.4847
50.4847
50.4846
50.4846
50.4845
50.4844
50.4843
50.4842
50.484
50.4839
50.4837
50.4836
50.4834
50.4832
50.483
50.4828
50.4826
50.4823
50.4821
50.4819
50.4817
50.4815
50.4814
50.4812
50.4811
50.481
50.4688
50.4599
50.4757
50.4784
50.4708
50.4679
50.4683
50.4687
50.4685
50.4689
50.4697
50.4708
50.4711
50.4705
50.4706
50.4714
50.4723
50.473
50.4733
50.4702
50.4544
50.436
50.4299
50.4318
50.4447
50.4672
50.4797
50.4845
50.4855
50.4853
50.4845
50.4837
50.4832
50.4828
50.4825
50.4822
50.482
50.4818
50.4816
50.4814
50.4813
50.4812
50.481
50.4809
50.4809
50.4808
50.4808
50.4808
50.4808
50.4808
50.4809
50.4809
50.481
50.4812
50.4813
50.4815
50.4817
50.4819
50.4821
50.4823
50.4826
50.4828
50.483
50.4833
50.4835
50.4837
50.4839
50.4841
50.4842
50.4844
50.4845
50.4846
50.4846
50.4847
50.4847
50.4847
50.4846
50.4846
50.4845
50.4844
50.4843
50.4842
50.4841
50.4839
50.4837
50.4836
50.4834
50.4832
50.483
50.4828
50.4826
50.4823
50.4821
50.4819
50.4817
50.4815
50.4814
50.4813
50.4816
50.4805
50.4739
50.4603
50.476
50.4794
50.4717
50.4687
50.4693
50.4698
50.4696
50.47
50.4709
50.4724
50.4729
50.4723
50.4722
50.4726
50.4732
50.4738
50.4731
50.4634
50.4183
50.3628
50.3446
50.3507
50.3983
50.4749
50.5124
50.5215
50.5188
50.506
50.4945
50.4884
50.4853
50.4837
50.4829
50.4824
50.4821
50.4818
50.4816
50.4814
50.4813
50.4811
50.481
50.4809
50.4808
50.4808
50.4807
50.4807
50.4807
50.4808
50.4808
50.4809
50.481
50.4811
50.4813
50.4815
50.4817
50.4819
50.4821
50.4823
50.4825
50.4828
50.483
50.4832
50.4835
50.4837
50.4839
50.484
50.4842
50.4843
50.4844
50.4845
50.4846
50.4846
50.4846
50.4846
50.4846
50.4845
50.4845
50.4844
50.4843
50.4842
50.484
50.4839
50.4837
50.4835
50.4834
50.4832
50.483
50.4828
50.4825
50.4823
50.4821
50.4819
50.4817
50.4815
50.4813
50.4812
50.4815
50.4803
50.4541
50.4422
50.4379
50.4369
50.4347
50.4299
50.4236
50.417
50.4096
50.4022
50.3945
50.3868
50.3798
50.3728
50.3669
50.3611
50.3564
50.352
50.3488
50.3471
50.4623
50.4594
50.4599
50.4609
50.4597
50.4562
50.4506
50.4457
50.4389
50.4335
50.4267
50.4205
50.4145
50.4085
50.4036
50.3992
50.3952
50.3917
50.3892
50.3869
50.4816
50.4816
50.4806
50.4787
50.4762
50.473
50.4691
50.4641
50.4586
50.4526
50.4467
50.4404
50.4329
50.4243
50.4149
50.4047
50.3931
50.3811
50.3704
50.3613
50.4913
50.4945
50.4944
50.4929
50.4915
50.4901
50.4889
50.4892
50.49
50.4875
50.4804
50.4709
50.4637
50.4576
50.4521
50.45
50.4572
50.4678
50.47
50.4581
50.4945
50.5009
50.5015
50.4999
50.4983
50.4969
50.4957
50.4957
50.4964
50.4945
50.4882
50.4788
50.471
50.4646
50.4587
50.4562
50.4626
50.4721
50.4779
50.4687
50.3663
50.37
50.3701
50.3692
50.3684
50.3681
50.3681
50.368
50.368
50.368
50.368
50.3677
50.3677
50.3675
50.3669
50.367
50.3678
50.3706
50.3738
50.3742
50.3668
50.3389
50.3167
50.3104
50.3122
50.3243
50.3476
50.3644
50.3749
50.381
50.3843
50.3862
50.3873
50.3879
50.3884
50.3888
50.3892
50.3896
50.39
50.3905
50.3909
50.3914
50.3919
50.3924
50.3929
50.3934
50.3939
50.3945
50.395
50.3955
50.396
50.3966
50.397
50.3975
50.398
50.3984
50.3988
50.3992
50.3996
50.3999
50.4002
50.4005
50.4007
50.4009
50.4011
50.4013
50.4014
50.4015
50.4016
50.4017
50.4018
50.4018
50.4018
50.4019
50.4019
50.4019
50.402
50.402
50.4021
50.4021
50.4022
50.4023
50.4025
50.4026
50.4028
50.4031
50.4033
50.4036
50.4039
50.4043
50.4047
50.4052
50.4057
50.4062
50.4067
50.4073
50.408
50.4087
50.4094
50.4101
50.4108
50.4116
50.4124
50.4132
50.414
50.4148
50.4156
50.4164
50.4171
50.4179
50.4187
50.4194
50.4201
50.4208
50.4214
50.422
50.4225
50.423
50.4235
50.4239
50.4243
50.4246
50.4249
50.4251
50.4253
50.4254
50.4255
50.4255
50.4255
50.4255
50.4254
50.4254
50.4253
50.4251
50.425
50.4248
50.4246
50.4245
50.4243
50.4241
50.424
50.4238
50.4237
50.4235
50.4234
50.4233
50.4233
50.4232
50.4232
50.4232
50.4233
50.4233
50.4234
50.4236
50.4237
50.4239
50.4241
50.4243
50.4246
50.4248
50.4251
50.4254
50.4256
50.4258
50.4261
50.4263
50.4265
50.4266
50.4268
50.4268
50.4269
50.4269
50.4269
50.4269
50.4268
50.4267
50.4265
50.4264
50.4262
50.426
50.4258
50.4256
50.4254
50.4251
50.4249
50.4246
50.4244
50.4241
50.4239
50.4236
50.4233
50.4231
50.4229
50.4227
50.4225
50.4223
50.4222
50.4222
50.4226
50.4213
50.38
50.3784
50.3778
50.3766
50.3758
50.3756
50.3756
50.3755
50.3756
50.3756
50.3757
50.3757
50.3754
50.3754
50.3755
50.3755
50.3748
50.3743
50.3746
50.3751
50.3746
50.3721
50.3714
50.3723
50.3747
50.3801
50.3844
50.3867
50.3877
50.3881
50.3883
50.3882
50.3883
50.3885
50.3887
50.389
50.3893
50.3897
50.3901
50.3905
50.391
50.3914
50.3919
50.3924
50.3929
50.3935
50.394
50.3945
50.395
50.3956
50.3961
50.3966
50.3971
50.3976
50.398
50.3985
50.3989
50.3992
50.3996
50.3999
50.4002
50.4005
50.4008
50.401
50.4011
50.4013
50.4014
50.4016
50.4016
50.4017
50.4018
50.4018
50.4019
50.4019
50.4019
50.402
50.402
50.402
50.4021
50.4022
50.4023
50.4024
50.4025
50.4027
50.4029
50.4031
50.4033
50.4036
50.404
50.4043
50.4047
50.4052
50.4057
50.4062
50.4068
50.4074
50.408
50.4087
50.4094
50.4101
50.4109
50.4116
50.4124
50.4132
50.414
50.4148
50.4156
50.4164
50.4172
50.418
50.4187
50.4194
50.4201
50.4208
50.4214
50.422
50.4226
50.4231
50.4235
50.424
50.4243
50.4246
50.4249
50.4251
50.4253
50.4254
50.4255
50.4255
50.4256
50.4255
50.4255
50.4254
50.4253
50.4252
50.425
50.4248
50.4247
50.4245
50.4243
50.4242
50.424
50.4238
50.4237
50.4236
50.4235
50.4234
50.4233
50.4233
50.4233
50.4233
50.4233
50.4234
50.4235
50.4236
50.4238
50.424
50.4242
50.4244
50.4246
50.4249
50.4251
50.4254
50.4256
50.4259
50.4261
50.4263
50.4265
50.4267
50.4268
50.4269
50.4269
50.427
50.4269
50.4269
50.4268
50.4267
50.4266
50.4264
50.4262
50.426
50.4258
50.4256
50.4254
50.4251
50.4249
50.4246
50.4244
50.4241
50.4239
50.4236
50.4234
50.4231
50.4229
50.4227
50.4225
50.4224
50.4223
50.4222
50.4226
50.4215
50.3436
50.3534
50.3596
50.3598
50.3589
50.3585
50.3585
50.3586
50.3584
50.3581
50.358
50.358
50.3584
50.3602
50.3652
50.3705
50.3742
50.3765
50.3779
50.3788
50.3798
50.3808
50.3819
50.3834
50.3846
50.3856
50.3862
50.3866
50.3868
50.387
50.3873
50.3875
50.3879
50.3882
50.3885
50.3889
50.3893
50.3897
50.3901
50.3905
50.391
50.3914
50.3919
50.3924
50.3929
50.3935
50.394
50.3945
50.395
50.3956
50.3961
50.3966
50.3971
50.3976
50.398
50.3985
50.3989
50.3992
50.3996
50.3999
50.4002
50.4005
50.4008
50.401
50.4011
50.4013
50.4014
50.4016
50.4016
50.4017
50.4018
50.4018
50.4019
50.4019
50.4019
50.402
50.402
50.402
50.4021
50.4022
50.4023
50.4024
50.4025
50.4027
50.4029
50.4031
50.4033
50.4036
50.404
50.4043
50.4047
50.4052
50.4057
50.4062
50.4068
50.4074
50.408
50.4087
50.4094
50.4101
50.4109
50.4116
50.4124
50.4132
50.414
50.4148
50.4156
50.4164
50.4172
50.418
50.4187
50.4194
50.4201
50.4208
50.4214
50.422
50.4226
50.4231
50.4235
50.424
50.4243
50.4246
50.4249
50.4251
50.4253
50.4254
50.4255
50.4255
50.4256
50.4255
50.4255
50.4254
50.4253
50.4252
50.425
50.4248
50.4247
50.4245
50.4243
50.4242
50.424
50.4238
50.4237
50.4236
50.4235
50.4234
50.4233
50.4233
50.4233
50.4233
50.4233
50.4234
50.4235
50.4236
50.4238
50.424
50.4242
50.4244
50.4246
50.4249
50.4251
50.4254
50.4256
50.4259
50.4261
50.4263
50.4265
50.4267
50.4268
50.4269
50.4269
50.427
50.4269
50.4269
50.4268
50.4267
50.4266
50.4264
50.4262
50.426
50.4258
50.4256
50.4254
50.4251
50.4249
50.4246
50.4244
50.4241
50.4239
50.4236
50.4234
50.4231
50.4229
50.4227
50.4225
50.4224
50.4223
50.4222
50.4222
50.4222
50.3779
50.3696
50.3848
50.386
50.3783
50.3753
50.3752
50.3751
50.3746
50.3746
50.3751
50.3754
50.3749
50.3745
50.3747
50.3753
50.3758
50.3761
50.3746
50.3637
50.3437
50.3346
50.3351
50.3437
50.3659
50.3808
50.3871
50.3889
50.3892
50.3889
50.3885
50.3884
50.3884
50.3886
50.3888
50.389
50.3894
50.3897
50.3901
50.3905
50.391
50.3914
50.3919
50.3924
50.3929
50.3935
50.394
50.3945
50.395
50.3956
50.3961
50.3966
50.3971
50.3976
50.398
50.3985
50.3989
50.3992
50.3996
50.3999
50.4002
50.4005
50.4008
50.401
50.4011
50.4013
50.4014
50.4016
50.4016
50.4017
50.4018
50.4018
50.4019
50.4019
50.4019
50.402
50.402
50.402
50.4021
50.4022
50.4023
50.4024
50.4025
50.4027
50.4029
50.4031
50.4033
50.4036
50.404
50.4043
50.4047
50.4052
50.4057
50.4062
50.4068
50.4074
50.408
50.4087
50.4094
50.4101
50.4109
50.4116
50.4124
50.4132
50.414
50.4148
50.4156
50.4164
50.4172
50.418
50.4187
50.4194
50.4201
50.4208
50.4214
50.422
50.4226
50.4231
50.4235
50.424
50.4243
50.4246
50.4249
50.4251
50.4253
50.4254
50.4255
50.4255
50.4256
50.4255
50.4255
50.4254
50.4253
50.4252
50.425
50.4248
50.4247
50.4245
50.4243
50.4242
50.424
50.4238
50.4237
50.4236
50.4235
50.4234
50.4233
50.4233
50.4233
50.4233
50.4233
50.4234
50.4235
50.4236
50.4238
50.424
50.4242
50.4244
50.4246
50.4249
50.4251
50.4254
50.4256
50.4259
50.4261
50.4263
50.4265
50.4267
50.4268
50.4269
50.4269
50.427
50.4269
50.4269
50.4268
50.4267
50.4266
50.4264
50.4262
50.426
50.4258
50.4256
50.4254
50.4252
50.4249
50.4247
50.4244
50.4241
50.4239
50.4236
50.4234
50.4231
50.4229
50.4227
50.4225
50.4224
50.4222
50.4222
50.4214
50.4249
50.3828
50.3699
50.3853
50.387
50.3791
50.3762
50.3763
50.3763
50.3757
50.3757
50.3764
50.3769
50.3764
50.3759
50.376
50.3763
50.3767
50.3765
50.3712
50.3397
50.2794
50.2525
50.2537
50.2855
50.3631
50.4087
50.4225
50.4221
50.4121
50.4001
50.3938
50.3907
50.3894
50.389
50.3889
50.3891
50.3894
50.3897
50.3901
50.3905
50.3909
50.3914
50.3919
50.3924
50.3929
50.3934
50.3939
50.3945
50.395
50.3955
50.396
50.3966
50.397
50.3975
50.398
50.3984
50.3988
50.3992
50.3996
50.3999
50.4002
50.4005
50.4007
50.4009
50.4011
50.4013
50.4014
50.4015
50.4016
50.4017
50.4018
50.4018
50.4018
50.4019
50.4019
50.4019
50.402
50.402
50.4021
50.4021
50.4022
50.4023
50.4025
50.4026
50.4028
50.4031
50.4033
50.4036
50.4039
50.4043
50.4047
50.4052
50.4057
50.4062
50.4067
50.4073
50.408