/*--------------------------------*- C++ -*----------------------------------*\
| =========                 |                                                 |
| \\      /  F ield         | OpenFOAM: The Open Source CFD Toolbox           |
|  \\    /   O peration     | Version:  3.0.x                                 |
|   \\  /    A nd           | Web:      www.OpenFOAM.org                      |
|    \\/     M anipulation  |                                                 |
\*---------------------------------------------------------------------------*/
FoamFile
{
    version     2.0;
    format      ascii;
    class       volScalarField;
    location    "0.54005";
    object      p;
}
// * * * * * * * * * * * * * * * * * * * * * * * * * * * * * * * * * * * * * //

dimensions      [1 -1 -2 0 0 0 0];

internalField   nonuniform List<scalar> 
13800
(
1.84137e+07
1.84143e+07
1.84153e+07
1.84164e+07
1.84175e+07
1.84187e+07
1.84201e+07
1.84215e+07
1.84231e+07
1.84248e+07
1.84265e+07
1.84284e+07
1.84304e+07
1.84325e+07
1.84347e+07
1.8437e+07
1.84394e+07
1.8442e+07
1.84446e+07
1.84473e+07
1.84502e+07
1.84531e+07
1.84562e+07
1.84593e+07
1.84626e+07
1.8466e+07
1.84695e+07
1.84731e+07
1.84768e+07
1.84806e+07
1.84845e+07
1.84885e+07
1.84926e+07
1.84968e+07
1.85011e+07
1.85055e+07
1.85101e+07
1.85147e+07
1.85194e+07
1.85243e+07
1.85292e+07
1.85342e+07
1.85394e+07
1.85446e+07
1.85499e+07
1.85554e+07
1.85609e+07
1.85665e+07
1.85722e+07
1.8578e+07
1.8584e+07
1.859e+07
1.85961e+07
1.86023e+07
1.86086e+07
1.86149e+07
1.86214e+07
1.8628e+07
1.86346e+07
1.86413e+07
1.86481e+07
1.86551e+07
1.8662e+07
1.86691e+07
1.86763e+07
1.86835e+07
1.86908e+07
1.86982e+07
1.87057e+07
1.87132e+07
1.87208e+07
1.87285e+07
1.87363e+07
1.87441e+07
1.8752e+07
1.876e+07
1.8768e+07
1.87761e+07
1.87843e+07
1.87925e+07
1.88008e+07
1.88092e+07
1.88176e+07
1.8826e+07
1.88345e+07
1.88431e+07
1.88517e+07
1.88604e+07
1.88691e+07
1.88778e+07
1.88866e+07
1.88955e+07
1.89043e+07
1.89132e+07
1.89222e+07
1.89312e+07
1.89402e+07
1.89492e+07
1.89583e+07
1.89674e+07
1.89766e+07
1.89857e+07
1.89949e+07
1.90041e+07
1.90133e+07
1.90225e+07
1.90317e+07
1.9041e+07
1.90503e+07
1.90595e+07
1.90688e+07
1.90781e+07
1.90874e+07
1.90966e+07
1.91059e+07
1.91152e+07
1.91245e+07
1.91338e+07
1.9143e+07
1.91523e+07
1.91615e+07
1.91708e+07
1.918e+07
1.91892e+07
1.91984e+07
1.92075e+07
1.92167e+07
1.92258e+07
1.92349e+07
1.9244e+07
1.9253e+07
1.9262e+07
1.9271e+07
1.928e+07
1.92889e+07
1.92978e+07
1.93067e+07
1.93155e+07
1.93243e+07
1.93331e+07
1.93418e+07
1.93505e+07
1.93591e+07
1.93677e+07
1.93763e+07
1.93848e+07
1.93932e+07
1.94016e+07
1.941e+07
1.94183e+07
1.94266e+07
1.94348e+07
1.9443e+07
1.94511e+07
1.94592e+07
1.94672e+07
1.94752e+07
1.94831e+07
1.9491e+07
1.94988e+07
1.95065e+07
1.95142e+07
1.95219e+07
1.95294e+07
1.9537e+07
1.95444e+07
1.95518e+07
1.95592e+07
1.95665e+07
1.95737e+07
1.95809e+07
1.9588e+07
1.95951e+07
1.9602e+07
1.9609e+07
1.96159e+07
1.96227e+07
1.96294e+07
1.96361e+07
1.96427e+07
1.96493e+07
1.96558e+07
1.96622e+07
1.96686e+07
1.96749e+07
1.96812e+07
1.96873e+07
1.96935e+07
1.96995e+07
1.97055e+07
1.97115e+07
1.97173e+07
1.97232e+07
1.97289e+07
1.97346e+07
1.97402e+07
1.97458e+07
1.97513e+07
1.97567e+07
1.9762e+07
1.84137e+07
1.84143e+07
1.84153e+07
1.84164e+07
1.84175e+07
1.84187e+07
1.84201e+07
1.84215e+07
1.84231e+07
1.84248e+07
1.84265e+07
1.84284e+07
1.84304e+07
1.84325e+07
1.84347e+07
1.8437e+07
1.84394e+07
1.8442e+07
1.84446e+07
1.84473e+07
1.84502e+07
1.84531e+07
1.84562e+07
1.84593e+07
1.84626e+07
1.8466e+07
1.84695e+07
1.84731e+07
1.84768e+07
1.84806e+07
1.84845e+07
1.84885e+07
1.84926e+07
1.84968e+07
1.85011e+07
1.85055e+07
1.85101e+07
1.85147e+07
1.85194e+07
1.85243e+07
1.85292e+07
1.85342e+07
1.85394e+07
1.85446e+07
1.85499e+07
1.85554e+07
1.85609e+07
1.85665e+07
1.85722e+07
1.8578e+07
1.8584e+07
1.859e+07
1.85961e+07
1.86023e+07
1.86086e+07
1.86149e+07
1.86214e+07
1.8628e+07
1.86346e+07
1.86413e+07
1.86481e+07
1.86551e+07
1.8662e+07
1.86691e+07
1.86763e+07
1.86835e+07
1.86908e+07
1.86982e+07
1.87057e+07
1.87132e+07
1.87208e+07
1.87285e+07
1.87363e+07
1.87441e+07
1.8752e+07
1.876e+07
1.8768e+07
1.87761e+07
1.87843e+07
1.87925e+07
1.88008e+07
1.88092e+07
1.88176e+07
1.8826e+07
1.88345e+07
1.88431e+07
1.88517e+07
1.88604e+07
1.88691e+07
1.88778e+07
1.88866e+07
1.88955e+07
1.89043e+07
1.89132e+07
1.89222e+07
1.89312e+07
1.89402e+07
1.89492e+07
1.89583e+07
1.89674e+07
1.89766e+07
1.89857e+07
1.89949e+07
1.90041e+07
1.90133e+07
1.90225e+07
1.90317e+07
1.9041e+07
1.90503e+07
1.90595e+07
1.90688e+07
1.90781e+07
1.90874e+07
1.90966e+07
1.91059e+07
1.91152e+07
1.91245e+07
1.91338e+07
1.9143e+07
1.91523e+07
1.91615e+07
1.91708e+07
1.918e+07
1.91892e+07
1.91984e+07
1.92075e+07
1.92167e+07
1.92258e+07
1.92349e+07
1.9244e+07
1.9253e+07
1.9262e+07
1.9271e+07
1.928e+07
1.92889e+07
1.92978e+07
1.93067e+07
1.93155e+07
1.93243e+07
1.93331e+07
1.93418e+07
1.93505e+07
1.93591e+07
1.93677e+07
1.93763e+07
1.93848e+07
1.93932e+07
1.94016e+07
1.941e+07
1.94183e+07
1.94266e+07
1.94348e+07
1.9443e+07
1.94511e+07
1.94592e+07
1.94672e+07
1.94752e+07
1.94831e+07
1.9491e+07
1.94988e+07
1.95065e+07
1.95142e+07
1.95219e+07
1.95294e+07
1.9537e+07
1.95444e+07
1.95518e+07
1.95592e+07
1.95665e+07
1.95737e+07
1.95809e+07
1.9588e+07
1.95951e+07
1.9602e+07
1.9609e+07
1.96159e+07
1.96227e+07
1.96294e+07
1.96361e+07
1.96427e+07
1.96493e+07
1.96558e+07
1.96622e+07
1.96686e+07
1.96749e+07
1.96812e+07
1.96873e+07
1.96935e+07
1.96995e+07
1.97055e+07
1.97115e+07
1.97173e+07
1.97232e+07
1.97289e+07
1.97346e+07
1.97402e+07
1.97458e+07
1.97513e+07
1.97567e+07
1.9762e+07
1.84137e+07
1.84143e+07
1.84153e+07
1.84164e+07
1.84175e+07
1.84187e+07
1.84201e+07
1.84215e+07
1.84231e+07
1.84248e+07
1.84265e+07
1.84284e+07
1.84304e+07
1.84325e+07
1.84347e+07
1.8437e+07
1.84394e+07
1.8442e+07
1.84446e+07
1.84473e+07
1.84502e+07
1.84531e+07
1.84562e+07
1.84593e+07
1.84626e+07
1.8466e+07
1.84695e+07
1.84731e+07
1.84768e+07
1.84806e+07
1.84845e+07
1.84885e+07
1.84926e+07
1.84968e+07
1.85011e+07
1.85055e+07
1.85101e+07
1.85147e+07
1.85194e+07
1.85243e+07
1.85292e+07
1.85342e+07
1.85394e+07
1.85446e+07
1.85499e+07
1.85554e+07
1.85609e+07
1.85665e+07
1.85722e+07
1.8578e+07
1.8584e+07
1.859e+07
1.85961e+07
1.86023e+07
1.86086e+07
1.86149e+07
1.86214e+07
1.8628e+07
1.86346e+07
1.86413e+07
1.86481e+07
1.86551e+07
1.8662e+07
1.86691e+07
1.86763e+07
1.86835e+07
1.86908e+07
1.86982e+07
1.87057e+07
1.87132e+07
1.87208e+07
1.87285e+07
1.87363e+07
1.87441e+07
1.8752e+07
1.876e+07
1.8768e+07
1.87761e+07
1.87843e+07
1.87925e+07
1.88008e+07
1.88092e+07
1.88176e+07
1.8826e+07
1.88345e+07
1.88431e+07
1.88517e+07
1.88604e+07
1.88691e+07
1.88778e+07
1.88866e+07
1.88955e+07
1.89043e+07
1.89132e+07
1.89222e+07
1.89312e+07
1.89402e+07
1.89492e+07
1.89583e+07
1.89674e+07
1.89766e+07
1.89857e+07
1.89949e+07
1.90041e+07
1.90133e+07
1.90225e+07
1.90317e+07
1.9041e+07
1.90503e+07
1.90595e+07
1.90688e+07
1.90781e+07
1.90874e+07
1.90966e+07
1.91059e+07
1.91152e+07
1.91245e+07
1.91338e+07
1.9143e+07
1.91523e+07
1.91615e+07
1.91708e+07
1.918e+07
1.91892e+07
1.91984e+07
1.92075e+07
1.92167e+07
1.92258e+07
1.92349e+07
1.9244e+07
1.9253e+07
1.9262e+07
1.9271e+07
1.928e+07
1.92889e+07
1.92978e+07
1.93067e+07
1.93155e+07
1.93243e+07
1.93331e+07
1.93418e+07
1.93505e+07
1.93591e+07
1.93677e+07
1.93763e+07
1.93848e+07
1.93932e+07
1.94016e+07
1.941e+07
1.94183e+07
1.94266e+07
1.94348e+07
1.9443e+07
1.94511e+07
1.94592e+07
1.94672e+07
1.94752e+07
1.94831e+07
1.9491e+07
1.94988e+07
1.95065e+07
1.95142e+07
1.95219e+07
1.95294e+07
1.9537e+07
1.95444e+07
1.95518e+07
1.95592e+07
1.95665e+07
1.95737e+07
1.95809e+07
1.9588e+07
1.95951e+07
1.9602e+07
1.9609e+07
1.96159e+07
1.96227e+07
1.96294e+07
1.96361e+07
1.96427e+07
1.96493e+07
1.96558e+07
1.96622e+07
1.96686e+07
1.96749e+07
1.96812e+07
1.96873e+07
1.96935e+07
1.96995e+07
1.97055e+07
1.97115e+07
1.97173e+07
1.97232e+07
1.97289e+07
1.97346e+07
1.97402e+07
1.97458e+07
1.97513e+07
1.97567e+07
1.9762e+07
1.84137e+07
1.84143e+07
1.84153e+07
1.84164e+07
1.84175e+07
1.84187e+07
1.84201e+07
1.84215e+07
1.84231e+07
1.84248e+07
1.84265e+07
1.84284e+07
1.84304e+07
1.84325e+07
1.84347e+07
1.8437e+07
1.84394e+07
1.8442e+07
1.84446e+07
1.84473e+07
1.84502e+07
1.84531e+07
1.84562e+07
1.84593e+07
1.84626e+07
1.8466e+07
1.84695e+07
1.84731e+07
1.84768e+07
1.84806e+07
1.84845e+07
1.84885e+07
1.84926e+07
1.84968e+07
1.85011e+07
1.85055e+07
1.85101e+07
1.85147e+07
1.85194e+07
1.85243e+07
1.85292e+07
1.85342e+07
1.85394e+07
1.85446e+07
1.85499e+07
1.85554e+07
1.85609e+07
1.85665e+07
1.85722e+07
1.8578e+07
1.8584e+07
1.859e+07
1.85961e+07
1.86023e+07
1.86086e+07
1.86149e+07
1.86214e+07
1.8628e+07
1.86346e+07
1.86413e+07
1.86481e+07
1.86551e+07
1.8662e+07
1.86691e+07
1.86763e+07
1.86835e+07
1.86908e+07
1.86982e+07
1.87057e+07
1.87132e+07
1.87208e+07
1.87285e+07
1.87363e+07
1.87441e+07
1.8752e+07
1.876e+07
1.8768e+07
1.87761e+07
1.87843e+07
1.87925e+07
1.88008e+07
1.88092e+07
1.88176e+07
1.8826e+07
1.88345e+07
1.88431e+07
1.88517e+07
1.88604e+07
1.88691e+07
1.88778e+07
1.88866e+07
1.88955e+07
1.89043e+07
1.89132e+07
1.89222e+07
1.89312e+07
1.89402e+07
1.89492e+07
1.89583e+07
1.89674e+07
1.89766e+07
1.89857e+07
1.89949e+07
1.90041e+07
1.90133e+07
1.90225e+07
1.90317e+07
1.9041e+07
1.90503e+07
1.90595e+07
1.90688e+07
1.90781e+07
1.90874e+07
1.90966e+07
1.91059e+07
1.91152e+07
1.91245e+07
1.91338e+07
1.9143e+07
1.91523e+07
1.91615e+07
1.91708e+07
1.918e+07
1.91892e+07
1.91984e+07
1.92075e+07
1.92167e+07
1.92258e+07
1.92349e+07
1.9244e+07
1.9253e+07
1.9262e+07
1.9271e+07
1.928e+07
1.92889e+07
1.92978e+07
1.93067e+07
1.93155e+07
1.93243e+07
1.93331e+07
1.93418e+07
1.93505e+07
1.93591e+07
1.93677e+07
1.93763e+07
1.93848e+07
1.93932e+07
1.94016e+07
1.941e+07
1.94183e+07
1.94266e+07
1.94348e+07
1.9443e+07
1.94511e+07
1.94592e+07
1.94672e+07
1.94752e+07
1.94831e+07
1.9491e+07
1.94988e+07
1.95065e+07
1.95142e+07
1.95219e+07
1.95294e+07
1.9537e+07
1.95444e+07
1.95518e+07
1.95592e+07
1.95665e+07
1.95737e+07
1.95809e+07
1.9588e+07
1.95951e+07
1.9602e+07
1.9609e+07
1.96159e+07
1.96227e+07
1.96294e+07
1.96361e+07
1.96427e+07
1.96493e+07
1.96558e+07
1.96622e+07
1.96686e+07
1.96749e+07
1.96812e+07
1.96873e+07
1.96935e+07
1.96995e+07
1.97055e+07
1.97115e+07
1.97173e+07
1.97232e+07
1.97289e+07
1.97346e+07
1.97402e+07
1.97458e+07
1.97513e+07
1.97567e+07
1.9762e+07
1.84137e+07
1.84143e+07
1.84153e+07
1.84164e+07
1.84175e+07
1.84187e+07
1.84201e+07
1.84215e+07
1.84231e+07
1.84248e+07
1.84265e+07
1.84284e+07
1.84304e+07
1.84325e+07
1.84347e+07
1.8437e+07
1.84394e+07
1.8442e+07
1.84446e+07
1.84473e+07
1.84502e+07
1.84531e+07
1.84562e+07
1.84593e+07
1.84626e+07
1.8466e+07
1.84695e+07
1.84731e+07
1.84768e+07
1.84806e+07
1.84845e+07
1.84885e+07
1.84926e+07
1.84968e+07
1.85011e+07
1.85055e+07
1.85101e+07
1.85147e+07
1.85194e+07
1.85243e+07
1.85292e+07
1.85342e+07
1.85394e+07
1.85446e+07
1.85499e+07
1.85554e+07
1.85609e+07
1.85665e+07
1.85722e+07
1.8578e+07
1.8584e+07
1.859e+07
1.85961e+07
1.86023e+07
1.86086e+07
1.86149e+07
1.86214e+07
1.8628e+07
1.86346e+07
1.86413e+07
1.86481e+07
1.86551e+07
1.8662e+07
1.86691e+07
1.86763e+07
1.86835e+07
1.86908e+07
1.86982e+07
1.87057e+07
1.87132e+07
1.87208e+07
1.87285e+07
1.87363e+07
1.87441e+07
1.8752e+07
1.876e+07
1.8768e+07
1.87761e+07
1.87843e+07
1.87925e+07
1.88008e+07
1.88092e+07
1.88176e+07
1.8826e+07
1.88345e+07
1.88431e+07
1.88517e+07
1.88604e+07
1.88691e+07
1.88778e+07
1.88866e+07
1.88955e+07
1.89043e+07
1.89132e+07
1.89222e+07
1.89312e+07
1.89402e+07
1.89492e+07
1.89583e+07
1.89674e+07
1.89766e+07
1.89857e+07
1.89949e+07
1.90041e+07
1.90133e+07
1.90225e+07
1.90317e+07
1.9041e+07
1.90503e+07
1.90595e+07
1.90688e+07
1.90781e+07
1.90874e+07
1.90966e+07
1.91059e+07
1.91152e+07
1.91245e+07
1.91338e+07
1.9143e+07
1.91523e+07
1.91615e+07
1.91708e+07
1.918e+07
1.91892e+07
1.91984e+07
1.92075e+07
1.92167e+07
1.92258e+07
1.92349e+07
1.9244e+07
1.9253e+07
1.9262e+07
1.9271e+07
1.928e+07
1.92889e+07
1.92978e+07
1.93067e+07
1.93155e+07
1.93243e+07
1.93331e+07
1.93418e+07
1.93505e+07
1.93591e+07
1.93677e+07
1.93763e+07
1.93848e+07
1.93932e+07
1.94016e+07
1.941e+07
1.94183e+07
1.94266e+07
1.94348e+07
1.9443e+07
1.94511e+07
1.94592e+07
1.94672e+07
1.94752e+07
1.94831e+07
1.9491e+07
1.94988e+07
1.95065e+07
1.95142e+07
1.95219e+07
1.95294e+07
1.9537e+07
1.95444e+07
1.95518e+07
1.95592e+07
1.95665e+07
1.95737e+07
1.95809e+07
1.9588e+07
1.95951e+07
1.9602e+07
1.9609e+07
1.96159e+07
1.96227e+07
1.96294e+07
1.96361e+07
1.96427e+07
1.96493e+07
1.96558e+07
1.96622e+07
1.96686e+07
1.96749e+07
1.96812e+07
1.96873e+07
1.96935e+07
1.96995e+07
1.97055e+07
1.97115e+07
1.97173e+07
1.97232e+07
1.97289e+07
1.97346e+07
1.97402e+07
1.97458e+07
1.97513e+07
1.97567e+07
1.97621e+07
1.84137e+07
1.84143e+07
1.84153e+07
1.84164e+07
1.84175e+07
1.84187e+07
1.84201e+07
1.84215e+07
1.84231e+07
1.84248e+07
1.84265e+07
1.84284e+07
1.84304e+07
1.84325e+07
1.84347e+07
1.8437e+07
1.84394e+07
1.8442e+07
1.84446e+07
1.84473e+07
1.84502e+07
1.84531e+07
1.84562e+07
1.84593e+07
1.84626e+07
1.8466e+07
1.84695e+07
1.84731e+07
1.84768e+07
1.84806e+07
1.84845e+07
1.84885e+07
1.84926e+07
1.84968e+07
1.85011e+07
1.85055e+07
1.85101e+07
1.85147e+07
1.85194e+07
1.85243e+07
1.85292e+07
1.85342e+07
1.85394e+07
1.85446e+07
1.85499e+07
1.85554e+07
1.85609e+07
1.85665e+07
1.85722e+07
1.8578e+07
1.8584e+07
1.859e+07
1.85961e+07
1.86023e+07
1.86086e+07
1.86149e+07
1.86214e+07
1.8628e+07
1.86346e+07
1.86413e+07
1.86481e+07
1.86551e+07
1.8662e+07
1.86691e+07
1.86763e+07
1.86835e+07
1.86908e+07
1.86982e+07
1.87057e+07
1.87132e+07
1.87208e+07
1.87285e+07
1.87363e+07
1.87441e+07
1.8752e+07
1.876e+07
1.8768e+07
1.87761e+07
1.87843e+07
1.87925e+07
1.88008e+07
1.88092e+07
1.88176e+07
1.8826e+07
1.88345e+07
1.88431e+07
1.88517e+07
1.88604e+07
1.88691e+07
1.88778e+07
1.88866e+07
1.88955e+07
1.89043e+07
1.89132e+07
1.89222e+07
1.89312e+07
1.89402e+07
1.89492e+07
1.89583e+07
1.89674e+07
1.89766e+07
1.89857e+07
1.89949e+07
1.90041e+07
1.90133e+07
1.90225e+07
1.90317e+07
1.9041e+07
1.90503e+07
1.90595e+07
1.90688e+07
1.90781e+07
1.90874e+07
1.90966e+07
1.91059e+07
1.91152e+07
1.91245e+07
1.91338e+07
1.9143e+07
1.91523e+07
1.91615e+07
1.91708e+07
1.918e+07
1.91892e+07
1.91984e+07
1.92075e+07
1.92167e+07
1.92258e+07
1.92349e+07
1.9244e+07
1.9253e+07
1.9262e+07
1.9271e+07
1.928e+07
1.92889e+07
1.92978e+07
1.93067e+07
1.93155e+07
1.93243e+07
1.93331e+07
1.93418e+07
1.93505e+07
1.93591e+07
1.93677e+07
1.93763e+07
1.93848e+07
1.93932e+07
1.94016e+07
1.941e+07
1.94183e+07
1.94266e+07
1.94348e+07
1.9443e+07
1.94511e+07
1.94592e+07
1.94672e+07
1.94752e+07
1.94831e+07
1.9491e+07
1.94988e+07
1.95065e+07
1.95142e+07
1.95219e+07
1.95294e+07
1.9537e+07
1.95444e+07
1.95518e+07
1.95592e+07
1.95665e+07
1.95737e+07
1.95809e+07
1.9588e+07
1.95951e+07
1.9602e+07
1.9609e+07
1.96159e+07
1.96227e+07
1.96294e+07
1.96361e+07
1.96427e+07
1.96493e+07
1.96558e+07
1.96622e+07
1.96686e+07
1.96749e+07
1.96812e+07
1.96873e+07
1.96935e+07
1.96995e+07
1.97055e+07
1.97115e+07
1.97173e+07
1.97232e+07
1.97289e+07
1.97346e+07
1.97402e+07
1.97458e+07
1.97513e+07
1.97567e+07
1.97621e+07
1.84137e+07
1.84143e+07
1.84153e+07
1.84164e+07
1.84175e+07
1.84187e+07
1.84201e+07
1.84215e+07
1.84231e+07
1.84248e+07
1.84265e+07
1.84284e+07
1.84304e+07
1.84325e+07
1.84347e+07
1.8437e+07
1.84394e+07
1.8442e+07
1.84446e+07
1.84473e+07
1.84502e+07
1.84531e+07
1.84562e+07
1.84593e+07
1.84626e+07
1.8466e+07
1.84695e+07
1.84731e+07
1.84768e+07
1.84806e+07
1.84845e+07
1.84885e+07
1.84926e+07
1.84968e+07
1.85011e+07
1.85055e+07
1.85101e+07
1.85147e+07
1.85194e+07
1.85243e+07
1.85292e+07
1.85342e+07
1.85394e+07
1.85446e+07
1.85499e+07
1.85554e+07
1.85609e+07
1.85665e+07
1.85722e+07
1.8578e+07
1.8584e+07
1.859e+07
1.85961e+07
1.86023e+07
1.86086e+07
1.86149e+07
1.86214e+07
1.8628e+07
1.86346e+07
1.86413e+07
1.86481e+07
1.86551e+07
1.8662e+07
1.86691e+07
1.86763e+07
1.86835e+07
1.86908e+07
1.86982e+07
1.87057e+07
1.87132e+07
1.87208e+07
1.87285e+07
1.87363e+07
1.87441e+07
1.8752e+07
1.876e+07
1.8768e+07
1.87761e+07
1.87843e+07
1.87925e+07
1.88008e+07
1.88092e+07
1.88176e+07
1.8826e+07
1.88345e+07
1.88431e+07
1.88517e+07
1.88604e+07
1.88691e+07
1.88778e+07
1.88866e+07
1.88955e+07
1.89043e+07
1.89132e+07
1.89222e+07
1.89312e+07
1.89402e+07
1.89492e+07
1.89583e+07
1.89674e+07
1.89766e+07
1.89857e+07
1.89949e+07
1.90041e+07
1.90133e+07
1.90225e+07
1.90317e+07
1.9041e+07
1.90503e+07
1.90595e+07
1.90688e+07
1.90781e+07
1.90874e+07
1.90966e+07
1.91059e+07
1.91152e+07
1.91245e+07
1.91338e+07
1.9143e+07
1.91523e+07
1.91615e+07
1.91708e+07
1.918e+07
1.91892e+07
1.91984e+07
1.92075e+07
1.92167e+07
1.92258e+07
1.92349e+07
1.9244e+07
1.9253e+07
1.9262e+07
1.9271e+07
1.928e+07
1.92889e+07
1.92978e+07
1.93067e+07
1.93155e+07
1.93243e+07
1.93331e+07
1.93418e+07
1.93505e+07
1.93591e+07
1.93677e+07
1.93763e+07
1.93848e+07
1.93932e+07
1.94016e+07
1.941e+07
1.94183e+07
1.94266e+07
1.94348e+07
1.9443e+07
1.94511e+07
1.94592e+07
1.94672e+07
1.94752e+07
1.94831e+07
1.9491e+07
1.94988e+07
1.95065e+07
1.95142e+07
1.95219e+07
1.95294e+07
1.9537e+07
1.95444e+07
1.95518e+07
1.95592e+07
1.95665e+07
1.95737e+07
1.95809e+07
1.9588e+07
1.95951e+07
1.9602e+07
1.9609e+07
1.96159e+07
1.96227e+07
1.96294e+07
1.96361e+07
1.96427e+07
1.96493e+07
1.96558e+07
1.96622e+07
1.96686e+07
1.96749e+07
1.96812e+07
1.96873e+07
1.96935e+07
1.96995e+07
1.97055e+07
1.97115e+07
1.97173e+07
1.97232e+07
1.97289e+07
1.97346e+07
1.97402e+07
1.97458e+07
1.97513e+07
1.97567e+07
1.97622e+07
1.84137e+07
1.84143e+07
1.84153e+07
1.84164e+07
1.84175e+07
1.84187e+07
1.84201e+07
1.84215e+07
1.84231e+07
1.84248e+07
1.84265e+07
1.84284e+07
1.84304e+07
1.84325e+07
1.84347e+07
1.8437e+07
1.84394e+07
1.8442e+07
1.84446e+07
1.84473e+07
1.84502e+07
1.84531e+07
1.84562e+07
1.84593e+07
1.84626e+07
1.8466e+07
1.84695e+07
1.84731e+07
1.84768e+07
1.84806e+07
1.84845e+07
1.84885e+07
1.84926e+07
1.84968e+07
1.85011e+07
1.85055e+07
1.85101e+07
1.85147e+07
1.85194e+07
1.85243e+07
1.85292e+07
1.85342e+07
1.85394e+07
1.85446e+07
1.85499e+07
1.85554e+07
1.85609e+07
1.85665e+07
1.85722e+07
1.8578e+07
1.8584e+07
1.859e+07
1.85961e+07
1.86023e+07
1.86086e+07
1.86149e+07
1.86214e+07
1.8628e+07
1.86346e+07
1.86413e+07
1.86481e+07
1.86551e+07
1.8662e+07
1.86691e+07
1.86763e+07
1.86835e+07
1.86908e+07
1.86982e+07
1.87057e+07
1.87132e+07
1.87208e+07
1.87285e+07
1.87363e+07
1.87441e+07
1.8752e+07
1.876e+07
1.8768e+07
1.87761e+07
1.87843e+07
1.87925e+07
1.88008e+07
1.88092e+07
1.88176e+07
1.8826e+07
1.88345e+07
1.88431e+07
1.88517e+07
1.88604e+07
1.88691e+07
1.88778e+07
1.88866e+07
1.88955e+07
1.89043e+07
1.89132e+07
1.89222e+07
1.89312e+07
1.89402e+07
1.89492e+07
1.89583e+07
1.89674e+07
1.89766e+07
1.89857e+07
1.89949e+07
1.90041e+07
1.90133e+07
1.90225e+07
1.90317e+07
1.9041e+07
1.90503e+07
1.90595e+07
1.90688e+07
1.90781e+07
1.90874e+07
1.90966e+07
1.91059e+07
1.91152e+07
1.91245e+07
1.91338e+07
1.9143e+07
1.91523e+07
1.91615e+07
1.91708e+07
1.918e+07
1.91892e+07
1.91984e+07
1.92075e+07
1.92167e+07
1.92258e+07
1.92349e+07
1.9244e+07
1.9253e+07
1.9262e+07
1.9271e+07
1.928e+07
1.92889e+07
1.92978e+07
1.93067e+07
1.93155e+07
1.93243e+07
1.93331e+07
1.93418e+07
1.93505e+07
1.93591e+07
1.93677e+07
1.93763e+07
1.93848e+07
1.93932e+07
1.94016e+07
1.941e+07
1.94183e+07
1.94266e+07
1.94348e+07
1.9443e+07
1.94511e+07
1.94592e+07
1.94672e+07
1.94752e+07
1.94831e+07
1.9491e+07
1.94988e+07
1.95065e+07
1.95142e+07
1.95219e+07
1.95294e+07
1.9537e+07
1.95444e+07
1.95518e+07
1.95592e+07
1.95665e+07
1.95737e+07
1.95809e+07
1.9588e+07
1.95951e+07
1.9602e+07
1.9609e+07
1.96159e+07
1.96227e+07
1.96294e+07
1.96361e+07
1.96427e+07
1.96493e+07
1.96558e+07
1.96622e+07
1.96686e+07
1.96749e+07
1.96812e+07
1.96873e+07
1.96935e+07
1.96995e+07
1.97055e+07
1.97115e+07
1.97173e+07
1.97232e+07
1.97289e+07
1.97346e+07
1.97402e+07
1.97458e+07
1.97513e+07
1.97567e+07
1.97622e+07
1.84137e+07
1.84143e+07
1.84153e+07
1.84164e+07
1.84175e+07
1.84187e+07
1.84201e+07
1.84215e+07
1.84231e+07
1.84248e+07
1.84265e+07
1.84284e+07
1.84304e+07
1.84325e+07
1.84347e+07
1.8437e+07
1.84394e+07
1.8442e+07
1.84446e+07
1.84473e+07
1.84502e+07
1.84531e+07
1.84562e+07
1.84593e+07
1.84626e+07
1.8466e+07
1.84695e+07
1.84731e+07
1.84768e+07
1.84806e+07
1.84845e+07
1.84885e+07
1.84926e+07
1.84968e+07
1.85011e+07
1.85055e+07
1.85101e+07
1.85147e+07
1.85194e+07
1.85243e+07
1.85292e+07
1.85342e+07
1.85394e+07
1.85446e+07
1.85499e+07
1.85554e+07
1.85609e+07
1.85665e+07
1.85722e+07
1.8578e+07
1.8584e+07
1.859e+07
1.85961e+07
1.86023e+07
1.86086e+07
1.86149e+07
1.86214e+07
1.8628e+07
1.86346e+07
1.86413e+07
1.86481e+07
1.86551e+07
1.8662e+07
1.86691e+07
1.86763e+07
1.86835e+07
1.86908e+07
1.86982e+07
1.87057e+07
1.87132e+07
1.87208e+07
1.87285e+07
1.87363e+07
1.87441e+07
1.8752e+07
1.876e+07
1.8768e+07
1.87761e+07
1.87843e+07
1.87925e+07
1.88008e+07
1.88092e+07
1.88176e+07
1.8826e+07
1.88345e+07
1.88431e+07
1.88517e+07
1.88604e+07
1.88691e+07
1.88778e+07
1.88866e+07
1.88955e+07
1.89043e+07
1.89132e+07
1.89222e+07
1.89312e+07
1.89402e+07
1.89492e+07
1.89583e+07
1.89674e+07
1.89766e+07
1.89857e+07
1.89949e+07
1.90041e+07
1.90133e+07
1.90225e+07
1.90317e+07
1.9041e+07
1.90503e+07
1.90595e+07
1.90688e+07
1.90781e+07
1.90874e+07
1.90966e+07
1.91059e+07
1.91152e+07
1.91245e+07
1.91338e+07
1.9143e+07
1.91523e+07
1.91615e+07
1.91708e+07
1.918e+07
1.91892e+07
1.91984e+07
1.92075e+07
1.92167e+07
1.92258e+07
1.92349e+07
1.9244e+07
1.9253e+07
1.9262e+07
1.9271e+07
1.928e+07
1.92889e+07
1.92978e+07
1.93067e+07
1.93155e+07
1.93243e+07
1.93331e+07
1.93418e+07
1.93505e+07
1.93591e+07
1.93677e+07
1.93763e+07
1.93848e+07
1.93932e+07
1.94016e+07
1.941e+07
1.94183e+07
1.94266e+07
1.94348e+07
1.9443e+07
1.94511e+07
1.94592e+07
1.94672e+07
1.94752e+07
1.94831e+07
1.9491e+07
1.94988e+07
1.95065e+07
1.95142e+07
1.95219e+07
1.95294e+07
1.9537e+07
1.95444e+07
1.95518e+07
1.95592e+07
1.95665e+07
1.95737e+07
1.95809e+07
1.9588e+07
1.95951e+07
1.9602e+07
1.9609e+07
1.96159e+07
1.96227e+07
1.96294e+07
1.96361e+07
1.96427e+07
1.96493e+07
1.96558e+07
1.96622e+07
1.96686e+07
1.96749e+07
1.96812e+07
1.96873e+07
1.96935e+07
1.96995e+07
1.97055e+07
1.97115e+07
1.97173e+07
1.97232e+07
1.97289e+07
1.97346e+07
1.97402e+07
1.97458e+07
1.97513e+07
1.97567e+07
1.97622e+07
1.84137e+07
1.84143e+07
1.84153e+07
1.84164e+07
1.84175e+07
1.84187e+07
1.84201e+07
1.84215e+07
1.84231e+07
1.84248e+07
1.84265e+07
1.84284e+07
1.84304e+07
1.84325e+07
1.84347e+07
1.8437e+07
1.84394e+07
1.8442e+07
1.84446e+07
1.84473e+07
1.84502e+07
1.84531e+07
1.84562e+07
1.84593e+07
1.84626e+07
1.8466e+07
1.84695e+07
1.84731e+07
1.84768e+07
1.84806e+07
1.84845e+07
1.84885e+07
1.84926e+07
1.84968e+07
1.85011e+07
1.85055e+07
1.85101e+07
1.85147e+07
1.85194e+07
1.85243e+07
1.85292e+07
1.85342e+07
1.85394e+07
1.85446e+07
1.85499e+07
1.85554e+07
1.85609e+07
1.85665e+07
1.85722e+07
1.8578e+07
1.8584e+07
1.859e+07
1.85961e+07
1.86023e+07
1.86086e+07
1.86149e+07
1.86214e+07
1.8628e+07
1.86346e+07
1.86413e+07
1.86481e+07
1.86551e+07
1.8662e+07
1.86691e+07
1.86763e+07
1.86835e+07
1.86908e+07
1.86982e+07
1.87057e+07
1.87132e+07
1.87208e+07
1.87285e+07
1.87363e+07
1.87441e+07
1.8752e+07
1.876e+07
1.8768e+07
1.87761e+07
1.87843e+07
1.87925e+07
1.88008e+07
1.88092e+07
1.88176e+07
1.8826e+07
1.88345e+07
1.88431e+07
1.88517e+07
1.88604e+07
1.88691e+07
1.88778e+07
1.88866e+07
1.88955e+07
1.89043e+07
1.89132e+07
1.89222e+07
1.89312e+07
1.89402e+07
1.89492e+07
1.89583e+07
1.89674e+07
1.89766e+07
1.89857e+07
1.89949e+07
1.90041e+07
1.90133e+07
1.90225e+07
1.90317e+07
1.9041e+07
1.90503e+07
1.90595e+07
1.90688e+07
1.90781e+07
1.90874e+07
1.90966e+07
1.91059e+07
1.91152e+07
1.91245e+07
1.91338e+07
1.9143e+07
1.91523e+07
1.91615e+07
1.91708e+07
1.918e+07
1.91892e+07
1.91984e+07
1.92075e+07
1.92167e+07
1.92258e+07
1.92349e+07
1.9244e+07
1.9253e+07
1.9262e+07
1.9271e+07
1.928e+07
1.92889e+07
1.92978e+07
1.93067e+07
1.93155e+07
1.93243e+07
1.93331e+07
1.93418e+07
1.93505e+07
1.93591e+07
1.93677e+07
1.93763e+07
1.93848e+07
1.93932e+07
1.94016e+07
1.941e+07
1.94183e+07
1.94266e+07
1.94348e+07
1.9443e+07
1.94511e+07
1.94592e+07
1.94672e+07
1.94752e+07
1.94831e+07
1.9491e+07
1.94988e+07
1.95065e+07
1.95142e+07
1.95219e+07
1.95294e+07
1.9537e+07
1.95444e+07
1.95518e+07
1.95592e+07
1.95665e+07
1.95737e+07
1.95809e+07
1.9588e+07
1.95951e+07
1.9602e+07
1.9609e+07
1.96159e+07
1.96227e+07
1.96294e+07
1.96361e+07
1.96427e+07
1.96493e+07
1.96558e+07
1.96622e+07
1.96686e+07
1.96749e+07
1.96812e+07
1.96873e+07
1.96935e+07
1.96995e+07
1.97055e+07
1.97115e+07
1.97173e+07
1.97232e+07
1.97289e+07
1.97346e+07
1.97402e+07
1.97458e+07
1.97513e+07
1.97567e+07
1.97622e+07
1.97653e+07
1.97666e+07
1.97676e+07
1.97687e+07
1.97697e+07
1.97707e+07
1.97717e+07
1.97727e+07
1.97736e+07
1.97746e+07
1.97756e+07
1.97766e+07
1.97775e+07
1.97785e+07
1.97794e+07
1.97804e+07
1.97813e+07
1.97822e+07
1.97832e+07
1.97841e+07
1.97653e+07
1.97665e+07
1.97676e+07
1.97686e+07
1.97696e+07
1.97706e+07
1.97716e+07
1.97726e+07
1.97736e+07
1.97746e+07
1.97756e+07
1.97765e+07
1.97775e+07
1.97785e+07
1.97794e+07
1.97803e+07
1.97813e+07
1.97822e+07
1.97831e+07
1.97841e+07
1.97653e+07
1.97665e+07
1.97676e+07
1.97686e+07
1.97696e+07
1.97706e+07
1.97716e+07
1.97726e+07
1.97736e+07
1.97746e+07
1.97756e+07
1.97765e+07
1.97775e+07
1.97784e+07
1.97794e+07
1.97803e+07
1.97813e+07
1.97822e+07
1.97831e+07
1.97841e+07
1.97652e+07
1.97663e+07
1.97673e+07
1.97684e+07
1.97694e+07
1.97704e+07
1.97714e+07
1.97724e+07
1.97734e+07
1.97744e+07
1.97753e+07
1.97763e+07
1.97773e+07
1.97782e+07
1.97791e+07
1.978e+07
1.97809e+07
1.97818e+07
1.97828e+07
1.97837e+07
1.97654e+07
1.97665e+07
1.97675e+07
1.97685e+07
1.97695e+07
1.97705e+07
1.97714e+07
1.97724e+07
1.97734e+07
1.97743e+07
1.97753e+07
1.97762e+07
1.97772e+07
1.97781e+07
1.97791e+07
1.978e+07
1.9781e+07
1.97819e+07
1.97828e+07
1.97837e+07
1.9765e+07
1.97659e+07
1.97668e+07
1.97677e+07
1.97686e+07
1.97696e+07
1.97706e+07
1.97716e+07
1.97726e+07
1.97736e+07
1.97745e+07
1.97755e+07
1.97764e+07
1.97774e+07
1.97783e+07
1.97792e+07
1.97802e+07
1.97811e+07
1.9782e+07
1.97829e+07
1.97653e+07
1.97662e+07
1.97671e+07
1.97681e+07
1.9769e+07
1.97699e+07
1.97708e+07
1.97717e+07
1.97726e+07
1.97735e+07
1.97745e+07
1.97754e+07
1.97763e+07
1.97772e+07
1.97782e+07
1.97791e+07
1.978e+07
1.9781e+07
1.97819e+07
1.97829e+07
1.97647e+07
1.97653e+07
1.97659e+07
1.97667e+07
1.97675e+07
1.97685e+07
1.97694e+07
1.97704e+07
1.97713e+07
1.97723e+07
1.97733e+07
1.97743e+07
1.97753e+07
1.97763e+07
1.97773e+07
1.97783e+07
1.97793e+07
1.97803e+07
1.97814e+07
1.97824e+07
1.97647e+07
1.97653e+07
1.9766e+07
1.97668e+07
1.97676e+07
1.97685e+07
1.97695e+07
1.97704e+07
1.97713e+07
1.97723e+07
1.97733e+07
1.97743e+07
1.97752e+07
1.97762e+07
1.97772e+07
1.97783e+07
1.97793e+07
1.97803e+07
1.97813e+07
1.97823e+07
1.97645e+07
1.97649e+07
1.97656e+07
1.97663e+07
1.97672e+07
1.97681e+07
1.9769e+07
1.977e+07
1.97709e+07
1.97719e+07
1.97729e+07
1.97739e+07
1.97749e+07
1.97759e+07
1.97769e+07
1.9778e+07
1.9779e+07
1.978e+07
1.97811e+07
1.97821e+07
1.9786e+07
1.97897e+07
1.97934e+07
1.97971e+07
1.98008e+07
1.98045e+07
1.98082e+07
1.98118e+07
1.98154e+07
1.9819e+07
1.98225e+07
1.9826e+07
1.98295e+07
1.98329e+07
1.98363e+07
1.98397e+07
1.98431e+07
1.98464e+07
1.98497e+07
1.98529e+07
1.98561e+07
1.98593e+07
1.98625e+07
1.98656e+07
1.98686e+07
1.98717e+07
1.98747e+07
1.98777e+07
1.98806e+07
1.98835e+07
1.98864e+07
1.98892e+07
1.9892e+07
1.98948e+07
1.98975e+07
1.99002e+07
1.99028e+07
1.99055e+07
1.9908e+07
1.99106e+07
1.99131e+07
1.99156e+07
1.99181e+07
1.99205e+07
1.99229e+07
1.99252e+07
1.99275e+07
1.99298e+07
1.99321e+07
1.99343e+07
1.99365e+07
1.99386e+07
1.99408e+07
1.99429e+07
1.99449e+07
1.99469e+07
1.99489e+07
1.99509e+07
1.99528e+07
1.99547e+07
1.99566e+07
1.99585e+07
1.99603e+07
1.99621e+07
1.99638e+07
1.99655e+07
1.99672e+07
1.99689e+07
1.99705e+07
1.99721e+07
1.99737e+07
1.99752e+07
1.99767e+07
1.99782e+07
1.99797e+07
1.99811e+07
1.99825e+07
1.99839e+07
1.99852e+07
1.99865e+07
1.99878e+07
1.99891e+07
1.99903e+07
1.99915e+07
1.99927e+07
1.99938e+07
1.9995e+07
1.99961e+07
1.99971e+07
1.99982e+07
1.99992e+07
2.00002e+07
2.00012e+07
2.00022e+07
2.00031e+07
2.0004e+07
2.00049e+07
2.00058e+07
2.00066e+07
2.00075e+07
2.00083e+07
2.00091e+07
2.00098e+07
2.00106e+07
2.00113e+07
2.0012e+07
2.00127e+07
2.00134e+07
2.0014e+07
2.00146e+07
2.00153e+07
2.00158e+07
2.00164e+07
2.0017e+07
2.00175e+07
2.00181e+07
2.00186e+07
2.00191e+07
2.00196e+07
2.00201e+07
2.00206e+07
2.0021e+07
2.00215e+07
2.00219e+07
2.00223e+07
2.00227e+07
2.00231e+07
2.00235e+07
2.00239e+07
2.00243e+07
2.00246e+07
2.0025e+07
2.00253e+07
2.00256e+07
2.00259e+07
2.00262e+07
2.00265e+07
2.00268e+07
2.0027e+07
2.00273e+07
2.00275e+07
2.00277e+07
2.00279e+07
2.00282e+07
2.00284e+07
2.00286e+07
2.00287e+07
2.00289e+07
2.00291e+07
2.00293e+07
2.00294e+07
2.00296e+07
2.00298e+07
2.00299e+07
2.003e+07
2.00302e+07
2.00303e+07
2.00304e+07
2.00305e+07
2.00306e+07
2.00307e+07
2.00308e+07
2.00309e+07
2.0031e+07
2.00311e+07
2.00312e+07
2.00312e+07
2.00313e+07
2.00314e+07
2.00314e+07
2.00315e+07
2.00315e+07
2.00315e+07
2.00316e+07
2.00316e+07
2.00316e+07
2.00316e+07
2.00316e+07
2.00317e+07
2.00317e+07
2.00317e+07
2.00316e+07
2.00316e+07
2.00316e+07
2.00316e+07
2.00316e+07
2.00315e+07
2.00315e+07
2.00315e+07
2.00314e+07
2.00314e+07
2.00313e+07
2.00313e+07
2.00312e+07
2.00311e+07
2.00311e+07
2.0031e+07
2.0031e+07
2.00309e+07
2.00308e+07
1.9786e+07
1.97897e+07
1.97934e+07
1.97971e+07
1.98008e+07
1.98045e+07
1.98082e+07
1.98118e+07
1.98154e+07
1.9819e+07
1.98225e+07
1.9826e+07
1.98295e+07
1.98329e+07
1.98363e+07
1.98397e+07
1.98431e+07
1.98464e+07
1.98497e+07
1.98529e+07
1.98561e+07
1.98593e+07
1.98625e+07
1.98656e+07
1.98686e+07
1.98717e+07
1.98747e+07
1.98777e+07
1.98806e+07
1.98835e+07
1.98864e+07
1.98892e+07
1.9892e+07
1.98948e+07
1.98975e+07
1.99002e+07
1.99028e+07
1.99055e+07
1.9908e+07
1.99106e+07
1.99131e+07
1.99156e+07
1.99181e+07
1.99205e+07
1.99229e+07
1.99252e+07
1.99275e+07
1.99298e+07
1.99321e+07
1.99343e+07
1.99365e+07
1.99386e+07
1.99408e+07
1.99429e+07
1.99449e+07
1.99469e+07
1.99489e+07
1.99509e+07