/*--------------------------------*- C++ -*----------------------------------*\
| =========                 |                                                 |
| \\      /  F ield         | OpenFOAM: The Open Source CFD Toolbox           |
|  \\    /   O peration     | Version:  3.0.x                                 |
|   \\  /    A nd           | Web:      www.OpenFOAM.org                      |
|    \\/     M anipulation  |                                                 |
\*---------------------------------------------------------------------------*/
FoamFile
{
    version     2.0;
    format      ascii;
    class       surfaceScalarField;
    location    "0.54005";
    object      phi;
}
// * * * * * * * * * * * * * * * * * * * * * * * * * * * * * * * * * * * * * //

dimensions      [1 0 -1 0 0 0 0];

internalField   nonuniform List<scalar> 
26210
(
5.37349
0.000506486
5.35138
0.000351841
5.3292
0.000346796
5.30695
0.000349589
5.28464
0.000350799
5.26226
0.000351749
5.23983
0.000352503
5.21734
0.000353237
5.19479
0.000353765
5.17219
0.00035402
5.14953
0.000354391
5.12683
0.000354653
5.10408
0.000354876
5.08128
0.000355076
5.05843
0.000355263
5.03553
0.000355447
5.01258
0.000355631
4.98958
0.000355818
4.96653
0.000356013
4.94342
0.000356216
4.92026
0.000356427
4.89704
0.000356647
4.87376
0.000356878
4.85043
0.000357119
4.82703
0.00035737
4.80357
0.000357631
4.78005
0.000357901
4.75647
0.000358182
4.73283
0.000358473
4.70912
0.000358776
4.68535
0.000359086
4.6615
0.000359409
4.6376
0.000359741
4.61362
0.000360082
4.58958
0.000360433
4.56547
0.000360792
4.54129
0.000361163
4.51704
0.000361542
4.49272
0.000361931
4.46832
0.000362329
4.44386
0.000362738
4.41933
0.000363153
4.39473
0.00036358
4.37006
0.000364016
4.34531
0.00036446
4.3205
0.000364917
4.29561
0.000365376
4.27065
0.00036585
4.24563
0.000366325
4.22053
0.000366805
4.19536
0.000367296
4.17013
0.000367794
4.14482
0.00036831
4.11945
0.00036884
4.094
0.000369383
4.0685
0.000369931
4.04292
0.00037047
4.01728
0.000370997
3.99158
0.000371528
3.96581
0.00037208
3.93997
0.000372654
3.91408
0.000373238
3.88812
0.000373821
3.86211
0.000374408
3.83604
0.000374994
3.80991
0.00037559
3.78373
0.000376195
3.7575
0.000376826
3.73121
0.000377488
3.70488
0.000378164
3.67849
0.000378845
3.65206
0.000379519
3.62558
0.00038017
3.59906
0.000380821
3.57249
0.000381466
3.54588
0.000382119
3.51924
0.000382766
3.49256
0.000383436
3.46584
0.000384107
3.4391
0.000384785
3.41232
0.000385471
3.38552
0.000386148
3.35869
0.000386809
3.33184
0.000387455
3.30497
0.00038809
3.27809
0.000388736
3.25118
0.000389403
3.22427
0.000390073
3.19734
0.000390729
3.17041
0.000391373
3.14347
0.000392009
3.11652
0.000392611
3.08958
0.000393124
3.06263
0.000393513
3.03569
0.000393773
3.00876
0.000393904
2.98183
0.000393884
2.95492
0.000393659
2.92802
0.000393167
2.90115
0.000392362
2.87429
0.00039122
2.84746
0.000389716
2.82066
0.000387814
2.79389
0.000385452
2.76715
0.000382552
2.74045
0.000379031
2.7138
0.000374812
2.68718
0.000369829
2.66061
0.00036403
2.6341
0.000357375
2.60764
0.000349842
2.58123
0.000341425
2.55489
0.000332133
2.52861
0.000321988
2.5024
0.000311028
2.47626
0.000299298
2.4502
0.000286863
2.42422
0.000273801
2.39831
0.000260206
2.37249
0.000246186
2.34676
0.000231856
2.32112
0.000217339
2.29557
0.000202759
2.27012
0.000188242
2.24476
0.000173913
2.2195
0.000159887
2.19434
0.000146274
2.16928
0.000133172
2.14433
0.000120666
2.11949
0.000108825
2.09475
9.77051e-05
2.07013
8.73442e-05
2.04561
7.77656e-05
2.0212
6.89781e-05
1.99691
6.09763e-05
1.97274
5.37426e-05
1.94868
4.72495e-05
1.92474
4.14602e-05
1.90091
3.63328e-05
1.87721
3.18192e-05
1.85363
2.78693e-05
1.83017
2.44299e-05
1.80684
2.14481e-05
1.78363
1.88724e-05
1.76055
1.66539e-05
1.7376
1.47472e-05
1.71478
1.31095e-05
1.69209
1.17019e-05
1.66953
1.04879e-05
1.64711
9.43611e-06
1.62483
8.51841e-06
1.60268
7.71231e-06
1.58067
6.99765e-06
1.55881
6.35738e-06
1.53708
5.77588e-06
1.5155
5.23983e-06
1.49406
4.73997e-06
1.47277
4.26756e-06
1.45163
3.81785e-06
1.43064
3.38513e-06
1.40979
2.96527e-06
1.38909
2.55562e-06
1.36855
2.15259e-06
1.34816
1.75523e-06
1.32793
1.36093e-06
1.30784
9.68535e-07
1.28792
5.76787e-07
1.26815
1.89526e-07
1.24854
-1.99581e-07
1.22909
-5.83947e-07
1.20979
-9.73325e-07
1.19066
-1.35457e-06
1.17169
-1.74716e-06
1.15287
-2.12653e-06
1.13422
-2.51204e-06
1.11574
-2.91901e-06
1.09741
-3.23342e-06
1.07925
-3.78258e-06
1.06126
-3.8424e-06
1.04343
-4.7848e-06
1.02576
-4.29382e-06
1.00826
-5.92557e-06
0.990918
-4.63355e-06
0.97375
-7.16372e-06
0.956743
-4.82204e-06
0.939908
-8.63944e-06
0.923234
-4.67281e-06
0.906734
-1.03839e-05
0.890392
-4.52055e-06
0.874226
-1.16315e-05
0.858219
-4.23073e-06
0.842383
-1.20018e-05
0.826708
5.66499e-07
0.81118
1.09479e-05
0.795733
0.000104731
0.780054
0.000495457
0.762801
0.00224526
0.738366
0.00958192
0.669014
0.0546781
0.123303
0.531208
7.60018
0.000462398
7.56942
0.000334055
7.53856
0.000321881
7.50762
0.000326277
7.47659
0.000327493
7.44546
0.000328316
7.41425
0.000329069
7.38297
0.000329794
7.3516
0.000330321
7.32016
0.000330601
7.28864
0.000330978
7.25706
0.000331257
7.22541
0.0003315
7.19369
0.000331721
7.1619
0.00033193
7.13004
0.000332134
7.09811
0.00033234
7.06611
0.000332549
7.03403
0.000332764
7.00187
0.000332987
6.96964
0.000333218
6.93733
0.000333457
6.90494
0.000333706
6.87246
0.000333965
6.8399
0.000334233
6.80726
0.000334511
6.77453
0.000334797
6.74171
0.000335094
6.7088
0.0003354
6.67579
0.000335716
6.6427
0.000336041
6.60952
0.000336376
6.57624
0.00033672
6.54286
0.000337074
6.50939
0.000337436
6.47582
0.000337806
6.44216
0.000338187
6.40839
0.000338576
6.37453
0.000338974
6.34057
0.000339381
6.30652
0.000339798
6.27236
0.000340221
6.2381
0.000340655
6.20374
0.000341097
6.16928
0.000341548
6.13473
0.00034201
6.10007
0.000342475
6.06532
0.000342953
6.03046
0.000343433
5.99551
0.000343918
5.96046
0.000344413
5.92531
0.000344915
5.89007
0.000345433
5.85472
0.000345964
5.81929
0.000346507
5.78376
0.000347056
5.74814
0.000347597
5.71242
0.000348128
5.67662
0.000348661
5.64072
0.000349215
5.60474
0.000349789
5.56867
0.000350371
5.53251
0.000350954
5.49627
0.000351539
5.45995
0.000352125
5.42356
0.000352721
5.38708
0.000353326
5.35054
0.000353955
5.31392
0.000354613
5.27723
0.000355283
5.24048
0.000355958
5.20365
0.000356627
5.16677
0.000357275
5.12982
0.000357923
5.09281
0.000358566
5.05574
0.000359216
5.01862
0.000359861
4.98145
0.000360526
4.94424
0.000361194
4.90698
0.000361868
4.86968
0.000362549
4.83235
0.000363223
4.79498
0.000363882
4.75757
0.000364525
4.72014
0.000365158
4.68269
0.000365801
4.64522
0.000366462
4.60773
0.000367125
4.57022
0.000367773
4.53271
0.000368406
4.49518
0.000369028
4.45766
0.00036961
4.42013
0.000370104
4.3826
0.000370474
4.34508
0.000370714
4.30757
0.000370822
4.27007
0.000370773
4.23259
0.000370514
4.19513
0.000369987
4.15769
0.000369144
4.12029
0.000367962
4.08292
0.000366414
4.04558
0.000364462
4.00829
0.000362047
3.97105
0.000359095
3.93385
0.000355526
3.8967
0.000351269
3.85961
0.000346264
3.82257
0.000340463
3.7856
0.000333834
3.7487
0.000326359
3.71186
0.00031804
3.6751
0.000308891
3.63841
0.000298941
3.60181
0.000288232
3.56529
0.000276817
3.52886
0.000264764
3.49252
0.000252154
3.45627
0.000239083
3.42013
0.000225661
3.38409
0.000212
3.34815
0.000198219
3.31232
0.000184439
3.2766
0.000170778
3.241
0.000157353
3.20552
0.000144271
3.17017
0.00013163
3.13493
0.000119517
3.09983
0.000108007
3.06486
9.7158e-05
3.03003
8.70144e-05
2.99533
7.76053e-05
2.96078
6.89449e-05
2.92637
6.10343e-05
2.89211
5.38622e-05
2.858
4.7406e-05
2.82405
4.16348e-05
2.79025
3.651e-05
2.75661
3.19889e-05
2.72314
2.80237e-05
2.68983
2.45659e-05
2.6567
2.15647e-05
2.62373
1.89701e-05
2.59094
1.67343e-05
2.55832
1.48122e-05
2.52589
1.31625e-05
2.49363
1.1746e-05
2.46156
1.05283e-05
2.42968
9.47674e-06
2.39799
8.56339e-06
2.36648
7.76376e-06
2.33517
7.05825e-06
2.30406
6.42954e-06
2.27315
5.86295e-06
2.24243
5.34494e-06
2.21192
4.86416e-06
2.18161
4.413e-06
2.15151
3.98415e-06
2.12161
3.57354e-06
2.09192
3.17666e-06
2.06245
2.78977e-06
2.03318
2.41141e-06
2.00413
2.03774e-06
1.9753
1.66876e-06
1.94668
1.30176e-06
1.91829
9.35966e-07
1.89011
5.70803e-07
1.86215
2.09922e-07
1.83442
-1.52027e-07
1.8069
-5.14436e-07
1.77962
-8.70241e-07
1.75255
-1.24315e-06
1.72572
-1.57813e-06
1.69911
-1.99278e-06
1.67273
-2.24025e-06
1.64658
-2.8246e-06
1.62066
-2.76316e-06
1.59498
-3.86345e-06
1.56952
-3.00146e-06
1.54429
-5.2328e-06
1.5193
-2.90448e-06
1.49454
-6.87036e-06
1.47001
-2.61163e-06
1.44573
-8.70783e-06
1.42166
-1.95348e-06
1.39785
-1.11766e-05
1.37425
-4.41849e-07
1.35091
-1.42881e-05
1.32779
1.02465e-06
1.30491
-1.61401e-05
1.28226
3.24916e-06
1.25985
-1.63429e-05
1.23767
1.57604e-05
1.21569
4.13994e-05
1.19383
0.000274982
1.17162
0.00123098
1.14708
0.0055539
1.11184
0.0238212
1.01948
0.126291
0.278332
0.843916
10.7483
0.000403921
10.7048
0.00030614
10.6611
0.000287208
10.6174
0.000292932
10.5735
0.000294217
10.5295
0.000294848
10.4853
0.000295541
10.4411
0.000296202
10.3967
0.000296681
10.3523
0.000296944
10.3077
0.000297281
10.263
0.000297536
10.2183
0.000297756
10.1734
0.000297957
10.1285
0.000298145
10.0834
0.00029833
10.0382
0.000298515
9.99299
0.000298703
9.94763
0.000298897
9.90215
0.000299098
9.85657
0.000299305
9.81088
0.000299521
9.76507
0.000299744
9.71915
0.000299977
9.6731
0.000300218
9.62693
0.000300467
9.58065
0.000300725
9.53423
0.000300992
9.48769
0.000301267
9.44102
0.000301551
9.39422
0.000301843
9.34729
0.000302144
9.30023
0.000302454
9.25303
0.000302771
9.2057
0.000303096
9.15823
0.000303429
9.11062
0.000303771
9.06288
0.000304121
9.01499
0.000304479
8.96697
0.000304844
8.9188
0.000305219
8.8705
0.0003056
8.82205
0.00030599
8.77347
0.000306387
8.72474
0.000306792
8.67587
0.000307207
8.62686
0.000307625
8.57771
0.000308054
8.52842
0.000308486
8.47899
0.000308922
8.42943
0.000309367
8.37972
0.000309818
8.32988
0.000310283
8.27991
0.00031076
8.2298
0.000311247
8.17955
0.000311739
8.12918
0.000312226
8.07867
0.000312705
8.02804
0.000313186
7.97728
0.000313684
7.92639
0.000314199
7.87538
0.000314722
7.82425
0.000315244
7.77301
0.000315769
7.72165
0.000316296
7.67018
0.000316831
7.61861
0.000317377
7.56693
0.000317943
7.51515
0.000318534
7.46327
0.000319135
7.41129
0.000319741
7.35922
0.000320341
7.30705
0.000320925
7.2548
0.000321507
7.20246
0.000322086
7.15005
0.00032267
7.09756
0.00032325
7.045
0.000323846
6.99237
0.000324447
6.93969
0.000325052
6.88694
0.000325664
6.83415
0.000326269
6.7813
0.000326862
6.72841
0.000327442
6.67548
0.000328011
6.62252
0.000328589
6.56953
0.000329183
6.51651
0.000329779
6.46348
0.000330362
6.41043
0.000330933
6.35737
0.000331491
6.3043
0.000332013
6.25124
0.000332457
6.19817
0.000332792
6.14511
0.00033301
6.09207
0.00033311
6.03904
0.000333069
5.98604
0.00033284
5.93307
0.00033237
5.88013
0.000331618
5.82724
0.000330562
5.77439
0.000329179
5.7216
0.000327434
5.66887
0.000325274
5.61619
0.000322632
5.56359
0.000319437
5.51106
0.000315625
5.4586
0.000311142
5.40623
0.000305945
5.35395
0.000300006
5.30175
0.000293308
5.24966
0.000285852
5.19767
0.000277649
5.14579
0.000268728
5.09402
0.000259124
5.04237
0.000248885
4.99084
0.000238071
4.93944
0.000226756
4.88818
0.000215026
4.83705
0.000202977
4.78607
0.000190711
4.73524
0.000178337
4.68457
0.00016596
4.63405
0.000153689
4.5837
0.000141626
4.53351
0.000129869
4.4835
0.000118507
4.43367
0.000107618
4.38402
9.72678e-05
4.33455
8.75104e-05
4.28529
7.83852e-05
4.23621
6.99188e-05
4.18734
6.21244e-05
4.13868
5.5003e-05
4.09022
4.8545e-05
4.04198
4.27302e-05
3.99396
3.7531e-05
3.94616
3.29132e-05
3.89859
2.88383e-05
3.85125
2.52636e-05
3.80414
2.21457e-05
3.75727
1.9439e-05
3.71065
1.70985e-05
3.66427
1.50813e-05
3.61815
1.33471e-05
3.57228
1.18583e-05
3.52666
1.058e-05
3.48131
9.48105e-06
3.43622
8.53217e-06
3.39139
7.70806e-06
3.34684
6.98671e-06
3.30257
6.35036e-06
3.25857
5.78359e-06
3.21485
5.27296e-06
3.17141
4.80625e-06
3.12826
4.37313e-06
3.08539
3.96702e-06
3.04282
3.58124e-06
3.00054
3.21178e-06
2.95856
2.85495e-06
2.91687
2.50689e-06
2.87549
2.16702e-06
2.8344
1.83097e-06
2.79363
1.4994e-06
2.75316
1.16952e-06
2.713
8.40395e-07
2.67315
5.12363e-07
2.63361
1.89754e-07
2.59439
-1.33281e-07
2.55548
-4.66834e-07
2.51689
-7.7203e-07
2.47862
-1.13557e-06
2.44067
-1.38261e-06
2.40304
-1.85673e-06
2.36573
-1.89079e-06
2.32875
-2.75293e-06
2.2921
-2.11705e-06
2.25577
-4.05528e-06
2.21976
-1.81073e-06
2.18409
-5.9602e-06
2.14875
-9.21262e-07
2.11373
-8.31213e-06
2.07905
2.84234e-07
2.0447
-1.10241e-05
2.01067
2.18933e-06
1.97698
-1.49684e-05
1.94362
5.71565e-06
1.9106
-2.00965e-05
1.8779
9.10728e-06
1.84555
-2.28637e-05
1.81352
1.41219e-05
1.78183
-2.308e-05
1.75046
3.66661e-05
1.71939
7.94899e-05
1.68848
0.000494346
1.65718
0.00217159
1.62293
0.00978409
1.57542
0.0416336
1.45446
0.217905
0.483707
1.22004
47.4452
0.000186398
47.2532
0.000159852
47.0605
0.000142365
46.8673
0.000146009
46.6736
0.000147413
46.4793
0.000147538
46.2844
0.00014782
46.0892
0.000148136
45.8934
0.000148363
45.6971
0.000148498
45.5004
0.000148653
45.3032
0.000148778
45.1056
0.000148885
44.9076
0.000148983
44.7091
0.000149075
44.5103
0.000149166
44.3109
0.000149257
44.1112
0.00014935
43.9109
0.000149445
43.7102
0.000149545
43.509
0.000149647
43.3073
0.000149754
43.1051
0.000149865
42.9023
0.000149981
42.6991
0.000150101
42.4953
0.000150226
42.291
0.000150354
42.0861
0.000150487
41.8807
0.000150625
41.6747
0.000150766
41.4681
0.000150912
41.2609
0.000151063
41.0532
0.000151218
40.8448
0.000151376
40.6359
0.000151539
40.4263
0.000151705
40.2162
0.000151876
40.0054
0.000152051
39.7941
0.00015223
39.5821
0.000152413
39.3695
0.0001526
39.1562
0.000152791
38.9424
0.000152986
38.7279
0.000153184
38.5128
0.000153387
38.2971
0.000153595
38.0808
0.000153804
37.8638
0.000154018
37.6462
0.000154234
37.4281
0.000154453
37.2093
0.000154676
36.9899
0.000154902
36.7698
0.000155133
36.5492
0.00015537
36.328
0.000155613
36.1063
0.000155859
35.8839
0.000156104
35.661
0.000156345
35.4374
0.000156587
35.2134
0.000156837
34.9888
0.000157094
34.7636
0.000157355
34.5379
0.000157615
34.3117
0.000157876
34.085
0.000158139
33.8578
0.000158407
33.6301
0.000158682
33.402
0.000158966
33.1734
0.000159262
32.9444
0.000159562
32.715
0.000159863
32.4851
0.000160163
32.2549
0.000160456
32.0242
0.000160748
31.7932
0.000161039
31.5618
0.00016133
31.3301
0.000161621
31.0981
0.000161918
30.8658
0.000162218
30.6332
0.000162521
30.4004
0.000162827
30.1674
0.00016313
29.9341
0.000163428
29.7006
0.000163718
29.467
0.000164004
29.2332
0.000164294
28.9993
0.000164591
28.7653
0.00016489
28.5312
0.000165183
28.297
0.00016547
28.0628
0.000165749
27.8285
0.000166009
27.5943
0.000166231
27.36
0.000166401
27.1258
0.000166515
26.8917
0.00016657
26.6576
0.000166554
26.4236
0.000166444
26.1898
0.000166214
25.9561
0.000165846
25.7227
0.000165328
25.4894
0.000164647
25.2563
0.000163787
25.0236
0.000162721
24.7911
0.000161415
24.5588
0.000159834
24.327
0.000157946
24.0954
0.000155724
23.8642
0.000153147
23.6334
0.0001502
23.4031
0.000146875
23.1731
0.00014317
22.9436
0.000139092
22.7146
0.000134653
22.4861
0.000129872
22.2581
0.000124772
22.0306
0.000119382
21.8037
0.00011374
21.5774
0.000107887
21.3518
0.000101871
21.1267
9.57438e-05
20.9024
8.95587e-05
20.6787
8.3369e-05
20.4557
7.7229e-05
20.2334
7.11901e-05
20.0119
6.53015e-05
19.7911
5.96075e-05
19.5711
5.41475e-05
19.352
4.89551e-05
19.1336
4.40577e-05
18.9162
3.94748e-05
18.6995
3.52207e-05
18.4838
3.13023e-05
18.269
2.77199e-05
18.0551
2.447e-05
17.8422
2.15422e-05
17.6302
1.89227e-05
17.4192
1.65954e-05
17.2092
1.45408e-05
17.0002
1.27372e-05
16.7923
1.11636e-05
16.5854
9.7975e-06
16.3796
8.6151e-06
16.1749
7.59597e-06
15.9713
6.71987e-06
15.7688
5.96779e-06
15.5674
5.32153e-06
15.3672
4.7661e-06
15.1682
4.28711e-06
14.9703
3.87081e-06
14.7737
3.50686e-06
14.5782
3.18532e-06
14.384
2.90028e-06
14.191
2.64308e-06
13.9993
2.40842e-06
13.8088
2.18992e-06
13.6196
1.98622e-06
13.4317
1.79314e-06
13.245
1.60747e-06
13.0597
1.42914e-06
12.8757
1.25402e-06
12.693
1.0845e-06
12.5117
9.16011e-07
12.3317
7.49261e-07
12.153
5.85164e-07
11.9757
4.20294e-07
11.7998
2.58329e-07
11.6253
9.95897e-08
11.4522
-6.43868e-08
11.2804
-2.437e-07
11.1101
-3.54388e-07
10.9411
-6.35018e-07
10.7736
-5.58675e-07
10.6075
-1.20531e-06
10.4429
-4.09172e-07
10.2796
-2.38063e-06
10.1178
7.00031e-07
9.95744
-4.9192e-06
9.79852
3.54479e-06
9.64105
-9.39305e-06
9.48502
8.23034e-06
9.33047
-1.53454e-05
9.17735
1.41427e-05
9.02572
-2.29893e-05
8.87552
2.3176e-05
8.72683
-3.56056e-05
8.57955
3.81488e-05
8.43382
-5.22741e-05
8.28946
5.21991e-05
8.14667
-6.05328e-05
8.00527
6.9714e-05
7.86539
-6.17014e-05
7.72691
0.000130521
7.58978
0.000218422
7.45346
0.00136381
7.31575
0.00584223
7.16693
0.0260929
6.9699
0.107567
6.60558
0.452672
0.983642
5.97749
47.4451
-1.36424e-12
47.2531
-6.82121e-13
47.0605
-2.27374e-13
46.8673
-2.04636e-12
46.6736
1.36424e-12
46.4793
6.82121e-13
46.2844
-1.59162e-12
46.0891
-4.54747e-13
45.8934
-1.13687e-12
45.6971
0
45.5003
4.54747e-13
45.3032
-2.27374e-13
45.1056
-1.59162e-12
44.9076
-6.82121e-13
44.7091
-6.82121e-13
44.5102
-1.36424e-12
44.3109
-2.27374e-12
44.1111
2.27374e-13
43.9109
-9.09495e-13
43.7102
-9.09495e-13
43.509
-2.27374e-13
43.3073
-1.13687e-12
43.105
-6.82121e-13
42.9023
-1.81899e-12
42.6991
-6.82121e-13
42.4953
2.04636e-12
42.291
-2.27374e-13
42.0861
6.82121e-13
41.8806
1.59162e-12
41.6746
1.59162e-12
41.468
-2.27374e-13
41.2609
-9.09495e-13
41.0531
-2.04636e-12
40.8448
-1.13687e-12
40.6359
2.27374e-13
40.4263
-1.81899e-12
40.2162
-2.27374e-13
40.0054
-4.54747e-13
39.794
0
39.582
1.36424e-12
39.3694
1.81899e-12
39.1562
4.54747e-13
38.9424
6.82121e-13
38.7279
2.50111e-12
38.5128
3.63798e-12
38.2971
1.59162e-12
38.0808
6.82121e-13
37.8638
-4.54747e-13
37.6462
-2.50111e-12
37.428
-2.04636e-12
37.2092
-4.54747e-13
36.9898
-9.09495e-13
36.7698
-1.13687e-12
36.5492
-2.27374e-13
36.328
0
36.1062
9.09495e-13
35.8839
2.27374e-13
35.6609
-2.27374e-13
35.4374
-1.36424e-12
35.2133
4.54747e-13
34.9887
0
34.7636
4.54747e-13
34.5379
2.27374e-13
34.3117
-4.54747e-13
34.0849
-9.09495e-13
33.8578
9.09495e-13
33.6301
4.54747e-13
33.402
6.82121e-13
33.1734
6.82121e-13
32.9444
-4.54747e-13
32.715
-2.95586e-12
32.4851
-1.81899e-12
32.2548
2.27374e-13
32.0242
1.59162e-12
31.7932
-2.27374e-13
31.5618
1.13687e-12
31.3301
2.72848e-12
31.0981
1.81899e-12
30.8658
-2.27374e-13
30.6332
-6.82121e-13
30.4004
-6.82121e-13
30.1673
4.54747e-13
29.9341
9.09495e-13
29.7006
0
29.467
1.81899e-12
29.2332
1.36424e-12
28.9993
6.82121e-13
28.7652
-2.27374e-13
28.5311
1.81899e-12
28.297
-1.13687e-12
28.0627
1.36424e-12
27.8285
-4.09273e-12
27.5942
5.00222e-12
27.36
-6.82121e-12
27.1258
6.13909e-12
26.8916
-7.50333e-12
26.6576
9.32232e-12
26.4236
-4.54747e-12
26.1898
3.41061e-12
25.9561
6.82121e-13
25.7226
-4.77485e-12
25.4894
5.00222e-12
25.2563
-5.68434e-12
25.0235
3.86535e-12
24.791
1.59162e-12
24.5588
-5.68434e-12
24.3269
6.82121e-12
24.0954
-7.50333e-12
23.8642
9.09495e-13
23.6334
4.54747e-13
23.403
-2.04636e-12
23.1731
3.41061e-12
22.9436
-1.81899e-12
22.7146
4.77485e-12
22.486
-8.18545e-12
22.258
7.7307e-12
22.0306
-3.63798e-12
21.8037
-2.27374e-13
21.5774
-2.50111e-12
21.3518
1.45519e-11
21.1267
-3.27418e-11
20.9024
4.22915e-11
20.6787
-5.68434e-11
20.4557
6.95763e-11
20.2334
-8.04903e-11
20.0119
8.66294e-11
19.7911
-1.04365e-10
19.5711
1.53022e-10
19.352
-2.15778e-10
19.1336
2.54431e-10
18.9162
-1.80535e-10
18.6995
-4.04725e-11
18.4838
2.67846e-10
18.269
-2.77396e-10
18.0551
1.54614e-11
17.8422
3.06954e-10
17.6302
-3.47427e-10
17.4192
-8.6402e-12
17.2092
3.61524e-10
17.0002
-2.36923e-10
16.7923
-2.32376e-10
16.5854
3.89264e-10
16.3796
7.18501e-11
16.1749
-3.81988e-10
15.9713
1.40972e-11
15.7688
3.07409e-10
15.5674
8.18545e-12
15.3672
-3.9563e-10
15.1682
1.58252e-10
14.9703
2.99679e-10
14.7737
-2.77396e-11
14.5782
-6.30735e-10
14.384
2.52385e-10
14.191
2.40561e-10
13.9993
5.92536e-10
13.8088
-8.74024e-10
13.6196
-7.27596e-11
13.4317
-1.96451e-10
13.245
6.0345e-10
13.0597
3.63798e-11
12.8757
5.67979e-10
12.693
-2.54659e-10
12.5117
3.24235e-10
12.3317
-2.19734e-09
12.153
1.82217e-09
11.9757
-4.99767e-09
11.7998
1.1983e-08
11.6253
-2.13595e-08
11.4522
4.90186e-08
11.2804
-8.46858e-08
11.1101
1.71655e-07
10.9411
-3.31329e-07
10.7736
6.01165e-07
10.6075
-1.09478e-06
10.4429
1.92037e-06
10.2796
-3.2604e-06
10.1178
5.28988e-06
9.95744
-8.2197e-06
9.79851
1.21225e-05
9.64106
-1.69849e-05
9.48502
2.26778e-05
9.33048
-2.91272e-05
9.17734
3.65975e-05
9.02573
-4.56568e-05
8.87551
5.70261e-05
8.72684
-7.09898e-05
8.57954
8.66625e-05
8.43383
-0.000101546
8.28945
0.000113289
8.14668
-0.000119195
8.00526
0.000145509
7.86541
-0.000131363
7.72693
0.000228365
7.58994
0.000213397
7.45409
0.00176453
7.31862
0.00727555
7.17852
0.0336872
7.00674
0.148243
6.63013
0.699726
1.57052
5.91506
47.4451
-0.000186398
47.2531
-0.000159852
47.0605
-0.000142365
46.8673
-0.000146009
46.6736
-0.000147413
46.4793
-0.000147538
46.2844
-0.00014782
46.0891
-0.000148136
45.8934
-0.000148363
45.6971
-0.000148498
45.5003
-0.000148653
45.3032
-0.000148778
45.1056
-0.000148885
44.9076
-0.000148983
44.7091
-0.000149075
44.5102
-0.000149166
44.3109
-0.000149257
44.1111
-0.00014935
43.9109
-0.000149445
43.7102
-0.000149545
43.509
-0.000149647
43.3073
-0.000149754
43.105
-0.000149865
42.9023
-0.000149981
42.6991
-0.000150101
42.4953
-0.000150226
42.291
-0.000150354
42.0861
-0.000150487
41.8806
-0.000150625
41.6746
-0.000150766
41.468
-0.000150912
41.2609
-0.000151063
41.0531
-0.000151218
40.8448
-0.000151376
40.6359
-0.000151539
40.4263
-0.000151705
40.2162
-0.000151876
40.0054
-0.000152051
39.794
-0.00015223
39.582
-0.000152413
39.3694
-0.0001526
39.1562
-0.000152791
38.9424
-0.000152986
38.7279
-0.000153184
38.5128
-0.000153387
38.2971
-0.000153595
38.0808
-0.000153804
37.8638
-0.000154018
37.6462
-0.000154234
37.428
-0.000154453
37.2092
-0.000154676
36.9898
-0.000154902
36.7698
-0.000155133
36.5492
-0.00015537
36.328
-0.000155613
36.1062
-0.000155859
35.8839
-0.000156104
35.6609
-0.000156345
35.4374
-0.000156587
35.2133
-0.000156837
34.9887
-0.000157094
34.7636
-0.000157355
34.5379
-0.000157615
34.3117
-0.000157876
34.0849
-0.000158139
33.8578
-0.000158407
33.6301
-0.000158682
33.402
-0.000158966
33.1734
-0.000159262
32.9444
-0.000159562
32.715
-0.000159863
32.4851
-0.000160163
32.2548
-0.000160456
32.0242
-0.000160748
31.7932
-0.000161039
31.5618
-0.00016133
31.3301
-0.000161621
31.0981
-0.000161918
30.8658
-0.000162218
30.6332
-0.000162521
30.4004
-0.000162827
30.1673
-0.00016313
29.9341
-0.000163428
29.7006
-0.000163718
29.467
-0.000164004
29.2332
-0.000164294
28.9993
-0.000164591
28.7652
-0.00016489
28.5311
-0.000165183
28.297
-0.00016547
28.0627
-0.000165749
27.8285
-0.000166009
27.5942
-0.000166231
27.36
-0.000166401
27.1258
-0.000166515
26.8916
-0.00016657
26.6576
-0.000166554
26.4236
-0.000166444
26.1898
-0.000166214
25.9561
-0.000165846
25.7226
-0.000165328
25.4894
-0.000164647
25.2563
-0.000163787
25.0235
-0.000162721
24.791
-0.000161415
24.5588
-0.000159834
24.3269
-0.000157946
24.0954
-0.000155724
23.8642
-0.000153147
23.6334
-0.0001502
23.403
-0.000146875
23.1731
-0.00014317
22.9436
-0.000139092
22.7146
-0.000134653
22.486
-0.000129872
22.258
-0.000124772
22.0306
-0.000119382
21.8037
-0.00011374
21.5774
-0.000107887
21.3518
-0.000101871
21.1267
-9.57439e-05
20.9024
-8.95586e-05
20.6787
-8.3369e-05
20.4557
-7.7229e-05
20.2334
-7.11901e-05
20.0119
-6.53015e-05
19.7911
-5.96075e-05
19.5711
-5.41474e-05
19.352
-4.89553e-05
19.1336
-4.40574e-05
18.9162
-3.9475e-05
18.6995
-3.52208e-05
18.4838
-3.13019e-05
18.269
-2.77203e-05
18.0551
-2.44699e-05
17.8422
-2.15419e-05
17.6302
-1.89231e-05
17.4192
-1.65955e-05
17.2092
-1.45403e-05
17.0002
-1.27375e-05
16.7923
-1.11641e-05
16.5854
-9.79684e-06
16.3796
-8.615e-06
16.1749
-7.59655e-06
15.9713
-6.71991e-06
15.7688
-5.96723e-06
15.5674
-5.32162e-06
15.3672
-4.76659e-06
15.1682
-4.28696e-06
14.9703
-3.87037e-06
14.7737
-3.50688e-06
14.5782
-3.18611e-06
14.384
-2.90022e-06
14.191
-2.64244e-06
13.9993
-2.40774e-06
13.8088
-2.1908e-06
13.6196
-1.98691e-06
13.4317
-1.79307e-06
13.245
-1.60693e-06
13.0597
-1.42839e-06
12.8757
-1.25341e-06
12.693
-1.08477e-06
12.5117
-9.16262e-07
12.3317
-7.52293e-07
12.153
-5.82642e-07
11.9757
-4.25248e-07
11.7998
-2.44797e-07
11.6253
-1.23208e-07
11.4522
1.18286e-07
11.2804
1.58675e-07
11.1101
5.37955e-07
10.9411
2.77964e-07
10.7736
1.21285e-06
10.6075
-2.76395e-08
10.4429
2.6672e-06
10.2796
-1.65538e-06
10.1178
6.223e-06
9.95744
-6.46986e-06
9.79852
1.42046e-05
9.64105
-1.66698e-05
9.48503
2.77002e-05
9.33047
-3.10603e-05
9.17736
4.23045e-05
9.02571
-4.23262e-05
8.87555
4.97443e-05
8.72679
-4.49679e-05
8.5796
5.21263e-05
8.43377
-4.99275e-05
8.28951
6.33766e-05
8.14664
-6.87101e-05
8.0053
0.000101641
7.8654
-0.000109994
7.72697
0.000212032
7.59012
0.000133247
7.4549
0.00150219
7.32216
0.00597949
7.19496
0.028376
7.08696
0.125173
7.03902
0.618059
1.19406
7.28733
47.4452
-0.000403921
47.2532
-0.00030614
47.0605
-0.000287208
46.8673
-0.000292932
46.6736
-0.000294217
46.4793
-0.000294848
46.2844
-0.000295541
46.0892
-0.000296202
45.8934
-0.000296681
45.6971
-0.000296944
45.5004
-0.000297281
45.3032
-0.000297536
45.1056
-0.000297756
44.9076
-0.000297957
44.7091
-0.000298145
44.5103
-0.00029833
44.3109
-0.000298515
44.1112
-0.000298703
43.9109
-0.000298897
43.7102
-0.000299098
43.509
-0.000299305
43.3073
-0.000299521
43.1051
-0.000299744
42.9023
-0.000299977
42.6991
-0.000300218
42.4953
-0.000300467
42.291
-0.000300725
42.0861
-0.000300992
41.8807
-0.000301267
41.6747
-0.000301551
41.4681
-0.000301843
41.2609
-0.000302144
41.0532
-0.000302454
40.8448
-0.000302771
40.6359
-0.000303096
40.4263
-0.000303429
40.2162
-0.000303771
40.0054
-0.000304121
39.7941
-0.000304479
39.5821
-0.000304844
39.3695
-0.000305219
39.1562
-0.0003056
38.9424
-0.00030599
38.7279
-0.000306387
38.5128
-0.000306792
38.2971
-0.000307207
38.0808
-0.000307625
37.8638
-0.000308054
37.6462
-0.000308486
37.4281
-0.000308922
37.2093
-0.000309367
36.9899
-0.000309818
36.7698
-0.000310283
36.5492
-0.00031076
36.328
-0.000311247
36.1063
-0.000311739
35.8839
-0.000312226
35.661
-0.000312705
35.4374
-0.000313186
35.2134
-0.000313684
34.9888
-0.000314199
34.7636
-0.000314722
34.5379
-0.000315244
34.3117
-0.000315769
34.085
-0.000316296
33.8578
-0.000316831
33.6301
-0.000317377
33.402
-0.000317943
33.1734
-0.000318534
32.9444
-0.000319135
32.715
-0.000319741
32.4851
-0.000320341
32.2549
-0.000320925
32.0242
-0.000321507
31.7932
-0.000322086
31.5618
-0.00032267
31.3301
-0.00032325
31.0981
-0.000323846
30.8658
-0.000324447
30.6332
-0.000325052
30.4004
-0.000325664
30.1674
-0.000326269
29.9341
-0.000326862
29.7006
-0.000327442
29.467
-0.000328011
29.2332
-0.000328589
28.9993
-0.000329183
28.7653
-0.000329779
28.5312
-0.000330362
28.297
-0.000330933
28.0628
-0.000331491
27.8285
-0.000332013
27.5943
-0.000332457
27.36
-0.000332792
27.1258
-0.00033301
26.8917
-0.000333111
26.6576
-0.000333069
26.4236
-0.00033284
26.1898
-0.00033237
25.9561
-0.000331618
25.7227
-0.000330562
25.4894
-0.000329179
25.2563
-0.000327434
25.0236
-0.000325274
24.7911
-0.000322632
24.5588
-0.000319437
24.327
-0.000315625
24.0954
-0.000311142
23.8642
-0.000305945
23.6334
-0.000300006
23.4031
-0.000293308
23.1731
-0.000285852
22.9436
-0.000277649
22.7146
-0.000268728
22.4861
-0.000259124
22.2581
-0.000248885
22.0306
-0.000238071
21.8037
-0.000226756
21.5774
-0.000215026
21.3518
-0.000202977
21.1267
-0.000190711
20.9024
-0.000178337
20.6787
-0.00016596
20.4557
-0.000153689
20.2334
-0.000141626
20.0119
-0.000129869
19.7911
-0.000118507
19.5711
-0.000107618
19.352
-9.72679e-05
19.1336
-8.75103e-05
18.9162
-7.83853e-05
18.6995
-6.99187e-05
18.4838
-6.21243e-05
18.269
-5.5003e-05
18.0551
-4.8545e-05
17.8422
-4.273e-05
17.6302
-3.75312e-05
17.4192
-3.29132e-05
17.2092
-2.88381e-05
17.0002
-2.52637e-05
16.7923
-2.21458e-05
16.5854
-1.94388e-05
16.3796
-1.70985e-05
16.1749
-1.50815e-05
15.9713
-1.33471e-05
15.7688
-1.18582e-05
15.5674
-1.058e-05
15.3672
-9.48128e-06
15.1682
-8.53207e-06
14.9703
-7.70793e-06
14.7737
-6.98675e-06
14.5782
-6.35056e-06
14.384
-5.7836e-06
14.191
-5.27273e-06
13.9993
-4.80607e-06
13.8088
-4.37332e-06
13.6196
-3.96741e-06
13.4317
-3.58113e-06
13.245
-3.2117e-06
13.0597
-2.85435e-06
12.8757
-2.50709e-06
12.693
-2.16684e-06
12.5117
-1.83124e-06
12.3317
-1.50044e-06
12.153
-1.16803e-06
11.9757
-8.43638e-07
11.7998
-5.04533e-07
11.6253
-2.03629e-07
11.4522
1.64385e-07
11.2804
4.08863e-07
11.1101
8.82836e-07
10.9411
9.30379e-07
10.7736
1.73859e-06
10.6075
1.2395e-06
10.4429
2.92478e-06
10.2796
1.06147e-06
10.1178
4.78771e-06
9.95743
-3.45012e-08
9.79853
7.8058e-06
9.64104
-2.44854e-06
9.48504
1.21675e-05
9.33045
-5.9779e-06
9.17738
1.70396e-05
9.0257
-9.18581e-06
8.87555
2.07734e-05
8.7268
-1.0984e-05
8.57959
2.40036e-05
8.43377
-1.40619e-05
8.28951
2.95351e-05
8.14662
-2.53134e-05
8.00532
4.61395e-05
7.86537
-2.90876e-05
7.72705
7.66642e-05
7.5902
6.91541e-05
7.45563
0.000553641
7.32536
0.00227405
7.21005
0.0111146
7.15235
0.0518336
7.2208
0.419945
0.766425
7.52032
10.7483
-0.000462398
10.7048
-0.000334055
10.6611
-0.000321881
10.6174
-0.000326277
10.5735
-0.000327493
10.5295
-0.000328316
10.4853
-0.000329069
10.4411
-0.000329794
10.3967
-0.000330321
10.3523
-0.000330601
10.3077
-0.000330978
10.263
-0.000331257
10.2183
-0.0003315
10.1734
-0.000331721
10.1285
-0.00033193
10.0834
-0.000332134
10.0382
-0.00033234
9.99299
-0.000332549
9.94763
-0.000332764
9.90215
-0.000332987
9.85657
-0.000333218
9.81088
-0.000333457
9.76507
-0.000333706
9.71915
-0.000333965
9.6731
-0.000334233
9.62693
-0.000334511
9.58065
-0.000334797
9.53423
-0.000335094
9.48769
-0.0003354
9.44102
-0.000335716
9.39422
-0.000336041
9.34729
-0.000336376
9.30023
-0.00033672
9.25303
-0.000337074
9.2057
-0.000337436
9.15823
-0.000337806
9.11062
-0.000338187
9.06288
-0.000338576
9.01499
-0.000338974
8.96697
-0.000339381
8.9188
-0.000339798
8.8705
-0.000340221
8.82205
-0.000340655
8.77347
-0.000341097
8.72474
-0.000341548
8.67587
-0.00034201
8.62686
-0.000342475
8.57771
-0.000342953
8.52842
-0.000343433