/*--------------------------------*- C++ -*----------------------------------*\
| =========                 |                                                 |
| \\      /  F ield         | OpenFOAM: The Open Source CFD Toolbox           |
|  \\    /   O peration     | Version:  3.0.x                                 |
|   \\  /    A nd           | Web:      www.OpenFOAM.org                      |
|    \\/     M anipulation  |                                                 |
\*---------------------------------------------------------------------------*/
FoamFile
{
    version     2.0;
    format      ascii;
    class       volScalarField;
    location    "0.54005";
    object      rho;
}
// * * * * * * * * * * * * * * * * * * * * * * * * * * * * * * * * * * * * * //

dimensions      [1 -3 0 0 0 0 0];

internalField   nonuniform List<scalar> 
13800
(
51.4203
51.4231
51.4274
51.4315
51.4355
51.4394
51.4432
51.4472
51.4513
51.4555
51.4598
51.4643
51.4689
51.4738
51.479
51.4844
51.49
51.4959
51.502
51.5083
51.515
51.5218
51.5289
51.5363
51.5439
51.5518
51.5599
51.5682
51.5768
51.5856
51.5947
51.604
51.6136
51.6234
51.6335
51.6437
51.6543
51.665
51.676
51.6873
51.6987
51.7104
51.7224
51.7345
51.7469
51.7595
51.7724
51.7855
51.7988
51.8123
51.826
51.84
51.8542
51.8685
51.8831
51.898
51.913
51.9282
51.9436
51.9592
51.9751
51.9911
52.0073
52.0237
52.0402
52.057
52.074
52.0912
52.1086
52.1262
52.1439
52.1618
52.1798
52.198
52.2163
52.2348
52.2535
52.2722
52.2912
52.3102
52.3295
52.3488
52.3683
52.3879
52.4076
52.4275
52.4475
52.4676
52.4879
52.5082
52.5286
52.5492
52.5698
52.5905
52.6112
52.6321
52.6529
52.6739
52.6949
52.7159
52.737
52.7582
52.7795
52.8008
52.8221
52.8435
52.8649
52.8864
52.9079
52.9293
52.9508
52.9723
52.9938
53.0153
53.0367
53.0582
53.0797
53.1011
53.1225
53.1439
53.1653
53.1866
53.2079
53.2292
53.2504
53.2716
53.2927
53.3138
53.3348
53.3558
53.3767
53.3975
53.4183
53.439
53.4596
53.4801
53.5006
53.521
53.5413
53.5615
53.5816
53.6016
53.6215
53.6414
53.6611
53.6807
53.7002
53.7196
53.7389
53.7581
53.7772
53.7962
53.815
53.8338
53.8524
53.8709
53.8892
53.9075
53.9256
53.9436
53.9614
53.9792
53.9968
54.0142
54.0316
54.0488
54.0658
54.0827
54.0995
54.1162
54.1327
54.1491
54.1653
54.1814
54.1974
54.2132
54.2289
54.2444
54.2598
54.275
54.2902
54.305
54.3201
54.3344
54.3494
54.3632
54.3781
54.3914
54.4062
54.4191
54.4338
54.4462
54.4607
54.4728
54.4869
54.4989
54.5125
54.5249
54.5364
54.5498
51.4213
51.4242
51.4284
51.4325
51.4366
51.4405
51.4443
51.4483
51.4524
51.4565
51.4608
51.4653
51.47
51.4749
51.48
51.4854
51.491
51.4969
51.503
51.5094
51.516
51.5228
51.5299
51.5373
51.5449
51.5528
51.5609
51.5692
51.5778
51.5866
51.5957
51.605
51.6146
51.6244
51.6344
51.6447
51.6552
51.666
51.677
51.6882
51.6997
51.7114
51.7233
51.7355
51.7478
51.7605
51.7733
51.7864
51.7997
51.8132
51.8269
51.8409
51.8551
51.8694
51.884
51.8989
51.9139
51.9291
51.9445
51.9601
51.976
51.992
52.0082
52.0245
52.0411
52.0579
52.0749
52.0921
52.1095
52.127
52.1447
52.1626
52.1807
52.1988
52.2172
52.2357
52.2543
52.2731
52.292
52.3111
52.3303
52.3496
52.3691
52.3887
52.4084
52.4283
52.4483
52.4684
52.4886
52.509
52.5294
52.5499
52.5705
52.5912
52.612
52.6328
52.6537
52.6746
52.6956
52.7167
52.7378
52.759
52.7802
52.8015
52.8228
52.8442
52.8656
52.8871
52.9085
52.93
52.9515
52.973
52.9945
53.0159
53.0374
53.0589
53.0803
53.1018
53.1232
53.1446
53.1659
53.1873
53.2086
53.2298
53.2511
53.2722
53.2934
53.3144
53.3355
53.3564
53.3773
53.3982
53.4189
53.4396
53.4602
53.4808
53.5012
53.5216
53.5419
53.5621
53.5822
53.6023
53.6222
53.642
53.6617
53.6814
53.7009
53.7203
53.7396
53.7588
53.7779
53.7968
53.8157
53.8344
53.853
53.8715
53.8899
53.9081
53.9262
53.9442
53.9621
53.9798
53.9974
54.0149
54.0322
54.0494
54.0665
54.0834
54.1002
54.1169
54.1334
54.1497
54.166
54.1821
54.198
54.2138
54.2296
54.245
54.2605
54.2756
54.2909
54.3056
54.3207
54.335
54.35
54.3639
54.3787
54.3921
54.4069
54.4197
54.4344
54.4468
54.4613
54.4734
54.4876
54.4995
54.5133
54.5249
54.5383
54.5492
51.4213
51.4242
51.4284
51.4325
51.4366
51.4405
51.4443
51.4483
51.4524
51.4565
51.4608
51.4653
51.47
51.4749
51.48
51.4854
51.491
51.4969
51.503
51.5094
51.516
51.5228
51.5299
51.5373
51.5449
51.5528
51.5609
51.5692
51.5778
51.5866
51.5957
51.605
51.6146
51.6244
51.6344
51.6447
51.6552
51.666
51.677
51.6882
51.6997
51.7114
51.7233
51.7355
51.7478
51.7605
51.7733
51.7864
51.7997
51.8132
51.8269
51.8409
51.8551
51.8694
51.884
51.8989
51.9139
51.9291
51.9445
51.9601
51.976
51.992
52.0082
52.0245
52.0411
52.0579
52.0749
52.0921
52.1095
52.127
52.1447
52.1626
52.1807
52.1988
52.2172
52.2357
52.2543
52.2731
52.292
52.3111
52.3303
52.3496
52.3691
52.3887
52.4084
52.4283
52.4483
52.4684
52.4886
52.509
52.5294
52.5499
52.5705
52.5912
52.612
52.6328
52.6537
52.6746
52.6956
52.7167
52.7378
52.759
52.7802
52.8015
52.8228
52.8442
52.8656
52.8871
52.9086
52.93
52.9515
52.973
52.9945
53.0159
53.0374
53.0589
53.0803
53.1018
53.1232
53.1446
53.1659
53.1873
53.2086
53.2298
53.2511
53.2722
53.2934
53.3144
53.3355
53.3564
53.3773
53.3982
53.4189
53.4396
53.4602
53.4808
53.5012
53.5216
53.5419
53.5621
53.5822
53.6023
53.6222
53.642
53.6617
53.6814
53.7009
53.7203
53.7396
53.7588
53.7779
53.7968
53.8157
53.8344
53.853
53.8715
53.8899
53.9081
53.9262
53.9442
53.9621
53.9798
53.9974
54.0149
54.0322
54.0494
54.0665
54.0834
54.1002
54.1169
54.1334
54.1497
54.166
54.1821
54.1981
54.2138
54.2296
54.245
54.2605
54.2756
54.2909
54.3056
54.3207
54.335
54.35
54.3639
54.3787
54.3921
54.4069
54.4197
54.4344
54.4468
54.4613
54.4734
54.4876
54.4995
54.5133
54.5249
54.5384
54.5493
51.4213
51.4242
51.4284
51.4325
51.4366
51.4405
51.4443
51.4482
51.4524
51.4565
51.4608
51.4653
51.47
51.4749
51.48
51.4854
51.491
51.4969
51.503
51.5093
51.516
51.5228
51.5299
51.5373
51.5449
51.5527
51.5608
51.5692
51.5778
51.5866
51.5957
51.605
51.6146
51.6244
51.6344
51.6447
51.6552
51.666
51.677
51.6882
51.6997
51.7114
51.7233
51.7355
51.7478
51.7605
51.7733
51.7864
51.7997
51.8132
51.8269
51.8409
51.8551
51.8694
51.884
51.8989
51.9139
51.9291
51.9445
51.9601
51.9759
51.992
52.0082
52.0245
52.0411
52.0579
52.0749
52.0921
52.1094
52.127
52.1447
52.1626
52.1807
52.1988
52.2172
52.2357
52.2543
52.2731
52.292
52.3111
52.3303
52.3496
52.3691
52.3887
52.4084
52.4283
52.4483
52.4684
52.4886
52.509
52.5294
52.5499
52.5705
52.5912
52.612
52.6328
52.6537
52.6746
52.6956
52.7167
52.7378
52.759
52.7802
52.8015
52.8228
52.8442
52.8656
52.8871
52.9086
52.93
52.9515
52.973
52.9945
53.0159
53.0374
53.0589
53.0803
53.1018
53.1232
53.1446
53.1659
53.1873
53.2086
53.2298
53.2511
53.2722
53.2934
53.3144
53.3355
53.3564
53.3773
53.3982
53.4189
53.4396
53.4602
53.4808
53.5012
53.5216
53.5419
53.5621
53.5822
53.6023
53.6222
53.642
53.6617
53.6814
53.7009
53.7203
53.7396
53.7588
53.7779
53.7968
53.8157
53.8344
53.853
53.8715
53.8899
53.9081
53.9262
53.9442
53.9621
53.9798
53.9974
54.0149
54.0322
54.0494
54.0665
54.0834
54.1002
54.1169
54.1334
54.1497
54.166
54.1821
54.198
54.2138
54.2296
54.245
54.2605
54.2756
54.2909
54.3056
54.3207
54.335
54.35
54.3639
54.3787
54.3921
54.4069
54.4197
54.4344
54.4468
54.4613
54.4734
54.4876
54.4995
54.5133
54.5249
54.5383
54.5498
51.4213
51.4242
51.4284
51.4325
51.4366
51.4405
51.4443
51.4482
51.4524
51.4565
51.4608
51.4653
51.4699
51.4748
51.48
51.4854
51.491
51.4969
51.503
51.5093
51.516
51.5228
51.5299
51.5373
51.5449
51.5527
51.5608
51.5692
51.5778
51.5866
51.5957
51.605
51.6146
51.6244
51.6344
51.6447
51.6552
51.666
51.677
51.6882
51.6997
51.7114
51.7233
51.7354
51.7478
51.7605
51.7733
51.7864
51.7997
51.8132
51.8269
51.8409
51.8551
51.8694
51.884
51.8988
51.9139
51.9291
51.9445
51.9601
51.9759
51.992
52.0082
52.0245
52.0411
52.0579
52.0749
52.0921
52.1094
52.127
52.1447
52.1626
52.1807
52.1988
52.2172
52.2357
52.2543
52.2731
52.292
52.3111
52.3303
52.3496
52.3691
52.3887
52.4084
52.4283
52.4483
52.4684
52.4886
52.509
52.5294
52.5499
52.5705
52.5912
52.612
52.6328
52.6537
52.6746
52.6956
52.7167
52.7378
52.759
52.7802
52.8015
52.8228
52.8442
52.8656
52.8871
52.9085
52.93
52.9515
52.973
52.9945
53.0159
53.0374
53.0589
53.0803
53.1018
53.1232
53.1446
53.1659
53.1873
53.2086
53.2298
53.2511
53.2722
53.2934
53.3144
53.3355
53.3564
53.3773
53.3982
53.4189
53.4396
53.4602
53.4808
53.5012
53.5216
53.5419
53.5621
53.5822
53.6023
53.6222
53.642
53.6617
53.6814
53.7009
53.7203
53.7396
53.7588
53.7779
53.7968
53.8157
53.8344
53.853
53.8715
53.8899
53.9081
53.9262
53.9442
53.9621
53.9798
53.9974
54.0149
54.0322
54.0494
54.0665
54.0834
54.1002
54.1169
54.1334
54.1497
54.166
54.1821
54.1981
54.2138
54.2296
54.245
54.2605
54.2756
54.2909
54.3056
54.3207
54.335
54.35
54.3638
54.3787
54.3921
54.4069
54.4197
54.4344
54.4468
54.4613
54.4734
54.4876
54.4994
54.5133
54.5249
54.5384
54.5495
51.4213
51.4242
51.4284
51.4325
51.4366
51.4405
51.4443
51.4482
51.4524
51.4565
51.4608
51.4653
51.4699
51.4748
51.48
51.4854
51.491
51.4969
51.503
51.5093
51.516
51.5228
51.5299
51.5373
51.5449
51.5527
51.5608
51.5692
51.5778
51.5866
51.5957
51.605
51.6146
51.6244
51.6344
51.6447
51.6552
51.666
51.677
51.6882
51.6997
51.7114
51.7233
51.7354
51.7478
51.7605
51.7733
51.7864
51.7997
51.8132
51.8269
51.8409
51.8551
51.8694
51.884
51.8988
51.9139
51.9291
51.9445
51.9601
51.9759
51.992
52.0082
52.0245
52.0411
52.0579
52.0749
52.0921
52.1094
52.127
52.1447
52.1626
52.1807
52.1988
52.2172
52.2357
52.2543
52.2731
52.292
52.3111
52.3303
52.3496
52.3691
52.3887
52.4084
52.4283
52.4483
52.4684
52.4886
52.509
52.5294
52.5499
52.5705
52.5912
52.612
52.6328
52.6537
52.6746
52.6956
52.7167
52.7378
52.759
52.7802
52.8015
52.8228
52.8442
52.8656
52.8871
52.9085
52.93
52.9515
52.973
52.9945
53.0159
53.0374
53.0589
53.0803
53.1018
53.1232
53.1446
53.1659
53.1873
53.2086
53.2298
53.2511
53.2722
53.2934
53.3144
53.3355
53.3564
53.3773
53.3982
53.4189
53.4396
53.4602
53.4808
53.5012
53.5216
53.5419
53.5621
53.5822
53.6023
53.6222
53.642
53.6617
53.6814
53.7009
53.7203
53.7396
53.7588
53.7779
53.7968
53.8157
53.8344
53.853
53.8715
53.8899
53.9081
53.9262
53.9442
53.9621
53.9798
53.9974
54.0149
54.0322
54.0494
54.0665
54.0834
54.1002
54.1169
54.1334
54.1497
54.166
54.1821
54.198
54.2139
54.2295
54.2451
54.2605
54.2757
54.2908
54.3057
54.3206
54.3353
54.3497
54.3643
54.3781
54.3929
54.406
54.4206
54.4336
54.4475
54.4608
54.4738
54.4873
54.4998
54.5128
54.5255
54.5379
54.5503
51.4213
51.4242
51.4284
51.4325
51.4366
51.4405
51.4443
51.4482
51.4524
51.4565
51.4608
51.4653
51.47
51.4749
51.48
51.4854
51.491
51.4969
51.503
51.5093
51.516
51.5228
51.5299
51.5373
51.5449
51.5527
51.5608
51.5692
51.5778
51.5866
51.5957
51.605
51.6146
51.6244
51.6344
51.6447
51.6552
51.666
51.677
51.6882
51.6997
51.7114
51.7233
51.7355
51.7478
51.7605
51.7733
51.7864
51.7997
51.8132
51.8269
51.8409
51.8551
51.8694
51.884
51.8989
51.9139
51.9291
51.9445
51.9601
51.9759
51.992
52.0082
52.0245
52.0411
52.0579
52.0749
52.0921
52.1094
52.127
52.1447
52.1626
52.1807
52.1988
52.2172
52.2357
52.2543
52.2731
52.292
52.3111
52.3303
52.3496
52.3691
52.3887
52.4084
52.4283
52.4483
52.4684
52.4886
52.509
52.5294
52.5499
52.5705
52.5912
52.612
52.6328
52.6537
52.6746
52.6956
52.7167
52.7378
52.759
52.7802
52.8015
52.8228
52.8442
52.8656
52.8871
52.9086
52.93
52.9515
52.973
52.9945
53.0159
53.0374
53.0589
53.0803
53.1018
53.1232
53.1446
53.1659
53.1873
53.2086
53.2298
53.2511
53.2722
53.2934
53.3144
53.3355
53.3564
53.3773
53.3982
53.4189
53.4396
53.4602
53.4808
53.5012
53.5216
53.5419
53.5621
53.5822
53.6023
53.6222
53.642
53.6617
53.6814
53.7009
53.7203
53.7396
53.7588
53.7779
53.7968
53.8157
53.8344
53.853
53.8715
53.8899
53.9081
53.9262
53.9442
53.9621
53.9798
53.9974
54.0149
54.0322
54.0494
54.0665
54.0834
54.1002
54.1169
54.1334
54.1498
54.166
54.1821
54.198
54.2139
54.2295
54.2451
54.2604
54.2758
54.2906
54.3059
54.3203
54.3355
54.3495
54.3645
54.378
54.3928
54.406
54.4207
54.4334
54.4479
54.4602
54.4745
54.4865
54.5005
54.5122
54.526
54.5376
54.5506
51.4213
51.4242
51.4284
51.4325
51.4366
51.4405
51.4443
51.4483
51.4524
51.4565
51.4608
51.4653
51.47
51.4749
51.48
51.4854
51.491
51.4969
51.503
51.5094
51.516
51.5228
51.5299
51.5373
51.5449
51.5528
51.5609
51.5692
51.5778
51.5866
51.5957
51.605
51.6146
51.6244
51.6344
51.6447
51.6552
51.666
51.677
51.6882
51.6997
51.7114
51.7233
51.7355
51.7478
51.7605
51.7733
51.7864
51.7997
51.8132
51.8269
51.8409
51.8551
51.8694
51.884
51.8989
51.9139
51.9291
51.9445
51.9601
51.976
51.992
52.0082
52.0245
52.0411
52.0579
52.0749
52.0921
52.1095
52.127
52.1447
52.1626
52.1807
52.1988
52.2172
52.2357
52.2543
52.2731
52.292
52.3111
52.3303
52.3496
52.3691
52.3887
52.4084
52.4283
52.4483
52.4684
52.4886
52.509
52.5294
52.5499
52.5705
52.5912
52.612
52.6328
52.6537
52.6746
52.6956
52.7167
52.7378
52.759
52.7802
52.8015
52.8228
52.8442
52.8656
52.8871
52.9086
52.93
52.9515
52.973
52.9945
53.0159
53.0374
53.0589
53.0803
53.1018
53.1232
53.1446
53.1659
53.1873
53.2086
53.2298
53.2511
53.2722
53.2934
53.3144
53.3355
53.3564
53.3773
53.3982
53.4189
53.4396
53.4602
53.4808
53.5012
53.5216
53.5419
53.5621
53.5822
53.6023
53.6222
53.642
53.6617
53.6814
53.7009
53.7203
53.7396
53.7588
53.7779
53.7968
53.8157
53.8344
53.853
53.8715
53.8899
53.9081
53.9262
53.9442
53.9621
53.9798
53.9974
54.0149
54.0322
54.0494
54.0665
54.0834
54.1002
54.1169
54.1334
54.1498
54.166
54.1821
54.198
54.2139
54.2295
54.2451
54.2604
54.2758
54.2906
54.306
54.3203
54.3355
54.3495
54.3645
54.378
54.3929
54.4059
54.4207
54.4333
54.4479
54.4602
54.4745
54.4865
54.5005
54.5122
54.526
54.5369
54.5507
51.4213
51.4242
51.4284
51.4325
51.4366
51.4405
51.4443
51.4483
51.4524
51.4565
51.4608
51.4653
51.47
51.4749
51.48
51.4854
51.491
51.4969
51.503
51.5094
51.516
51.5228
51.5299
51.5373
51.5449
51.5528
51.5609
51.5692
51.5778
51.5866
51.5957
51.605
51.6146
51.6244
51.6344
51.6447
51.6552
51.666
51.677
51.6882
51.6997
51.7114
51.7233
51.7355
51.7478
51.7605
51.7733
51.7864
51.7997
51.8132
51.8269
51.8409
51.8551
51.8694
51.884
51.8989
51.9139
51.9291
51.9445
51.9601
51.976
51.992
52.0082
52.0245
52.0411
52.0579
52.0749
52.0921
52.1095
52.127
52.1447
52.1626
52.1807
52.1988
52.2172
52.2357
52.2543
52.2731
52.292
52.3111
52.3303
52.3496
52.3691
52.3887
52.4084
52.4283
52.4483
52.4684
52.4886
52.509
52.5294
52.5499
52.5705
52.5912
52.612
52.6328
52.6537
52.6746
52.6956
52.7167
52.7378
52.759
52.7802
52.8015
52.8228
52.8442
52.8656
52.8871
52.9085
52.93
52.9515
52.973
52.9945
53.0159
53.0374
53.0589
53.0803
53.1018
53.1232
53.1446
53.1659
53.1873
53.2086
53.2298
53.2511
53.2722
53.2934
53.3144
53.3355
53.3564
53.3773
53.3982
53.4189
53.4396
53.4602
53.4808
53.5012
53.5216
53.5419
53.5621
53.5822
53.6023
53.6222
53.642
53.6617
53.6814
53.7009
53.7203
53.7396
53.7588
53.7779
53.7968
53.8157
53.8344
53.853
53.8715
53.8899
53.9081
53.9262
53.9442
53.9621
53.9798
53.9974
54.0149
54.0322
54.0494
54.0665
54.0834
54.1002
54.1169
54.1334
54.1498
54.166
54.1821
54.198
54.2139
54.2295
54.2451
54.2604
54.2758
54.2906
54.3059
54.3203
54.3355
54.3494
54.3645
54.378
54.3929
54.4059
54.4207
54.4333
54.4479
54.4602
54.4745
54.4865
54.5005
54.5122
54.526
54.5366
54.5504
51.4203
51.4231
51.4274
51.4315
51.4355
51.4394
51.4432
51.4472
51.4513
51.4555
51.4598
51.4643
51.4689
51.4738
51.479
51.4844
51.49
51.4959
51.502
51.5083
51.515
51.5218
51.5289
51.5363
51.5439
51.5518
51.5599
51.5682
51.5768
51.5856
51.5947
51.604
51.6136
51.6234
51.6335
51.6437
51.6543
51.665
51.676
51.6873
51.6987
51.7104
51.7224
51.7345
51.7469
51.7595
51.7724
51.7855
51.7988
51.8123
51.826
51.84
51.8542
51.8685
51.8831
51.898
51.913
51.9282
51.9436
51.9592
51.9751
51.9911
52.0073
52.0237
52.0402
52.057
52.074
52.0912
52.1086
52.1262
52.1439
52.1618
52.1798
52.198
52.2163
52.2348
52.2535
52.2722
52.2912
52.3102
52.3295
52.3488
52.3683
52.3879
52.4076
52.4275
52.4475
52.4676
52.4879
52.5082
52.5286
52.5492
52.5698
52.5905
52.6112
52.6321
52.6529
52.6739
52.6949
52.7159
52.737
52.7582
52.7795
52.8008
52.8221
52.8435
52.8649
52.8864
52.9079
52.9293
52.9508
52.9723
52.9938
53.0153
53.0367
53.0582
53.0797
53.1011
53.1225
53.1439
53.1653
53.1866
53.2079
53.2292
53.2504
53.2716
53.2927
53.3138
53.3348
53.3558
53.3767
53.3975
53.4183
53.439
53.4596
53.4801
53.5006
53.521
53.5413
53.5615
53.5816
53.6016
53.6215
53.6414
53.6611
53.6807
53.7002
53.7196
53.7389
53.7581
53.7772
53.7962
53.815
53.8338
53.8524
53.8709
53.8892
53.9075
53.9256
53.9436
53.9614
53.9792
53.9968
54.0142
54.0316
54.0488
54.0658
54.0827
54.0995
54.1162
54.1327
54.1491
54.1653
54.1814
54.1974
54.2132
54.2288
54.2445
54.2597
54.2751
54.29
54.3053
54.3197
54.3349
54.3488
54.3638
54.3773
54.3923
54.4053
54.4201
54.4327
54.4473
54.4595
54.4739
54.4859
54.4999
54.5115
54.5254
54.5356
54.5502
54.5574
54.56
54.5622
54.564
54.5656
54.5671
54.5686
54.5705
54.5725
54.5747
54.5769
54.5791
54.5813
54.5834
54.5855
54.5876
54.5896
54.5917
54.5937
54.5959
54.5569
54.5596
54.5619
54.5641
54.5662
54.5681
54.57
54.572
54.5739
54.5758
54.5778
54.5799
54.582
54.5842
54.5864
54.5886
54.5907
54.5928
54.5949
54.5972
54.5566
54.5595
54.5618
54.564
54.5662
54.5682
54.5703
54.5723
54.5741
54.5762
54.578
54.5802
54.5821
54.5843
54.5864
54.5887
54.5908
54.5931
54.5953
54.5975
54.5569
54.5594
54.5617
54.564
54.5662
54.5685
54.5706
54.5729
54.5748
54.577
54.5788
54.5808
54.5825
54.5843
54.5859
54.5878
54.5895
54.5914
54.5933
54.5955
54.5575
54.5601
54.5625
54.5648
54.567
54.5693
54.5715
54.5737
54.5759
54.5781
54.5804
54.5826
54.5848
54.587
54.5892
54.5914
54.5936
54.5957
54.5978
54.5998
54.5568
54.5588
54.5609
54.563
54.5651
54.5674
54.5696
54.5718
54.574
54.5762
54.5782
54.5804
54.5823
54.5843
54.586
54.5879
54.5895
54.5912
54.5929
54.5948
54.5578
54.5599
54.562
54.5643
54.5665
54.5687
54.5708
54.573
54.5752
54.5775
54.5797
54.5821
54.5843
54.5866
54.5889
54.5912
54.5935
54.5958
54.5981
54.6004
54.5564
54.5576
54.5591
54.5608
54.5628
54.565
54.5672
54.5695
54.5718
54.5741
54.5765
54.5789
54.5814
54.5839
54.5864
54.5888
54.5912
54.5935
54.5959
54.5982
54.5564
54.5579
54.5596
54.5615
54.5637
54.566
54.5685
54.571
54.5735
54.576
54.5785
54.5811
54.5837
54.5863
54.5889
54.5915
54.5941
54.5966
54.5991
54.6015
54.5562
54.5574
54.559
54.5611
54.5633
54.5657
54.5681
54.5706
54.5731
54.5755
54.5781
54.5806
54.5831
54.5856
54.5881
54.5905
54.593
54.5954
54.5979
54.6002
54.6003
54.6085
54.6176
54.6268
54.6354
54.6438
54.6521
54.6607
54.6693
54.6778
54.6861
54.6941
54.702
54.7098
54.7177
54.7256
54.7334
54.7411
54.7487
54.7562
54.7636
54.7709
54.7781
54.7853
54.7923
54.7993
54.8062
54.813
54.8198
54.8264
54.833
54.8395
54.846
54.8523
54.8585
54.8647
54.8708
54.8768
54.8827
54.8886
54.8944
54.9001
54.9058
54.9113
54.9168
54.9222
54.9275
54.9328
54.938
54.9431
54.9481
54.953
54.9579
54.9627
54.9674
54.972
54.9766
54.9811
54.9856
54.99
54.9943
54.9985
55.0027
55.0067
55.0107
55.0147
55.0186
55.0224
55.0262
55.0298
55.0334
55.037
55.0404
55.0438
55.0472
55.0505
55.0537
55.0569
55.0599
55.0629
55.0658
55.0687
55.0715
55.0743
55.077
55.0796
55.0822
55.0847
55.0872
55.0896
55.092
55.0943
55.0966
55.0988
55.1009
55.103
55.105
55.107
55.109
55.1109
55.1127
55.1145
55.1163
55.118
55.1196
55.1212
55.1228
55.1244
55.1259
55.1274
55.1288
55.1302
55.1315
55.1328
55.1343
55.1358
55.1374
55.139
55.1404
55.1417
55.1426
55.1434
55.1451
55.1475
55.1502
55.1523
55.1526
55.1464
55.1223
55.0874
55.0529
55.021
54.9937
54.9724
54.9581
54.9517
54.9515
54.9533
54.9602
54.9854
55.0314
55.0726
55.1057
55.1297
55.1457
55.1559
55.1626
55.1671
55.1697
55.1703
55.1692
55.1679
55.1672
55.1668
55.1666
55.1665
55.1665
55.1666
55.1667
55.1669
55.167
55.1672
55.1674
55.1675
55.1677
55.1678
55.1679
55.1681
55.1682
55.1683
55.1684
55.1685
55.1686
55.1687
55.1686
55.1688
55.1686
55.169
55.1686
55.169
55.1686
55.169
55.1685
55.1689
55.1684
55.1688
55.1683
55.1687
55.1681
55.1685
55.1679
55.1683
55.1677
55.168
55.1674
55.1678
55.1671
55.1675
55.1665
55.1667
54.602
54.6101
54.6187
54.6278
54.6367
54.6452
54.6536
54.6621
54.6707
54.6793
54.6877
54.6958
54.7037
54.7116
54.7195
54.7273
54.7352
54.7429
54.7505
54.758
54.7654
54.7727
54.78
54.7871
54.7942
54.8012
54.8081
54.8149
54.8217
54.8283
54.8349
54.8414
54.8479
54.8542
54.8605
54.8667
54.8727
54.8787
54.8847
54.8905
54.8963
54.9021
54.9077
54.9133
54.9188
54.9242
54.9295
54.9348
54.9399
54.945
54.9501
54.955
54.9599
54.9647
54.9694
54.974
54.9786
54.9831
54.9876
54.9919
54.9963
55.0005
55.0047
55.0088
55.0128
55.0167
55.0206
55.0244
55.0281
55.0318
55.0355
55.039
55.0425
55.0459
55.0492
55.0525
55.0557
55.0589
55.0619
55.065
55.0679
55.0708
55.0736
55.0763
55.079
55.0816
55.0842
55.0867
55.0892
55.0916
55.094
55.0963
55.0986
55.1008
55.1029
55.105
55.1071
55.1091
55.111
55.1129
55.1147
55.1165
55.1183
55.12
55.1216
55.1232
55.1248
55.1264
55.1278
55.1292
55.1307
55.132
55.1334
55.1348
55.1361
55.1374
55.1389
55.1403
55.1415
55.1425
55.1434
55.1443
55.1454
55.1471
55.1493
55.1521
55.1547
55.1571
55.1598
55.163
55.1663
55.1691
55.1706
55.1698
55.1647
55.1581
55.1512
55.1448
55.1394
55.1353
55.1347
55.1359
55.1381
55.1425
55.1478
55.1528
55.1573
55.1611
55.1639
55.1655
55.1661
55.1663
55.1664
55.1666
55.1667
55.1668
55.167
55.1671
55.1673
55.1675
55.1676
55.1678
55.1679
55.1681
55.1682
55.1684
55.1685
55.1687
55.1688
55.1689
55.169
55.1691
55.1691
55.1693
55.1692
55.1694
55.1692
55.1695
55.1692
55.1696
55.1692
55.1695
55.1691
55.1695
55.169
55.1694
55.1689
55.1692
55.1687
55.169
55.1685
55.1688
55.1683
55.1686
55.168
55.1683
55.1677
55.168
55.1673
55.1673
54.6023
54.6103
54.6188
54.6278
54.6366
54.6451
54.6534
54.6618
54.6704
54.679
54.6873
54.6954
54.7033
54.7112
54.7192
54.7271
54.7349
54.7426
54.7502
54.7577
54.7651
54.7724
54.7797
54.7868
54.7939
54.8009
54.8078
54.8146
54.8214
54.828
54.8346
54.8411
54.8475
54.8539
54.8602
54.8663
54.8724
54.8784
54.8844
54.8902
54.896
54.9017
54.9074
54.913
54.9185
54.9239
54.9292
54.9344
54.9396
54.9447
54.9497
54.9547
54.9596
54.9644
54.9691
54.9737
54.9783
54.9828
54.9872
54.9916
54.9959
55.0002
55.0044
55.0084
55.0124
55.0164
55.0203
55.0241
55.0278
55.0315
55.0351
55.0387
55.0421
55.0455
55.0489
55.0522
55.0554
55.0585
55.0616
55.0646
55.0676
55.0705
55.0733
55.076
55.0787
55.0813
55.0839
55.0864
55.0889
55.0913
55.0937
55.096
55.0983
55.1005
55.1027
55.1048
55.1068
55.1088
55.1107
55.1126
55.1145
55.1163
55.118
55.1197
55.1214
55.123
55.1245
55.1261
55.1275
55.129
55.1304
55.1317
55.1331
55.1344
55.1357
55.137
55.1384
55.1398
55.1411
55.1423
55.1432
55.1438
55.1445
55.1459
55.1484
55.1517
55.1556
55.1598
55.164
55.1679
55.1714
55.1747
55.1774
55.1791
55.1791
55.1761
55.1719
55.1673
55.1628
55.1588
55.1556
55.1535
55.1526
55.1529
55.1541
55.156
55.1582
55.1603
55.1621
55.1634
55.1645
55.1652
55.1657
55.1661
55.1664
55.1667
55.1669
55.1671
55.1672
55.1674
55.1676
55.1678
55.1679
55.1681
55.1682
55.1684
55.1685
55.1687
55.1688
55.1689
55.169
55.1691
55.1691
55.1693
55.1692
55.1694
55.1692
55.1695
55.1692
55.1696
55.1692
55.1695
55.1691
55.1695
55.169
55.1694
55.1689
55.1692
55.1687
55.169
55.1685
55.1688
55.1683
55.1686
55.168
55.1683
55.1677
55.168
55.1674
55.1675
54.6007
54.6093
54.6174
54.6257
54.6342
54.6427
54.6509
54.659
54.6671
54.6752
54.6834
54.6915
54.6994
54.7072
54.7149
54.7226
54.7303
54.7379
54.7455
54.753
54.7604
54.7677
54.7749
54.782
54.7891
54.7961
54.803
54.8098
54.8165
54.8232
54.8298
54.8363
54.8427
54.8491
54.8553
54.8615
54.8676
54.8736
54.8795
54.8854
54.8912
54.8969
54.9025
54.9081
54.9136
54.919
54.9243
54.9296
54.9348
54.9399
54.9449
54.9498
54.9547
54.9595
54.9642
54.9688
54.9734
54.9779
54.9824
54.9868
54.9911
54.9953
54.9995
55.0036
55.0076
55.0115
55.0154
55.0192
55.023
55.0267
55.0303
55.0338
55.0373
55.0407
55.0441
55.0473
55.0506
55.0537
55.0568
55.0597
55.0627
55.0655
55.0684
55.0711
55.0738
55.0765
55.079
55.0816
55.084
55.0865
55.0889
55.0912
55.0934
55.0956
55.0978
55.0999
55.1019
55.1039
55.1059
55.1078
55.1096
55.1114
55.1132
55.1149
55.1166
55.1183
55.1199
55.1214
55.1229
55.1244
55.1259
55.1274
55.1289
55.1305
55.132
55.1335
55.135
55.1362
55.1372
55.1382
55.1393
55.1406
55.1426
55.1452
55.1482
55.151
55.1537
55.1562
55.1587
55.1611
55.1632
55.1645
55.165
55.1647
55.1638
55.1627
55.1614
55.1602
55.1592
55.1585
55.1582
55.1582
55.1586
55.1593
55.1601
55.161
55.1619
55.1627
55.1634
55.1641
55.1646
55.165
55.1654
55.1657
55.166
55.1663
55.1665
55.1668
55.167
55.1672
55.1674
55.1676
55.1678
55.168
55.1682
55.1683
55.1685
55.1686
55.1688
55.1689
55.169
55.1691
55.1691
55.1692
55.1692
55.1694
55.1692
55.1695
55.1692
55.1695
55.1693
55.1694
55.1692
55.1694
55.169
55.1694
55.1688
55.1692
55.1687
55.169
55.1685
55.1688
55.1683
55.1686
55.168
55.1683
55.1677
55.168
55.1677
55.1675
54.6047
54.613
54.6215
54.6299
54.6383
54.6467
54.6552
54.6638
54.6723
54.6808
54.689
54.6971
54.705
54.7129
54.7208
54.7286
54.7364
54.744
54.7515
54.759
54.7664
54.7737
54.7809
54.7881
54.7952
54.8022
54.8091
54.816
54.8227
54.8294
54.836
54.8425
54.8489
54.8552
54.8615
54.8677
54.8738
54.8798
54.8858
54.8916
54.8974
54.9031
54.9088
54.9143
54.9198
54.9252
54.9305
54.9358
54.941
54.9461
54.9511
54.956
54.9609
54.9657
54.9704
54.9751
54.9797
54.9842
54.9886
54.993
54.9973
55.0015
55.0057
55.0097
55.0138
55.0177
55.0216
55.0254
55.0292
55.0328
55.0364
55.04
55.0434
55.0469
55.0502
55.0535
55.0567
55.0598
55.0629
55.0659
55.0689
55.0718
55.0746
55.0774
55.0801
55.0827
55.0853
55.0878
55.0902
55.0926
55.095
55.0973
55.0995
55.1017
55.1038
55.1059
55.108
55.11
55.1119
55.1138
55.1156
55.1174
55.1191
55.1208
55.1225
55.1241
55.1256
55.1271
55.1286
55.13
55.1314
55.1328
55.134
55.1353
55.1366
55.1378
55.139
55.1401
55.1412
55.1425
55.1436
55.1446
55.1453
55.1462
55.1472
55.1485
55.15
55.1517
55.1535
55.1552
55.1569
55.1583
55.1594
55.1601
55.1605
55.1607
55.1608
55.1608
55.1608
55.1609
55.161
55.1612
55.1615
55.1619
55.1622
55.1626
55.163
55.1634
55.1638
55.1642
55.1645
55.1649
55.1652
55.1655
55.1658
55.1661
55.1664
55.1666
55.1669
55.1671
55.1673
55.1676
55.1678
55.168
55.1681
55.1683
55.1685
55.1686
55.1687
55.1689
55.169
55.1691
55.1691
55.1692
55.1693
55.1693
55.1694
55.1693
55.1695
55.1693
55.1694
55.1694
55.1692
55.1694
55.1691
55.1693
55.1691
55.169
55.169
55.1687
55.1689
55.1684
55.1686
55.1684
55.1681
55.1682
55.1679
55.1677
55.1676
55.1675
54.6003
54.6085
54.6159
54.6231
54.6304
54.6377
54.6452
54.6527
54.6603
54.6678
54.6754
54.683
54.6906
54.6982
54.7058
54.7134
54.721
54.7285
54.736
54.7435
54.7508
54.7581
54.7654
54.7725
54.7796
54.7865
54.7934
54.8002
54.807
54.8136
54.8202
54.8267
54.8332
54.8395
54.8457
54.8519
54.858
54.864
54.8699
54.8758
54.8816
54.8873
54.893
54.8985
54.904
54.9095
54.9148
54.92
54.9252
54.9303
54.9353
54.9402
54.9451
54.9499
54.9546
54.9593
54.9639
54.9684
54.9729
54.9772
54.9816
54.9858
54.99
54.9941
54.9981
55.0021
55.006
55.0098
55.0135
55.0172
55.0209
55.0244
55.0279
55.0313
55.0346
55.0379
55.0411
55.0443
55.0473
55.0504
55.0533
55.0562
55.0591
55.0618
55.0646
55.0673
55.0699
55.0725
55.0751
55.0776
55.0801
55.0825
55.0849
55.0872
55.0894
55.0917
55.0939
55.0961
55.0983
55.1004
55.1024
55.1044
55.1063
55.1082
55.1101
55.112
55.1139
55.1158
55.1177
55.1195
55.1214
55.1231
55.1247
55.1261
55.1275
55.1287
55.13
55.1315
55.1332
55.1352
55.1374
55.1398
55.1424
55.145
55.1474
55.1496
55.1515
55.1532
55.1548
55.1563
55.1576
55.1587
55.1596
55.1603
55.1608
55.161
55.161
55.1609
55.1608
55.1607
55.1607
55.1608
55.1609
55.1612
55.1615
55.1619
55.1623
55.1627
55.1631
55.1635
55.1639
55.1643
55.1647
55.1651
55.1654
55.1658
55.1661
55.1664
55.1667
55.1669
55.1672
55.1674
55.1677
55.1679
55.1681
55.1683
55.1684
55.1686
55.1687
55.1688
55.169
55.169
55.1692
55.1691
55.1693
55.1692
55.1695
55.1692
55.1695
55.1692
55.1695
55.1692
55.1695
55.1691
55.1694
55.1689
55.1693
55.1688
55.1691
55.1686
55.1689
55.1684
55.1687
55.1681
55.1684
55.1679
55.1681
55.1676
55.1678
55.1673
54.6074
54.6173
54.6266
54.6355
54.6442
54.6527
54.6613
54.6697
54.6782
54.6865
54.6948
54.703
54.7111
54.7191
54.7271
54.7349
54.7427
54.7504
54.758
54.7655
54.7729
54.7802
54.7875
54.7947
54.8018
54.8088
54.8158
54.8227
54.8295
54.8362
54.8428
54.8493
54.8558
54.8621
54.8684
54.8746
54.8807
54.8868
54.8927
54.8986
54.9044
54.9101
54.9157
54.9213
54.9268
54.9322
54.9375
54.9428
54.9479
54.953
54.958
54.963
54.9678
54.9726
54.9774
54.982
54.9866
54.9911
54.9956
54.9999
55.0042
55.0084
55.0126
55.0167
55.0207
55.0246
55.0285
55.0323
55.036
55.0397
55.0433
55.0468
55.0503
55.0537
55.0571
55.0603
55.0635
55.0667
55.0697
55.0727
55.0757
55.0786
55.0814
55.0842
55.0869
55.0895
55.0921
55.0947
55.0971
55.0995
55.1019
55.1042
55.1064
55.1086
55.1108
55.1129
55.115
55.117
55.1189
55.1208
55.1227
55.1245
55.1262
55.128
55.1296
55.1312
55.1328
55.1344
55.1359
55.1373
55.1387
55.1401
55.1415
55.1428
55.144
55.1451
55.1463
55.1476
55.1488
55.1497
55.1506
55.1516
55.1525
55.1534
55.1544
55.1554
55.1563
55.1566
55.1569
55.1571
55.1574
55.1578
55.1589
55.1605
55.1628
55.165
55.1666
55.1673
55.1672
55.1664
55.1655
55.1647
55.164
55.1635
55.1633
55.1632
55.1632
55.1633
55.1636
55.1638
55.1641
55.1645
55.1648
55.1651
55.1655
55.1658
55.1661
55.1664
55.1667
55.1669
55.1672
55.1674
55.1677
55.1679
55.1681
55.1682
55.1684
55.1686
55.1687
55.1688
55.169
55.169
55.1692
55.1691
55.1693
55.1692
55.1695
55.1692
55.1695
55.1692
55.1695
55.1692
55.1695
55.1691
55.1694
55.1689
55.1693
55.1688
55.1691
55.1686
55.1689
55.1684
55.1687
55.1681
55.1684
55.1679
55.1681
55.1678
55.1676
55.1674
54.6059
54.6142
54.6218
54.6289
54.6358
54.6427
54.6497
54.6567
54.6637
54.6708
54.6779
54.6851
54.6923
54.6996
54.7069
54.7143
54.7217
54.7292
54.7366
54.744
54.7514
54.7586
54.7659
54.773
54.7801
54.7871
54.794
54.8008
54.8075
54.8142
54.8208
54.8273
54.8337
54.8401
54.8464
54.8525
54.8586
54.8646
54.8705
54.8764
54.8822
54.8879
54.8936
54.8991
54.9046
54.9101
54.9154
54.9207
54.9259
54.931
54.936
54.9409
54.9458
54.9506
54.9553
54.96
54.9647
54.9692
54.9737
54.9781
54.9825
54.9868
54.991
54.9951
54.9992
55.0033
55.0072
55.011
55.0148
55.0186
55.0222
55.0259
55.0294
55.0328
55.0362
55.0395
55.0427
55.0458
55.0489
55.0519
55.0548
55.0576
55.0604
55.0631
55.0658
55.0685
55.0711
55.0737
55.0762
55.0787
55.0811
55.0835
55.0859
55.0882
55.0905
55.0927
55.0949