/*--------------------------------*- C++ -*----------------------------------*\
| =========                 |                                                 |
| \\      /  F ield         | OpenFOAM: The Open Source CFD Toolbox           |
|  \\    /   O peration     | Version:  3.0.x                                 |
|   \\  /    A nd           | Web:      www.OpenFOAM.org                      |
|    \\/     M anipulation  |                                                 |
\*---------------------------------------------------------------------------*/
FoamFile
{
    version     2.0;
    format      ascii;
    class       volScalarField;
    location    "0.54005";
    object      T;
}
// * * * * * * * * * * * * * * * * * * * * * * * * * * * * * * * * * * * * * //

dimensions      [0 0 0 1 0 0 0];

internalField   nonuniform List<scalar> 
13800
(
776.115
776.097
776.076
776.06
776.046
776.04
776.039
776.04
776.043
776.051
776.061
776.073
776.086
776.1
776.116
776.132
776.149
776.167
776.185
776.204
776.224
776.245
776.266
776.288
776.311
776.335
776.36
776.385
776.411
776.437
776.464
776.493
776.521
776.551
776.581
776.612
776.644
776.676
776.709
776.743
776.778
776.813
776.849
776.885
776.923
776.961
776.999
777.039
777.079
777.119
777.16
777.202
777.245
777.288
777.332
777.376
777.421
777.467
777.514
777.561
777.608
777.656
777.705
777.755
777.805
777.855
777.906
777.957
778.008
778.059
778.112
778.164
778.218
778.272
778.327
778.382
778.438
778.494
778.551
778.608
778.665
778.723
778.781
778.839
778.898
778.957
779.016
779.075
779.134
779.193
779.253
779.313
779.373
779.434
779.495
779.557
779.619
779.681
779.743
779.806
779.869
779.932
779.995
780.057
780.12
780.182
780.245
780.308
780.37
780.433
780.496
780.56
780.623
780.686
780.749
780.812
780.876
780.939
781.002
781.065
781.128
781.191
781.253
781.316
781.378
781.441
781.503
781.565
781.627
781.688
781.75
781.811
781.872
781.933
781.993
782.054
782.114
782.173
782.233
782.292
782.351
782.41
782.468
782.526
782.584
782.641
782.698
782.755
782.811
782.867
782.923
782.978
783.033
783.088
783.142
783.196
783.25
783.303
783.356
783.408
783.46
783.512
783.563
783.614
783.664
783.714
783.764
783.813
783.862
783.91
783.958
784.006
784.053
784.1
784.146
784.192
784.237
784.283
784.326
784.372
784.413
784.46
784.499
784.547
784.582
784.631
784.664
784.715
784.743
784.797
784.821
784.876
784.899
784.953
784.975
785.027
785.052
785.091
785.142
785.158
776.099
776.081
776.06
776.044
776.031
776.024
776.023
776.024
776.028
776.035
776.045
776.057
776.071
776.085
776.1
776.117
776.134
776.151
776.17
776.189
776.209
776.23
776.251
776.274
776.296
776.32
776.345
776.37
776.396
776.422
776.45
776.478
776.507
776.536
776.567
776.598
776.629
776.662
776.695
776.729
776.764
776.799
776.835
776.871
776.909
776.947
776.985
777.025
777.065
777.105
777.147
777.189
777.231
777.275
777.319
777.363
777.408
777.454
777.5
777.547
777.595
777.643
777.692
777.742
777.792
777.843
777.893
777.944
777.995
778.047
778.099
778.152
778.205
778.26
778.314
778.37
778.426
778.482
778.539
778.596
778.653
778.711
778.769
778.827
778.886
778.945
779.004
779.063
779.122
779.182
779.242
779.302
779.362
779.423
779.484
779.546
779.608
779.67
779.732
779.795
779.858
779.921
779.984
780.047
780.109
780.172
780.235
780.297
780.36
780.423
780.486
780.549
780.613
780.676
780.739
780.803
780.866
780.929
780.992
781.055
781.118
781.181
781.244
781.306
781.369
781.431
781.493
781.555
781.617
781.679
781.74
781.801
781.862
781.923
781.984
782.044
782.104
782.164
782.223
782.282
782.341
782.4
782.458
782.516
782.574
782.631
782.688
782.745
782.802
782.858
782.913
782.969
783.024
783.078
783.133
783.187
783.24
783.293
783.346
783.399
783.451
783.502
783.553
783.604
783.655
783.705
783.754
783.804
783.852
783.901
783.949
783.996
784.043
784.09
784.136
784.183
784.227
784.273
784.317
784.363
784.404
784.451
784.489
784.537
784.573
784.622
784.654
784.705
784.734
784.787
784.812
784.867
784.89
784.944
784.966
785.018
785.04
785.092
785.115
785.167
776.099
776.081
776.06
776.044
776.031
776.024
776.023
776.024
776.028
776.035
776.045
776.057
776.071
776.085
776.1
776.117
776.134
776.151
776.17
776.189
776.209
776.23
776.251
776.273
776.296
776.32
776.345
776.37
776.396
776.422
776.45
776.478
776.507
776.536
776.567
776.598
776.629
776.662
776.695
776.729
776.764
776.799
776.835
776.871
776.909
776.947
776.985
777.025
777.065
777.105
777.147
777.189
777.231
777.275
777.319
777.363
777.408
777.454
777.5
777.547
777.595
777.643
777.692
777.742
777.792
777.843
777.893
777.944
777.995
778.047
778.099
778.152
778.205
778.259
778.314
778.37
778.426
778.482
778.539
778.596
778.653
778.711
778.769
778.827
778.886
778.945
779.004
779.063
779.122
779.182
779.242
779.302
779.362
779.423
779.484
779.545
779.607
779.67
779.732
779.795
779.858
779.921
779.984
780.047
780.109
780.172
780.235
780.297
780.36
780.423
780.486
780.549
780.613
780.676
780.739
780.803
780.866
780.929
780.992
781.055
781.118
781.181
781.244
781.306
781.369
781.431
781.493
781.555
781.617
781.679
781.74
781.801
781.862
781.923
781.984
782.044
782.104
782.164
782.223
782.282
782.341
782.4
782.458
782.516
782.574
782.631
782.688
782.745
782.802
782.858
782.913
782.969
783.024
783.078
783.133
783.187
783.24
783.293
783.346
783.399
783.451
783.502
783.553
783.604
783.655
783.705
783.754
783.804
783.852
783.901
783.949
783.996
784.043
784.09
784.136
784.183
784.227
784.273
784.317
784.363
784.404
784.451
784.489
784.537
784.573
784.622
784.654
784.705
784.734
784.787
784.812
784.867
784.89
784.944
784.966
785.018
785.04
785.092
785.114
785.166
776.099
776.081
776.06
776.044
776.031
776.024
776.023
776.024
776.028
776.035
776.046
776.057
776.071
776.085
776.1
776.117
776.134
776.151
776.17
776.189
776.209
776.23
776.251
776.274
776.297
776.32
776.345
776.37
776.396
776.423
776.45
776.478
776.507
776.536
776.567
776.598
776.63
776.662
776.695
776.729
776.764
776.799
776.835
776.871
776.909
776.947
776.985
777.025
777.065
777.105
777.147
777.189
777.231
777.275
777.319
777.363
777.408
777.454
777.5
777.547
777.595
777.643
777.692
777.742
777.792
777.843
777.893
777.944
777.995
778.047
778.099
778.152
778.205
778.26
778.314
778.37
778.426
778.482
778.539
778.596
778.653
778.711
778.769
778.827
778.886
778.945
779.004
779.063
779.122
779.182
779.242
779.302
779.362
779.423
779.484
779.546
779.607
779.67
779.732
779.795
779.858
779.921
779.984
780.047
780.109
780.172
780.235
780.297
780.36
780.423
780.486
780.549
780.613
780.676
780.739
780.803
780.866
780.929
780.992
781.055
781.118
781.181
781.244
781.306
781.369
781.431
781.493
781.555
781.617
781.679
781.74
781.801
781.862
781.923
781.984
782.044
782.104
782.164
782.223
782.282
782.341
782.4
782.458
782.516
782.574
782.631
782.688
782.745
782.802
782.858
782.913
782.969
783.024
783.078
783.133
783.187
783.24
783.293
783.346
783.399
783.451
783.502
783.553
783.604
783.655
783.705
783.754
783.804
783.852
783.901
783.949
783.996
784.043
784.09
784.136
784.183
784.227
784.273
784.317
784.363
784.404
784.451
784.489
784.537
784.573
784.622
784.654
784.705
784.734
784.787
784.812
784.867
784.89
784.944
784.966
785.018
785.04
785.091
785.115
785.159
776.099
776.081
776.06
776.044
776.031
776.024
776.023
776.025
776.028
776.035
776.046
776.058
776.071
776.085
776.101
776.117
776.134
776.151
776.17
776.189
776.209
776.23
776.251
776.274
776.297
776.32
776.345
776.37
776.396
776.423
776.45
776.478
776.507
776.537
776.567
776.598
776.63
776.662
776.695
776.729
776.764
776.799
776.835
776.871
776.909
776.947
776.985
777.025
777.065
777.106
777.147
777.189
777.231
777.275
777.319
777.363
777.408
777.454
777.5
777.547
777.595
777.643
777.692
777.742
777.792
777.843
777.893
777.944
777.995
778.047
778.099
778.152
778.205
778.26
778.314
778.37
778.426
778.482
778.539
778.596
778.653
778.711
778.769
778.827
778.886
778.945
779.004
779.063
779.122
779.182
779.242
779.302
779.362
779.423
779.484
779.546
779.608
779.67
779.732
779.795
779.858
779.921
779.984
780.047
780.109
780.172
780.235
780.297
780.36
780.423
780.486
780.549
780.613
780.676
780.739
780.803
780.866
780.929
780.992
781.055
781.118
781.181
781.244
781.306
781.369
781.431
781.493
781.555
781.617
781.679
781.74
781.801
781.862
781.923
781.984
782.044
782.104
782.164
782.223
782.282
782.341
782.4
782.458
782.516
782.574
782.631
782.688
782.745
782.802
782.858
782.913
782.969
783.024
783.078
783.133
783.187
783.24
783.293
783.346
783.399
783.451
783.502
783.553
783.604
783.655
783.705
783.754
783.804
783.852
783.901
783.949
783.996
784.043
784.09
784.136
784.183
784.227
784.273
784.317
784.363
784.404
784.451
784.489
784.537
784.573
784.622
784.654
784.706
784.734
784.787
784.812
784.867
784.89
784.943
784.966
785.019
785.04
785.092
785.114
785.166
776.099
776.081
776.06
776.044
776.031
776.024
776.023
776.025
776.028
776.035
776.046
776.058
776.071
776.085
776.101
776.117
776.134
776.151
776.17
776.189
776.209
776.23
776.251
776.274
776.297
776.32
776.345
776.37
776.396
776.423
776.45
776.478
776.507
776.537
776.567
776.598
776.63
776.662
776.695
776.729
776.764
776.799
776.835
776.871
776.909
776.947
776.985
777.025
777.065
777.106
777.147
777.189
777.231
777.275
777.319
777.363
777.408
777.454
777.5
777.547
777.595
777.643
777.692
777.742
777.792
777.843
777.893
777.944
777.995
778.047
778.099
778.152
778.205
778.26
778.314
778.37
778.426
778.482
778.539
778.596
778.653
778.711
778.769
778.827
778.886
778.945
779.004
779.063
779.122
779.182
779.242
779.302
779.362
779.423
779.484
779.546
779.608
779.67
779.732
779.795
779.858
779.921
779.984
780.047
780.109
780.172
780.235
780.297
780.36
780.423
780.486
780.549
780.613
780.676
780.739
780.803
780.866
780.929
780.992
781.055
781.118
781.181
781.244
781.306
781.369
781.431
781.493
781.555
781.617
781.679
781.74
781.801
781.862
781.923
781.984
782.044
782.104
782.164
782.223
782.282
782.341
782.4
782.458
782.516
782.574
782.631
782.688
782.745
782.802
782.858
782.913
782.969
783.024
783.078
783.133
783.187
783.24
783.293
783.346
783.399
783.451
783.502
783.553
783.604
783.655
783.705
783.754
783.804
783.852
783.901
783.949
783.996
784.043
784.09
784.136
784.182
784.228
784.273
784.317
784.362
784.405
784.449
784.491
784.534
784.577
784.615
784.663
784.694
784.746
784.775
784.823
784.857
784.897
784.938
784.969
785.014
785.048
785.083
785.12
785.155
776.099
776.081
776.06
776.044
776.031
776.024
776.023
776.024
776.028
776.035
776.046
776.057
776.071
776.085
776.1
776.117
776.134
776.151
776.17
776.189
776.209
776.23
776.251
776.274
776.297
776.32
776.345
776.37
776.396
776.423
776.45
776.478
776.507
776.536
776.567
776.598
776.63
776.662
776.695
776.729
776.764
776.799
776.835
776.871
776.909
776.947
776.985
777.025
777.065
777.105
777.147
777.189
777.231
777.275
777.319
777.363
777.408
777.454
777.5
777.547
777.595
777.643
777.692
777.742
777.792
777.843
777.893
777.944
777.995
778.047
778.099
778.152
778.205
778.26
778.314
778.37
778.426
778.482
778.539
778.596
778.653
778.711
778.769
778.827
778.886
778.945
779.004
779.063
779.122
779.182
779.242
779.302
779.362
779.423
779.484
779.546
779.607
779.67
779.732
779.795
779.858
779.921
779.984
780.047
780.109
780.172
780.235
780.297
780.36
780.423
780.486
780.549
780.613
780.676
780.739
780.803
780.866
780.929
780.992
781.055
781.118
781.181
781.244
781.306
781.369
781.431
781.493
781.555
781.617
781.679
781.74
781.801
781.862
781.923
781.984
782.044
782.104
782.164
782.223
782.282
782.341
782.4
782.458
782.516
782.574
782.631
782.688
782.745
782.802
782.858
782.913
782.969
783.024
783.078
783.133
783.187
783.24
783.293
783.346
783.399
783.451
783.502
783.553
783.604
783.655
783.705
783.754
783.804
783.852
783.901
783.949
783.996
784.043
784.09
784.137
784.182
784.228
784.272
784.318
784.36
784.408
784.446
784.495
784.53
784.58
784.613
784.664
784.695
784.746
784.774
784.827
784.851
784.906
784.928
784.981
785.003
785.055
785.076
785.125
785.154
776.099
776.081
776.06
776.044
776.031
776.024
776.023
776.024
776.028
776.035
776.045
776.057
776.071
776.085
776.1
776.117
776.134
776.151
776.17
776.189
776.209
776.23
776.251
776.273
776.296
776.32
776.345
776.37
776.396
776.422
776.45
776.478
776.507
776.536
776.567
776.598
776.629
776.662
776.695
776.729
776.764
776.799
776.835
776.871
776.909
776.947
776.985
777.025
777.065
777.105
777.147
777.189
777.231
777.275
777.319
777.363
777.408
777.454
777.5
777.547
777.595
777.643
777.692
777.742
777.792
777.843
777.893
777.944
777.995
778.047
778.099
778.152
778.205
778.259
778.314
778.37
778.426
778.482
778.539
778.596
778.653
778.711
778.769
778.827
778.886
778.945
779.004
779.063
779.122
779.182
779.242
779.302
779.362
779.423
779.484
779.545
779.607
779.67
779.732
779.795
779.858
779.921
779.984
780.047
780.109
780.172
780.235
780.297
780.36
780.423
780.486
780.549
780.613
780.676
780.739
780.803
780.866
780.929
780.992
781.055
781.118
781.181
781.244
781.306
781.369
781.431
781.493
781.555
781.617
781.679
781.74
781.801
781.862
781.923
781.984
782.044
782.104
782.164
782.223
782.282
782.341
782.4
782.458
782.516
782.574
782.631
782.688
782.745
782.802
782.858
782.913
782.969
783.024
783.078
783.133
783.187
783.24
783.293
783.346
783.399
783.451
783.502
783.553
783.604
783.655
783.705
783.754
783.804
783.852
783.901
783.949
783.996
784.043
784.09
784.137
784.182
784.228
784.272
784.319
784.36
784.408
784.446
784.495
784.53
784.581
784.613
784.665
784.694
784.747
784.773
784.827
784.851
784.906
784.928
784.981
785.003
785.056
785.076
785.135
785.153
776.099
776.081
776.06
776.044
776.031
776.024
776.023
776.024
776.028
776.035
776.045
776.057
776.071
776.085
776.1
776.117
776.134
776.151
776.17
776.189
776.209
776.23
776.251
776.274
776.296
776.32
776.345
776.37
776.396
776.422
776.45
776.478
776.507
776.536
776.567
776.598
776.629
776.662
776.695
776.729
776.764
776.799
776.835
776.871
776.909
776.947
776.985
777.025
777.065
777.105
777.147
777.189
777.231
777.275
777.319
777.363
777.408
777.454
777.5
777.547
777.595
777.643
777.692
777.742
777.792
777.843
777.893
777.944
777.995
778.047
778.099
778.152
778.205
778.26
778.314
778.37
778.426
778.482
778.539
778.596
778.653
778.711
778.769
778.827
778.886
778.945
779.004
779.063
779.122
779.182
779.242
779.302
779.362
779.423
779.484
779.546
779.608
779.67
779.732
779.795
779.858
779.921
779.984
780.047
780.109
780.172
780.235
780.297
780.36
780.423
780.486
780.549
780.613
780.676
780.739
780.803
780.866
780.929
780.992
781.055
781.118
781.181
781.244
781.306
781.369
781.431
781.493
781.555
781.617
781.679
781.74
781.801
781.862
781.923
781.984
782.044
782.104
782.164
782.223
782.282
782.341
782.4
782.458
782.516
782.574
782.631
782.688
782.745
782.802
782.858
782.913
782.969
783.024
783.078
783.133
783.187
783.24
783.293
783.346
783.399
783.451
783.502
783.553
783.604
783.655
783.705
783.754
783.804
783.852
783.901
783.949
783.996
784.043
784.09
784.137
784.182
784.228
784.272
784.319
784.36
784.408
784.446
784.495
784.53
784.581
784.613
784.665
784.693
784.747
784.773
784.828
784.851
784.906
784.928
784.981
785.003
785.056
785.076
785.139
785.158
776.115
776.097
776.076
776.06
776.046
776.04
776.039
776.04
776.043
776.051
776.061
776.073
776.086
776.1
776.116
776.132
776.149
776.167
776.185
776.204
776.224
776.245
776.266
776.288
776.311
776.335
776.36
776.385
776.411
776.437
776.464
776.493
776.521
776.551
776.581
776.612
776.644
776.676
776.709
776.743
776.778
776.813
776.849
776.885
776.923
776.961
776.999
777.039
777.079
777.119
777.16
777.202
777.245
777.288
777.332
777.376
777.421
777.467
777.514
777.561
777.608
777.656
777.705
777.755
777.805
777.855
777.906
777.957
778.008
778.059
778.112
778.164
778.218
778.272
778.327
778.382
778.438
778.494
778.551
778.608
778.665
778.723
778.781
778.839
778.898
778.957
779.016
779.075
779.134
779.193
779.253
779.313
779.373
779.434
779.495
779.557
779.619
779.681
779.743
779.806
779.869
779.932
779.995
780.057
780.12
780.182
780.245
780.308
780.37
780.433
780.496
780.56
780.623
780.686
780.749
780.812
780.876
780.939
781.002
781.065
781.128
781.191
781.253
781.316
781.378
781.441
781.503
781.565
781.627
781.688
781.75
781.811
781.872
781.933
781.993
782.054
782.114
782.173
782.233
782.292
782.351
782.41
782.468
782.526
782.584
782.641
782.698
782.755
782.811
782.867
782.923
782.978
783.033
783.088
783.142
783.196
783.25
783.303
783.356
783.408
783.46
783.512
783.563
783.614
783.664
783.714
783.764
783.813
783.862
783.91
783.958
784.006
784.053
784.1
784.146
784.192
784.238
784.282
784.328
784.37
784.417
784.455
784.504
784.54
784.59
784.622
784.674
784.703
784.757
784.782
784.837
784.86
784.915
784.937
784.991
785.013
785.066
785.085
785.154
785.161
785.182
785.193
785.205
785.219
785.237
785.255
785.272
785.285
785.295
785.303
785.31
785.317
785.324
785.331
785.338
785.345
785.354
785.361
785.369
785.375
785.187
785.198
785.207
785.217
785.227
785.239
785.251
785.263
785.275
785.286
785.296
785.305
785.312
785.318
785.324
785.33
785.337
785.343
785.349
785.354
785.191
785.199
785.209
785.218
785.226
785.237
785.247
785.257
785.27
785.28
785.292
785.3
785.311
785.316
785.324
785.327
785.334
785.337
785.344
785.35
785.183
785.191
785.201
785.209
785.218
785.225
785.234
785.241
785.252
785.259
785.271
785.281
785.296
785.306
785.32
785.329
785.341
785.349
785.357
785.363
785.184
785.19
785.198
785.203
785.211
785.216
785.223
785.229
785.234
785.241
785.246
785.253
785.258
785.264
785.27
785.277
785.283
785.29
785.296
785.303
785.178
785.183
785.19
785.196
785.203
785.209
785.217
785.224
785.232
785.239
785.248
785.256
785.266
785.275
785.287
785.297
785.31
785.321
785.333
785.343
785.177
785.182
785.188
785.193
785.198
785.202
785.207
785.211
785.216
785.219
785.224
785.227
785.232
785.235
785.239
785.243
785.247
785.252
785.255
785.26
785.174
785.177
785.182
785.187
785.192
785.198
785.204
785.209
785.214
785.219
785.224
785.228
785.232
785.236
785.24
785.245
785.252
785.259
785.265
785.271
785.171
785.173
785.176
785.18
785.183
785.185
785.187
785.189
785.191
785.192
785.194
785.196
785.198
785.2
785.203
785.206
785.209
785.212
785.217
785.222
785.168
785.167
785.168
785.169
785.171
785.173
785.175
785.177
785.18
785.183
785.185
785.189
785.192
785.196
785.201
785.207
785.213
785.22
785.226
785.233
785.388
785.415
785.432
785.448
785.47
785.496
785.52
785.541
785.56
785.578
785.6
785.624
785.649
785.672
785.694
785.715
785.735
785.756
785.778
785.799
785.82
785.841
785.862
785.882
785.902
785.923
785.943
785.962
785.982
786.001
786.02
786.038
786.057
786.075
786.093
786.112
786.129
786.147
786.164
786.181
786.197
786.213
786.229
786.245
786.261
786.277
786.292
786.307
786.321
786.336
786.35
786.365
786.379
786.393
786.407
786.421
786.434
786.447
786.459
786.471
786.484
786.496
786.508
786.52
786.531
786.543
786.554
786.565
786.575
786.586
786.596
786.606
786.616
786.626
786.635
786.644
786.653
786.662
786.671
786.68
786.689
786.698
786.706
786.714
786.722
786.729
786.737
786.744
786.751
786.758
786.765
786.772
786.778
786.784
786.79
786.796
786.803
786.809
786.814
786.82
786.825
786.83
786.835
786.84
786.845
786.85
786.854
786.858
786.862
786.865
786.869
786.874
786.878
786.881
786.882
786.881
786.879
786.877
786.875
786.876
786.882
786.888
786.882
786.865
786.843
786.829
786.84
786.944
787.303
787.816
788.324
788.794
789.199
789.518
789.734
789.838
789.853
789.837
789.748
789.395
788.745
788.163
787.699
787.364
787.143
787.005
786.917
786.86
786.831
786.828
786.851
786.876
786.892
786.903
786.912
786.918
786.923
786.926
786.929
786.931
786.933
786.934
786.936
786.937
786.938
786.939
786.94
786.94
786.941
786.941
786.942
786.942
786.943
786.942
786.944
786.942
786.945
786.941
786.946
786.94
786.946
786.94
786.946
786.94
786.947
786.939
786.946
786.939
786.946
786.938
786.945
786.938
786.944
786.937
786.943
786.936
786.943
786.934
786.946
786.94
785.363
785.391
785.416
785.433
785.452
785.476
785.5
785.521
785.54
785.558
785.577
785.599
785.623
785.647
785.669
785.69
785.71
785.731
785.751
785.772
785.793
785.814
785.835
785.855
785.875
785.895
785.915
785.935
785.954
785.973
785.992
786.011
786.029
786.047
786.065
786.083
786.101
786.119
786.136
786.153
786.17
786.186
786.202
786.217
786.233
786.248
786.264
786.279
786.293
786.308
786.322
786.336
786.35
786.364
786.378
786.392
786.405
786.418
786.431
786.443
786.455
786.467
786.479
786.491
786.503
786.514
786.525
786.536
786.547
786.557
786.567
786.577
786.587
786.597
786.607
786.616
786.625
786.634
786.642
786.651
786.659
786.668
786.676
786.685
786.693
786.7
786.708
786.715
786.722
786.729
786.736
786.743
786.749
786.755
786.761
786.767
786.773
786.779
786.785
786.791
786.796
786.801
786.806
786.811
786.816
786.821
786.826
786.83
786.835
786.839
786.842
786.847
786.851
786.853
786.856
786.858
786.858
786.858
786.86
786.864
786.87
786.875
786.877
786.87
786.855
786.832
786.811
786.791
786.768
786.736
786.703
786.677
786.668
786.692
786.777
786.883
786.991
787.093
787.181
787.248
787.266
787.259
787.235
787.181
787.113
787.049
786.993
786.945
786.912
786.897
786.895
786.898
786.902
786.906
786.91
786.913
786.916
786.919
786.921
786.923
786.925
786.926
786.927
786.929
786.93
786.93
786.931
786.932
786.933
786.933
786.934
786.934
786.934
786.934
786.936
786.933
786.937
786.933
786.938
786.932
786.938
786.932
786.938
786.932
786.938
786.931
786.937
786.931
786.937
786.93
786.936
786.93
786.936
786.929
786.935
786.928
786.934
786.927
786.934
786.932
785.359
785.39
785.415
785.434
785.453
785.477
785.502
785.525
785.544
785.562
785.582
785.605
785.629
785.652
785.673
785.694
785.714
785.735
785.756
785.777
785.798
785.818
785.839
785.86
785.88
785.9
785.92
785.939
785.959
785.978
785.997
786.016
786.034
786.052
786.07
786.088
786.106
786.123
786.141
786.158
786.174
786.191
786.206
786.222
786.238
786.253
786.268
786.283
786.298
786.313
786.327
786.341
786.355
786.369
786.383
786.397
786.41
786.423
786.436
786.448
786.46
786.472
786.484
786.496
786.507
786.519
786.53
786.541
786.551
786.562
786.572
786.582
786.592
786.602
786.611
786.621
786.63
786.638
786.647
786.655
786.664
786.672
786.681
786.689
786.697
786.705
786.712
786.72
786.727
786.734
786.74
786.747
786.753
786.759
786.765
786.771
786.777
786.783
786.789
786.794
786.8
786.805
786.81
786.815
786.82
786.825
786.83
786.834
786.838
786.843
786.847
786.851
786.855
786.858
786.862
786.864
786.864
786.864
786.865
786.868
786.873
786.882
786.89
786.887
786.868
786.838
786.798
786.753
786.708
786.667
786.63
786.597
786.571
786.56
786.571
786.625
786.697
786.773
786.847
786.914
786.969
787.008
787.029
787.032
787.023
787.004
786.98
786.957
786.939
786.927
786.918
786.914
786.912
786.912
786.914
786.915
786.918
786.92
786.921
786.923
786.925
786.926
786.928
786.929
786.93
786.93
786.931
786.932
786.933
786.933
786.934
786.934
786.934
786.934
786.936
786.933
786.937
786.933
786.938
786.932
786.938
786.932
786.938
786.932
786.938
786.931
786.937
786.931
786.937
786.93
786.936
786.93
786.936
786.929
786.935
786.928
786.934
786.927
786.933
786.929
785.373
785.401
785.434
785.462
785.487
785.511
785.537
785.565
785.592
785.616
785.639
785.662
785.686
785.71
785.734
785.758
785.781
785.802
785.823
785.844
785.865
785.887
785.907
785.928
785.949
785.969
785.989
786.009
786.028
786.047
786.066
786.085
786.103
786.121
786.14
786.158
786.175
786.193
786.21
786.227
786.243
786.26
786.276
786.292
786.307
786.323
786.338
786.353
786.367
786.382
786.396
786.411
786.425
786.439
786.453
786.466
786.479
786.492
786.505
786.517
786.53
786.542
786.554
786.565
786.577
786.588
786.599
786.61
786.621
786.631
786.642
786.652
786.662
786.671
786.68
786.689
786.698
786.708
786.717
786.725
786.734
786.743
786.751
786.759
786.767
786.774
786.782
786.789
786.796
786.803
786.809
786.816
786.822
786.829
786.835
786.841
786.847
786.853
786.858
786.864
786.869
786.874
786.879
786.884
786.888
786.892
786.896
786.9
786.905
786.908
786.911
786.914
786.915
786.914
786.915
786.914
786.914
786.916
786.922
786.926
786.929
786.928
786.917
786.897
786.871
786.847
786.825
786.804
786.783
786.763
786.748
786.742
786.748
786.765
786.789
786.817
786.846
786.873
786.898
786.917
786.931
786.94
786.943
786.942
786.938
786.933
786.928
786.923
786.92
786.918
786.917
786.917
786.917
786.919
786.92
786.921
786.923
786.924
786.925
786.926
786.927
786.928
786.929
786.93
786.931
786.931
786.932
786.932
786.933
786.933
786.934
786.934
786.934
786.934
786.935
786.934
786.937
786.933
786.937
786.933
786.936
786.934
786.936
786.933
786.938
786.931
786.938
786.931
786.937
786.93
786.936
786.93
786.936
786.929
786.935
786.928
786.934
786.928
786.929
786.929
785.321
785.349
785.376
785.403
785.428
785.453
785.475
785.496
785.515
785.535
785.557
785.581
785.604
785.627
785.649
785.671
785.693
785.715
785.736
785.758
785.779
785.8
785.821
785.841
785.861
785.881
785.901
785.92
785.939
785.958
785.977
785.996
786.015
786.033
786.051
786.069
786.086
786.103
786.12
786.137
786.154
786.171
786.187
786.203
786.219
786.234
786.249
786.264
786.279
786.293
786.308
786.322
786.336
786.35
786.363
786.376
786.39
786.403
786.415
786.428
786.441
786.453
786.465
786.476
786.488
786.499
786.51
786.521
786.532
786.543
786.553
786.563
786.573
786.583
786.592
786.602
786.611
786.62
786.629
786.637
786.646
786.654
786.662
786.67
786.677
786.685
786.693
786.7
786.707
786.714
786.721
786.728
786.735
786.741
786.748
786.754
786.76
786.766
786.771
786.778
786.783
786.788
786.794
786.799
786.804
786.809
786.814
786.818
786.823
786.827
786.831
786.836
786.841
786.845
786.849
786.852
786.856
786.86
786.864
786.865
786.867
786.872
786.878
786.884
786.886
786.883
786.877
786.869
786.858
786.848
786.838
786.831
786.829
786.831
786.836
786.845
786.855
786.865
786.875
786.884
786.891
786.897
786.901
786.905
786.907
786.909
786.911
786.913
786.914
786.916
786.917
786.918
786.92
786.921
786.922
786.924
786.925
786.926
786.927
786.928
786.928
786.929
786.93
786.931
786.931
786.932
786.932
786.933
786.933
786.933
786.934
786.934
786.934
786.934
786.935
786.935
786.934
786.936
786.934
786.936
786.935
786.934
786.936
786.933
786.937
786.933
786.935
786.934
786.932
786.936
786.931
786.935
786.931
786.932
786.934
786.93
786.931
786.931
786.93
786.928
785.365
785.407
785.452
785.497
785.541
785.581
785.619
785.655
785.689
785.721
785.753
785.783
785.812
785.839
785.865
785.89
785.914
785.936
785.959
785.981
786.002
786.024
786.044
786.065
786.085
786.106
786.126
786.146
786.165
786.184
786.203
786.222
786.24
786.259
786.277
786.295
786.313
786.33
786.347
786.364
786.381
786.397
786.413
786.429
786.444
786.459
786.474
786.489
786.504
786.519
786.534
786.548
786.562
786.576
786.59
786.603
786.616
786.629
786.641
786.654
786.666
786.678
786.69
786.701
786.713
786.724
786.735
786.746
786.756
786.766
786.776
786.786
786.796
786.806
786.815
786.825
786.834
786.843
786.851
786.86
786.868
786.876
786.884
786.891
786.899
786.906
786.912
786.918
786.924
786.929
786.935
786.94
786.945
786.95
786.955
786.958
786.962
786.965
786.967
786.97
786.973
786.975
786.978
786.98
786.982
786.982
786.982
786.981
786.979
786.978
786.976
786.975
786.975
786.977
786.98
786.983
786.986
786.984
786.979
786.97
786.957
786.94
786.92
786.9
786.883
786.868
786.857
786.847
786.838
786.832
786.827
786.824
786.825
786.827
786.833
786.842
786.852
786.864
786.876
786.887
786.896
786.904
786.91
786.914
786.917
786.92
786.922
786.923
786.924
786.925
786.926
786.926
786.927
786.927
786.928
786.928
786.929
786.929
786.93
786.93
786.93
786.931
786.931
786.932
786.932
786.932
786.933
786.933
786.933
786.934
786.934
786.935
786.934
786.936
786.934
786.936
786.933
786.937
786.933
786.937
786.933
786.938
786.932
786.938
786.932
786.938
786.931
786.937
786.931
786.937
786.93
786.936
786.929
786.935
786.929
786.934
786.928
786.933
786.927
786.932
785.27
785.281
785.297
785.318
785.34
785.363
785.386
785.407
785.429
785.451
785.473
785.494
785.516
785.537
785.558
785.58
785.601
785.622
785.643
785.664
785.685
785.706
785.726
785.746
785.766
785.785
785.804
785.823
785.842
785.861
785.879
785.898
785.916
785.934
785.952
785.969
785.987
786.004
786.021
786.038
786.055
786.071
786.087
786.103
786.118
786.134
786.149
786.164
786.179
786.194
786.209
786.223
786.237
786.251
786.264
786.277
786.29
786.303
786.316
786.329
786.341
786.354
786.365
786.377
786.389
786.4
786.411
786.423
786.434
786.444
786.455
786.465
786.475
786.485
786.494
786.503
786.513
786.522
786.531
786.54
786.548
786.556
786.564
786.572
786.58
786.587
786.595
786.602
786.609
786.616
786.623
786.63
786.637
786.643
786.649
786.655
786.661
786.666
786.672
786.678
786.683
786.688
786.693
786.698
786.702
786.707
786.711
786.716
786.72
786.725
786.729
786.733
786.736
786.74
786.744
786.749
786.753
786.754
786.757
786.763
786.768
786.772
786.777
786.782
786.784
786.785
786.789
786.799
786.81
786.821
786.831
786.838
786.835
786.825
786.804
786.784
786.773
786.773
786.785
786.805
786.827
786.848
786.866
786.881
786.893
786.902
786.909
786.914
786.918
786.921
786.923
786.925
786.926
786.927
786.928
786.928
786.929
786.929
786.93
786.93
786.931
786.931
786.931
786.932
786.932
786.933
786.933
786.933
786.933
786.934
786.934
786.935
786.934
786.935
786.934
786.936
786.933
786.937
786.933
786.937
786.933
786.938
786.932
786.938
786.932
786.938
786.931
786.937
786.931
786.937
786.93
786.936
786.929
786.935
786.929
786.934
786.928
786.931
786.931
786.93
785.286
785.323
785.366
785.413
785.461
785.508
785.552
785.595
785.636
785.676
785.715
785.751
785.786
785.818
785.848
785.876
785.902
785.926
785.95
785.972
785.994
786.016
786.037
786.057
786.078
786.098
786.118
786.137
786.157
786.176
786.195
786.213
786.232
786.25
786.268
786.286
786.304
786.321
786.339
786.356
786.372
786.388
786.404
786.42
786.436
786.451
786.466
786.48
786.495
786.509
786.524
786.538
786.552
786.566
786.579
786.592
786.605
786.617
786.629
786.641
786.653
786.664
786.675
786.686
786.696
786.707
786.717
786.727
786.737
786.747
786.756
786.765
786.775
786.784
786.792
786.802
786.811
786.82
786.829
786.838
786.847
786.856
786.864
786.873
786.881
786.889
786.896
786.902