/*--------------------------------*- C++ -*----------------------------------*\
| =========                 |                                                 |
| \\      /  F ield         | OpenFOAM: The Open Source CFD Toolbox           |
|  \\    /   O peration     | Version:  3.0.x                                 |
|   \\  /    A nd           | Web:      www.OpenFOAM.org                      |
|    \\/     M anipulation  |                                                 |
\*---------------------------------------------------------------------------*/
FoamFile
{
    version     2.0;
    format      ascii;
    class       surfaceScalarField;
    location    "0.58";
    object      phi;
}
// * * * * * * * * * * * * * * * * * * * * * * * * * * * * * * * * * * * * * //

dimensions      [1 0 -1 0 0 0 0];

internalField   nonuniform List<scalar> 
52430
(
4.16513
0.000245044
4.14844
0.000179106
4.13176
0.000173409
4.11507
0.00017591
4.09837
0.000177655
4.08167
0.000178959
4.06496
0.000180262
4.04824
0.000181563
4.03151
0.000182822
4.01477
0.000184035
3.99801
0.0001852
3.98125
0.000186315
3.96447
0.000187375
3.94768
0.000188377
3.93089
0.00018932
3.91408
0.000190202
3.89726
0.000191022
3.88043
0.00019178
3.86359
0.000192477
3.84675
0.000193113
3.8299
0.000193688
3.81304
0.000194205
3.79618
0.000194667
3.77932
0.000195076
3.76245
0.000195435
3.74558
0.000195746
3.72871
0.000196014
3.71184
0.000196241
3.69498
0.000196432
3.67813
0.000196592
3.66128
0.000196723
3.64444
0.000196829
3.62761
0.000196909
3.61079
0.000196977
3.59397
0.000197041
3.57718
0.000197069
3.56039
0.000197096
3.54362
0.000197117
3.52687
0.00019713
3.51013
0.000197139
3.49341
0.000197143
3.4767
0.000197144
3.46001
0.000197143
3.44334
0.00019714
3.42669
0.000197136
3.41005
0.000197131
3.39344
0.000197125
3.37684
0.000197119
3.36026
0.000197112
3.3437
0.000197104
3.32716
0.000197097
3.31064
0.000197089
3.29414
0.000197081
3.27766
0.000197072
3.26121
0.000197064
3.24477
0.000197055
3.22836
0.000197047
3.21197
0.000197037
3.19561
0.000197028
3.17926
0.000197019
3.16294
0.000197009
3.14665
0.000197
3.13038
0.00019699
3.11413
0.00019698
3.09791
0.00019697
3.08171
0.000196959
3.06554
0.000196948
3.0494
0.000196937
3.03328
0.000196926
3.01719
0.000196915
3.00112
0.000196904
2.98509
0.000196893
2.96908
0.000196881
2.9531
0.000196869
2.93714
0.000196857
2.92122
0.000196845
2.90532
0.000196833
2.88946
0.00019682
2.87362
0.000196808
2.85781
0.000196794
2.84204
0.000196781
2.82629
0.000196767
2.81058
0.000196754
2.79489
0.00019674
2.77924
0.000196727
2.76362
0.000196714
2.74803
0.000196699
2.73247
0.000196684
2.71695
0.000196669
2.70146
0.000196653
2.686
0.000196636
2.67058
0.000196618
2.65518
0.000196603
2.63983
0.000196589
2.62451
0.000196576
2.60922
0.000196565
2.59397
0.000196551
2.57875
0.000196537
2.56356
0.000196519
2.54842
0.000196498
2.5333
0.000196474
2.51823
0.000196449
2.50319
0.000196422
2.48819
0.000196394
2.47322
0.000196363
2.45829
0.000196333
2.4434
0.000196303
2.42855
0.0001962
2.41373
0.000196454
2.39896
0.000196107
2.38422
0.000196261
2.36952
0.000196226
2.35487
0.000196221
2.34025
0.000196215
2.32566
0.000196213
2.31112
0.000196212
2.29662
0.000196211
2.28216
0.000196206
2.26774
0.000196195
2.25335
0.000196174
2.23901
0.000196147
2.22471
0.000196126
2.21045
0.000196023
2.19623
0.000196091
2.18205
0.000195963
2.16791
0.000196111
2.15382
0.000195844
2.13977
0.000195899
2.12576
0.000195899
2.11179
0.000195878
2.09786
0.000195865
2.08398
0.000195851
2.07014
0.000195838
2.05635
0.000195819
2.04259
0.00019579
2.02889
0.000195754
2.01522
0.000195713
2.0016
0.000195672
1.98802
0.000195635
1.97449
0.00019561
1.961
0.000195593
1.94755
0.000195579
1.93416
0.000195565
1.9208
0.000195547
1.90749
0.000195528
1.89423
0.000195501
1.88101
0.000195469
1.86783
0.000195422
1.8547
0.000195351
1.84162
0.000195247
1.82858
0.000195104
1.81558
0.000194918
1.80264
0.000194687
1.78974
0.0001944
1.77688
0.000194058
1.76407
0.00019365
1.75131
0.000193168
1.7386
0.000192606
1.72593
0.000191955
1.71331
0.000191208
1.70074
0.000190351
1.68822
0.00018937
1.67575
0.000188244
1.66333
0.000186954
1.65095
0.000185477
1.63862
0.00018379
1.62635
0.000181875
1.61412
0.000179713
1.60194
0.000177289
1.58981
0.000174592
1.57774
0.00017161
1.56571
0.000168336
1.55374
0.00016477
1.54181
0.000160907
1.52994
0.000156751
1.51813
0.000152306
1.50636
0.000147583
1.49465
0.000142593
1.48299
0.000137354
1.47139
0.000131883
1.45984
0.000126205
1.44835
0.000120343
1.43691
0.00011433
1.42553
0.000108193
1.4142
0.000101966
1.40292
9.56842e-05
1.3917
8.93823e-05
1.38054
8.30958e-05
1.36943
7.68595e-05
1.35838
7.07075e-05
1.34738
6.46733e-05
1.33644
5.87822e-05
1.32555
5.30708e-05
1.31472
4.75579e-05
1.30394
4.22668e-05
1.29322
3.72167e-05
1.28255
3.24224e-05
1.27193
2.78954e-05
1.26137
2.36437e-05
1.25086
1.96718e-05
1.24041
1.59808e-05
1.23
1.2569e-05
1.21965
9.42826e-06
1.20936
6.55642e-06
1.19911
3.93838e-06
1.18892
1.5944e-06
1.17878
-5.54754e-07
1.16869
-2.49375e-06
1.15865
-4.20892e-06
1.14867
-5.72845e-06
1.13873
-7.06694e-06
1.12885
-8.23984e-06
1.11901
-9.26195e-06
1.10923
-1.01523e-05
1.0995
-1.09185e-05
1.08981
-1.15778e-05
1.08018
-1.21426e-05
1.0706
-1.26237e-05
1.06107
-1.30316e-05
1.05159
-1.3376e-05
1.04215
-1.36655e-05
1.03277
-1.39079e-05
1.02344
-1.41098e-05
1.01416
-1.42771e-05
1.00493
-1.44157e-05
0.995743
-1.45314e-05
0.98661
-1.4624e-05
0.977527
-1.47007e-05
0.968494
-1.47634e-05
0.95951
-1.48144e-05
0.950576
-1.48558e-05
0.941692
-1.48894e-05
0.932857
-1.49167e-05
0.924071
-1.49388e-05
0.915335
-1.49568e-05
0.906649
-1.49711e-05
0.898011
-1.49836e-05
0.889424
-1.49943e-05
0.880885
-1.50016e-05
0.872396
-1.50085e-05
0.863956
-1.50145e-05
0.855566
-1.50195e-05
0.847224
-1.50238e-05
0.838932
-1.50276e-05
0.830689
-1.5031e-05
0.822495
-1.5034e-05
0.81435
-1.50368e-05
0.806254
-1.50388e-05
0.798207
-1.50417e-05
0.790208
-1.50447e-05
0.782259
-1.50459e-05
0.774358
-1.50479e-05
0.766507
-1.50498e-05
0.758703
-1.50515e-05
0.750949
-1.50532e-05
0.743243
-1.50548e-05
0.735585
-1.50563e-05
0.727976
-1.50578e-05
0.720415
-1.50591e-05
0.712903
-1.50598e-05
0.705438
-1.50616e-05
0.698022
-1.50633e-05
0.690654
-1.50634e-05
0.683334
-1.50644e-05
0.676062
-1.50654e-05
0.668838
-1.50663e-05
0.661662
-1.50672e-05
0.654533
-1.5068e-05
0.647453
-1.50687e-05
0.640419
-1.50693e-05
0.633433
-1.50697e-05
0.626495
-1.50695e-05
0.619604
-1.50706e-05
0.61276
-1.50711e-05
0.605964
-1.50706e-05
0.599214
-1.50707e-05
0.592512
-1.50709e-05
0.585857
-1.5071e-05
0.579248
-1.5071e-05
0.572686
-1.5071e-05
0.566171
-1.50708e-05
0.559703
-1.50707e-05
0.553281
-1.50704e-05
0.546905
-1.50693e-05
0.540576
-1.50708e-05
0.534293
-1.50698e-05
0.528057
-1.50689e-05
0.521866
-1.50683e-05
0.515721
-1.50676e-05
0.509622
-1.50668e-05
0.503569
-1.50659e-05
0.497562
-1.50651e-05
0.4916
-1.50643e-05
0.485684
-1.50634e-05
0.479813
-1.50625e-05
0.473987
-1.50606e-05
0.468207
-1.50617e-05
0.462471
-1.50592e-05
0.456781
-1.50578e-05
0.451135
-1.50564e-05
0.445534
-1.50549e-05
0.439977
-1.50533e-05
0.434465
-1.50517e-05
0.428997
-1.505e-05
0.423574
-1.50484e-05
0.418194
-1.50466e-05
0.412859
-1.50443e-05
0.407567
-1.50432e-05
0.402319
-1.50418e-05
0.397115
-1.5039e-05
0.391954
-1.50369e-05
0.386837
-1.50347e-05
0.381762
-1.50324e-05
0.376731
-1.503e-05
0.371743
-1.50275e-05
0.366797
-1.5025e-05
0.361894
-1.50224e-05
0.357034
-1.50195e-05
0.352216
-1.50163e-05
0.34744
-1.50153e-05
0.342706
-1.50113e-05
0.338014
-1.50082e-05
0.333364
-1.50052e-05
0.328755
-1.50021e-05
0.324188
-1.49989e-05
0.319663
-1.49956e-05
0.315178
-1.49922e-05
0.310734
-1.49887e-05
0.306331
-1.4985e-05
0.301969
-1.49803e-05
0.297647
-1.49789e-05
0.293366
-1.49738e-05
0.289125
-1.49699e-05
0.284924
-1.49659e-05
0.280762
-1.49617e-05
0.276641
-1.49574e-05
0.272558
-1.49532e-05
0.268515
-1.49489e-05
0.264512
-1.49446e-05
0.260547
-1.494e-05
0.256621
-1.49343e-05
0.252733
-1.49319e-05
0.248884
-1.49256e-05
0.245073
-1.49204e-05
0.2413
-1.49154e-05
0.237565
-1.49104e-05
0.233867
-1.49053e-05
0.230207
-1.49001e-05
0.226584
-1.48947e-05
0.222999
-1.48891e-05
0.21945
-1.48833e-05
0.215937
-1.48764e-05
0.212461
-1.48727e-05
0.209022
-1.48654e-05
0.205618
-1.48592e-05
0.20225
-1.48528e-05
0.198918
-1.48468e-05
0.195621
-1.48401e-05
0.19236
-1.48344e-05
0.189133
-1.48271e-05
0.185941
-1.4822e-05
0.182784
-1.48132e-05
0.179661
-1.48084e-05
0.176573
-1.4799e-05
0.173518
-1.47967e-05
0.170496
-1.4781e-05
0.167509
-1.47845e-05
0.164554
-1.47632e-05
0.161633
-1.47735e-05
0.158744
-1.47457e-05
0.155888
-1.47622e-05
0.153064
-1.47216e-05
0.150272
-1.47605e-05
0.147512
-1.47128e-05
0.144784
-1.47344e-05
0.142088
-1.4702e-05
0.139422
-1.47008e-05
0.136788
-1.46987e-05
0.134184
-1.4679e-05
0.131611
-1.46845e-05
0.129068
-1.4652e-05
0.126555
-1.46598e-05
0.124072
-1.46042e-05
0.121618
-1.45993e-05
0.119194
-1.44985e-05
0.116799
-1.4361e-05
0.114433
-1.39855e-05
0.112094
-1.32544e-05
0.109782
-1.16252e-05
0.107495
-8.38431e-06
0.10523
-1.52703e-06
0.102977
1.34663e-05
0.100718
4.6318e-05
0.0984172
0.000115976
0.0959925
0.00026711
0.0932601
0.00060098
0.0897488
0.00140679
0.0845719
0.00309795
0.067882
0.014637
0.023915
0.0419384
5.89084
0.000214199
5.86749
0.000173051
5.84416
0.00016021
5.82081
0.000163577
5.79746
0.000165781
5.77411
0.000166946
5.75074
0.000168136
5.72736
0.000169376
5.70397
0.000170575
5.68057
0.000171723
5.65715
0.000172827
5.63371
0.000173885
5.61026
0.000174891
5.5868
0.000175844
5.56333
0.000176742
5.53983
0.000177584
5.51633
0.000178367
5.49281
0.000179093
5.46929
0.000179761
5.44575
0.000180372
5.42221
0.000180927
5.39865
0.000181427
5.3751
0.000181876
5.35154
0.000182275
5.32798
0.000182626
5.30441
0.000182934
5.28084
0.0001832
5.25728
0.000183428
5.23372
0.000183623
5.21017
0.000183787
5.18664
0.000183925
5.16311
0.00018404
5.1396
0.000184133
5.1161
0.000184205
5.09262
0.000184281
5.06915
0.000184323
5.04571
0.000184363
5.02228
0.000184396
4.99888
0.000184423
4.9755
0.000184445
4.95214
0.000184463
4.92881
0.000184479
4.9055
0.000184492
4.88221
0.000184503
4.85895
0.000184513
4.83571
0.000184523
4.81251
0.000184531
4.78932
0.000184539
4.76617
0.000184546
4.74304
0.000184553
4.71994
0.00018456
4.69687
0.000184567
4.67383
0.000184573
4.65082
0.000184579
4.62783
0.000184586
4.60488
0.000184591
4.58197
0.000184597
4.55908
0.000184602
4.53622
0.000184608
4.5134
0.000184613
4.49061
0.000184618
4.46786
0.000184623
4.44514
0.000184628
4.42245
0.000184632
4.3998
0.000184637
4.37719
0.000184641
4.35461
0.000184645
4.33207
0.000184649
4.30956
0.000184652
4.2871
0.000184656
4.26467
0.000184659
4.24228
0.000184663
4.21993
0.000184666
4.19762
0.000184669
4.17534
0.000184672
4.15311
0.000184674
4.13092
0.000184677
4.10878
0.000184679
4.08667
0.000184681
4.06461
0.000184682
4.04258
0.000184684
4.02061
0.000184685
3.99867
0.000184687
3.97678
0.000184687
3.95493
0.000184689
3.93313
0.00018469
3.91138
0.000184691
3.88967
0.000184691
3.868
0.000184691
3.84638
0.00018469
3.82481
0.000184688
3.80329
0.000184685
3.78181
0.000184685
3.76038
0.000184686
3.73901
0.000184688
3.71768
0.000184691
3.69639
0.000184692
3.67516
0.000184693
3.65398
0.00018469
3.63285
0.000184684
3.61176
0.000184676
3.59073
0.000184666
3.56975
0.000184655
3.54882
0.000184642
3.52795
0.000184627
3.50713
0.000184612
3.48636
0.000184597
3.46564
0.000184529
3.44498
0.000184744
3.42437
0.000184476
3.40382
0.000184611
3.38332
0.000184597
3.36288
0.000184608
3.34249
0.000184616
3.32216
0.000184627
3.30189
0.00018464
3.28167
0.000184653
3.2615
0.000184662
3.24139
0.000184665
3.22134
0.000184659
3.20135
0.00018465
3.18141
0.00018464
3.16153
0.00018456
3.14171
0.000184634
3.12195
0.000184543
3.10224
0.00018466
3.0826
0.000184463
3.06301
0.000184518
3.04349
0.000184522
3.02402
0.000184523
3.00462
0.000184523
2.98527
0.000184524
2.96599
0.000184524
2.94677
0.00018452
2.92761
0.000184506
2.90851
0.000184485
2.88947
0.000184461
2.87049
0.000184437
2.85158
0.000184417
2.83273
0.000184408
2.81394
0.000184405
2.79521
0.000184404
2.77655
0.000184404
2.75795
0.000184397
2.73941
0.000184389
2.72094
0.000184371
2.70253
0.000184347
2.68419
0.000184308
2.66591
0.000184242
2.64769
0.000184144
2.62954
0.000184006
2.61145
0.000183824
2.59343
0.000183595
2.57547
0.000183308
2.55757
0.000182964
2.53974
0.00018255
2.52198
0.00018206
2.50429
0.000181487
2.48666
0.00018082
2.46909
0.000180053
2.4516
0.000179173
2.43417
0.000178162
2.4168
0.000177003
2.39951
0.000175675
2.38228
0.000174158
2.36512
0.000172428
2.34802
0.00017047
2.33099
0.000168266
2.31403
0.000165802
2.29714
0.00016307
2.28032
0.00016006
2.26356
0.000156765
2.24687
0.000153189
2.23025
0.000149329
2.2137
0.00014519
2.19721
0.000140781
2.18079
0.000136112
2.16445
0.000131198
2.14817
0.000126058
2.13195
0.000120714
2.11581
0.000115187
2.09974
0.000109506
2.08373
0.000103703
2.06779
9.78046e-05
2.05193
9.18464e-05
2.03613
8.58617e-05
2.0204
7.98847e-05
2.00474
7.39489e-05
1.98914
6.80875e-05
1.97362
6.23317e-05
1.95817
5.67126e-05
1.94278
5.12524e-05
1.92747
4.59839e-05
1.91222
4.09227e-05
1.89704
3.60884e-05
1.88194
3.14965e-05
1.8669
2.71585e-05
1.85193
2.30824e-05
1.83703
1.92731e-05
1.8222
1.57319e-05
1.80744
1.24576e-05
1.79275
9.44572e-06
1.77813
6.6857e-06
1.76358
4.17201e-06
1.7491
1.88972e-06
1.73469
-1.08421e-07
1.72035
-1.96457e-06
1.70608
-3.60898e-06
1.69188
-5.05853e-06
1.67775
-6.33918e-06
1.66369
-7.46421e-06
1.6497
-8.44699e-06
1.63578
-9.3011e-06
1.62193
-1.00423e-05
1.60814
-1.06786e-05
1.59444
-1.1224e-05
1.5808
-1.16897e-05
1.56723
-1.20851e-05
1.55373
-1.24192e-05
1.5403
-1.27003e-05
1.52694
-1.29357e-05
1.51365
-1.3132e-05
1.50043
-1.32951e-05
1.48728
-1.34297e-05
1.47421
-1.35409e-05
1.4612
-1.36334e-05
1.44826
-1.37072e-05
1.4354
-1.3768e-05
1.4226
-1.38178e-05
1.40987
-1.38581e-05
1.39721
-1.38908e-05
1.38463
-1.39174e-05
1.37211
-1.39389e-05
1.35966
-1.39564e-05
1.34729
-1.39707e-05
1.33498
-1.3982e-05
1.32274
-1.39921e-05
1.31058
-1.40008e-05
1.29848
-1.40067e-05
1.28645
-1.40124e-05
1.27449
-1.40173e-05
1.2626
-1.40216e-05
1.25079
-1.40253e-05
1.23904
-1.40286e-05
1.22736
-1.40316e-05
1.21575
-1.40343e-05
1.2042
-1.40368e-05
1.19273
-1.40387e-05
1.18133
-1.40414e-05
1.17
-1.40441e-05
1.15873
-1.40453e-05
1.14754
-1.40471e-05
1.13641
-1.40489e-05
1.12535
-1.40506e-05
1.11436
-1.40522e-05
1.10344
-1.40537e-05
1.09259
-1.40552e-05
1.08181
-1.40566e-05
1.07109
-1.40578e-05
1.06045
-1.40586e-05
1.04987
-1.40602e-05
1.03936
-1.40619e-05
1.02891
-1.40621e-05
1.01854
-1.4063e-05
1.00823
-1.4064e-05
0.997995
-1.40649e-05
0.987824
-1.40657e-05
0.97772
-1.40665e-05
0.967684
-1.40673e-05
0.957715
-1.40678e-05
0.947813
-1.40683e-05
0.937978
-1.40681e-05
0.928211
-1.40692e-05
0.91851
-1.40697e-05
0.908876
-1.40692e-05
0.899308
-1.40694e-05
0.889807
-1.40697e-05
0.880373
-1.40698e-05
0.871004
-1.40698e-05
0.861702
-1.40698e-05
0.852466
-1.40697e-05
0.843296
-1.40696e-05
0.834192
-1.40694e-05
0.825153
-1.40685e-05
0.81618
-1.40697e-05
0.807272
-1.40689e-05
0.79843
-1.40681e-05
0.789652
-1.40676e-05
0.78094
-1.40669e-05
0.772293
-1.40662e-05
0.76371
-1.40654e-05
0.755192
-1.40647e-05
0.746738
-1.40639e-05
0.738349
-1.40632e-05
0.730024
-1.40623e-05
0.721763
-1.40608e-05
0.713566
-1.40616e-05
0.705432
-1.40594e-05
0.697362
-1.4058e-05
0.689355
-1.40568e-05
0.681412
-1.40554e-05
0.673531
-1.4054e-05
0.665714
-1.40525e-05
0.657959
-1.4051e-05
0.650266
-1.40495e-05
0.642636
-1.40479e-05
0.635069
-1.40458e-05
0.627563
-1.40447e-05
0.620119
-1.40434e-05
0.612737
-1.40409e-05
0.605416
-1.40389e-05
0.598156
-1.40369e-05
0.590958
-1.40348e-05
0.58382
-1.40326e-05
0.576743
-1.40303e-05
0.569727
-1.40279e-05
0.562771
-1.40255e-05
0.555875
-1.40229e-05
0.549039
-1.402e-05
0.542262
-1.40189e-05
0.535545
-1.40153e-05
0.528888
-1.40124e-05
0.522289
-1.40097e-05
0.515749
-1.40068e-05
0.509268
-1.40038e-05
0.502845
-1.40008e-05
0.496481
-1.39976e-05
0.490174
-1.39943e-05
0.483926
-1.39909e-05
0.477734
-1.39866e-05
0.4716
-1.39852e-05
0.465523
-1.39806e-05
0.459503
-1.39769e-05
0.45354
-1.39732e-05
0.447632
-1.39693e-05
0.441781
-1.39653e-05
0.435986
-1.39614e-05
0.430246
-1.39574e-05
0.424562
-1.39534e-05
0.418932
-1.39491e-05
0.413358
-1.39439e-05
0.407838
-1.39414e-05
0.402372
-1.39358e-05
0.39696
-1.39309e-05
0.391602
-1.39263e-05
0.386298
-1.39216e-05
0.381047
-1.39169e-05
0.375849
-1.3912e-05
0.370703
-1.3907e-05
0.36561
-1.39018e-05
0.360569
-1.38964e-05
0.35558
-1.38901e-05
0.350642
-1.38864e-05
0.345756
-1.38798e-05
0.34092
-1.3874e-05
0.336135
-1.3868e-05
0.331401
-1.38624e-05
0.326717
-1.38562e-05
0.322082
-1.38508e-05
0.317497
-1.38441e-05
0.312961
-1.38391e-05
0.308474
-1.38314e-05
0.304036
-1.38262e-05
0.299646
-1.38186e-05
0.295303
-1.38144e-05
0.291009
-1.38032e-05
0.286762
-1.38015e-05
0.282561
-1.37888e-05
0.278408
-1.37893e-05
0.274301
-1.37772e-05
0.27024
-1.37765e-05
0.266224
-1.37606e-05
0.262254
-1.37799e-05
0.25833
-1.3777e-05
0.25445
-1.37309e-05
0.250614
-1.37739e-05
0.246823
-1.3676e-05
0.243075
-1.37906e-05
0.239371
-1.36479e-05
0.23571
-1.37864e-05
0.232093
-1.36054e-05
0.228517
-1.37549e-05
0.224984
-1.35252e-05
0.221492
-1.36439e-05
0.218043
-1.33381e-05
0.214634
-1.31706e-05
0.211266
-1.2302e-05
0.207937
-1.08661e-05
0.204647
-7.16406e-06
0.201392
4.14068e-07
0.198167
1.76338e-05
0.194958
5.46395e-05
0.191741
0.000135009
0.188462
0.000304983
0.185003
0.000674722
0.181094
0.00149539
0.176071
0.00345356
0.167899
0.00832997
0.14784
0.0317935
0.050757
0.118129
8.33089
0.000177041
8.29788
0.000160946
8.26488
0.000142498
8.23187
0.000146067
8.19885
0.000148826
8.16582
0.000149845
8.13277
0.00015087
8.09971
0.000152003
8.06663
0.000153097
8.03353
0.000154137
8.00041
0.000155135
7.96727
0.000156091
7.93411
0.000157001
7.90093
0.000157863
7.86773
0.000158675
7.83451
0.000159436
7.80127
0.000160145
7.76801
0.000160802
7.73474
0.000161407
7.70146
0.000161961
7.66816
0.000162464
7.63485
0.000162919
7.60154
0.000163326
7.56822
0.000163688
7.5349
0.000164008
7.50157
0.000164288
7.46824
0.00016453
7.43492
0.000164738
7.4016
0.000164916
7.3683
0.000165066
7.33502
0.000165192
7.30175
0.000165297
7.2685
0.000165386
7.23527
0.000165446
7.20206
0.000165517
7.16887
0.000165558
7.13572
0.000165594
7.10259
0.000165625
7.0695
0.00016565
7.03643
0.00016567
7.0034
0.000165687
6.9704
0.000165701
6.93744
0.000165714
6.90451
0.000165724
6.87161
0.000165734
6.83875
0.000165742
6.80593
0.00016575
6.77314
0.000165757
6.7404
0.000165764
6.70769
0.00016577
6.67503
0.000165777
6.6424
0.000165783
6.60982
0.000165789
6.57727
0.000165794
6.54477
0.0001658
6.51232
0.000165805
6.47991
0.000165811
6.44754
0.000165816
6.41522
0.000165821
6.38295
0.000165826
6.35072
0.000165831
6.31854
0.000165835
6.28641
0.00016584
6.25433
0.000165844
6.2223
0.000165848
6.19032
0.000165852
6.15839
0.000165855
6.12651
0.000165859
6.09469
0.000165863
6.06291
0.000165866
6.0312
0.000165869
5.99954
0.000165873
5.96793
0.000165876
5.93638
0.000165878
5.90488
0.000165881
5.87345
0.000165884
5.84207
0.000165886
5.81075
0.000165888
5.77948
0.00016589
5.74828
0.000165892
5.71714
0.000165893
5.68606
0.000165895
5.65504
0.000165896
5.62409
0.000165897
5.59319
0.000165898
5.56236
0.0001659
5.5316
0.0001659
5.50089
0.000165901
5.47026
0.000165901
5.43969
0.000165901
5.40918
0.000165899
5.37875
0.000165897
5.34838
0.000165897
5.31807
0.000165897
5.28784
0.000165899
5.25768
0.000165902
5.22758
0.000165903
5.19756
0.000165904
5.16761
0.000165903
5.13772
0.000165898
5.10791
0.000165891
5.07817
0.000165882
5.0485
0.000165872
5.0189
0.000165861
4.98938
0.000165847
4.95994
0.000165833
4.93057
0.000165818
4.90127
0.000165773
4.87205
0.000165927
4.84291
0.000165731
4.81385
0.000165829
4.78487
0.000165821
4.75596
0.000165832
4.72713
0.000165839
4.69838
0.000165849
4.66971
0.00016586
4.64111
0.000165871
4.6126
0.00016588
4.58417
0.000165882
4.55581
0.000165878
4.52754
0.000165872
4.49935
0.000165859
4.47123
0.000165793
4.4432
0.000165855
4.41526
0.000165789
4.38739
0.000165856
4.35962
0.00016572
4.33192
0.000165758
4.30431
0.000165752
4.27679
0.000165759
4.24935
0.000165758
4.22199
0.000165759
4.19472
0.000165758
4.16754
0.000165755
4.14045
0.000165742
4.11344
0.000165724
4.08651
0.000165704
4.05968
0.000165682
4.03294
0.000165666
4.00628
0.000165658
3.97971
0.000165657
3.95323
0.000165655
3.92684
0.000165656
3.90054
0.00016565
3.87433
0.000165642
3.84821
0.000165627
3.82218
0.000165605
3.79624
0.000165569
3.77039
0.000165512
3.74463
0.000165425
3.71896
0.000165303
3.69338
0.000165141
3.6679
0.000164939
3.6425
0.000164683
3.6172
0.000164377
3.59199
0.000164009
3.56687
0.000163572
3.54185
0.000163063
3.51692
0.000162467
3.49208
0.000161786
3.46734
0.000161002
3.44269
0.000160101
3.41814
0.000159069
3.39368
0.000157885
3.36932
0.000156533
3.34505
0.00015499
3.32088
0.000153244
3.2968
0.000151278
3.27281
0.000149079
3.24892
0.000146642
3.22513
0.000143954
3.20143
0.000141012
3.17783
0.000137818
3.15432
0.000134369
3.13091
0.00013067
3.10759
0.000126728
3.08437
0.000122552
3.06125
0.000118157
3.03822
0.000113557
3.01529
0.000108772
2.99246
0.000103822
2.96972
9.87328e-05
2.94708
9.35312e-05
2.92454
8.82432e-05
2.90209
8.2899e-05
2.87974
7.75289e-05
2.85749
7.21635e-05
2.83534
6.68331e-05
2.81328
6.15672e-05
2.79132
5.63939e-05
2.76946
5.13415e-05
2.7477
4.64297e-05
2.72603
4.1688e-05
2.70447
3.71309e-05
2.683
3.2776e-05
2.66163
2.86374e-05
2.64035
2.47256e-05
2.61918
2.10481e-05
2.59811
1.76093e-05
2.57713
1.44108e-05
2.55625
1.14517e-05
2.53547
8.7275e-06
2.51479
6.2276e-06
2.49421
3.94363e-06
2.47373
1.85098e-06
2.45335
1.30338e-07
2.43307
-1.59951e-06
2.41288
-3.10203e-06
2.3928
-4.4159e-06
2.37281
-5.58042e-06
2.35293
-6.6041e-06
2.33314
-7.49865e-06
2.31345
-8.27693e-06
2.29386
-8.95193e-06
2.27437
-9.53265e-06
2.25498
-1.00305e-05
2.23569
-1.04559e-05
2.2165
-1.08174e-05
2.19741
-1.1123e-05
2.17842
-1.13804e-05
2.15953
-1.15962e-05
2.14074
-1.17762e-05
2.12204
-1.19259e-05
2.10345
-1.20496e-05
2.08495
-1.21518e-05
2.06656
-1.22367e-05
2.04826
-1.23049e-05
2.03006
-1.23609e-05
2.01197
-1.24068e-05
1.99397
-1.2444e-05
1.97607
-1.24742e-05
1.95827
-1.24987e-05
1.94057
-1.25186e-05
1.92296
-1.25347e-05
1.90546
-1.25478e-05
1.88806
-1.25584e-05
1.87075
-1.25676e-05
1.85354
-1.25755e-05
1.83643
-1.25812e-05
1.81942
-1.25863e-05
1.80251
-1.25908e-05
1.7857
-1.25947e-05
1.76899
-1.25981e-05
1.75237
-1.26011e-05
1.73585
-1.26038e-05
1.71943
-1.26063e-05
1.70311
-1.26085e-05
1.68689
-1.26103e-05
1.67076
-1.26127e-05
1.65473
-1.2615e-05
1.6388
-1.26163e-05
1.62297
-1.26178e-05
1.60723
-1.26195e-05
1.5916
-1.2621e-05
1.57606
-1.26224e-05
1.56061
-1.26238e-05
1.54526
-1.26251e-05
1.53002
-1.26264e-05
1.51486
-1.26275e-05
1.49981
-1.26283e-05
1.48485
-1.26296e-05
1.46998
-1.26311e-05
1.45521
-1.26314e-05
1.44054
-1.26322e-05
1.42597
-1.26331e-05
1.41149
-1.26339e-05
1.3971
-1.26346e-05
1.38281
-1.26353e-05
1.36862
-1.2636e-05
1.35452
-1.26365e-05
1.34052
-1.26369e-05
1.32661
-1.26368e-05
1.3128
-1.26376e-05
1.29908
-1.26381e-05
1.28545
-1.26378e-05
1.27192
-1.26379e-05
1.25849
-1.26381e-05
1.24514
-1.26382e-05
1.23189
-1.26383e-05
1.21874
-1.26382e-05
1.20568
-1.26382e-05
1.19271
-1.2638e-05
1.17983
-1.26378e-05
1.16705
-1.26372e-05
1.15436
-1.2638e-05
1.14176
-1.26375e-05
1.12926
-1.26367e-05
1.11684
-1.26362e-05
1.10452
-1.26357e-05
1.09229
-1.2635e-05
1.08016
-1.26343e-05
1.06811
-1.26337e-05
1.05616
-1.2633e-05
1.04429
-1.26323e-05
1.03252
-1.26315e-05
1.02083
-1.26302e-05
1.00924
-1.26307e-05
0.997739
-1.2629e-05
0.986326
-1.26277e-05
0.975003
-1.26266e-05
0.963769
-1.26253e-05
0.952625
-1.2624e-05
0.941569
-1.26227e-05
0.930602
-1.26214e-05
0.919723
-1.262e-05
0.908933
-1.26185e-05
0.89823
-1.26167e-05
0.887615
-1.26157e-05
0.877088
-1.26145e-05
0.866648
-1.26123e-05
0.856295
-1.26105e-05
0.846028
-1.26087e-05
0.835848
-1.26068e-05
0.825754
-1.26048e-05
0.815745
-1.26028e-05
0.805823
-1.26006e-05
0.795985
-1.25985e-05
0.786233
-1.25961e-05
0.776565
-1.25936e-05
0.766982
-1.25924e-05
0.757483
-1.25893e-05
0.748067
-1.25867e-05
0.738735
-1.25843e-05
0.729487
-1.25817e-05
0.720321
-1.2579e-05
0.711238
-1.25762e-05
0.702237
-1.25734e-05
0.693318
-1.25704e-05
0.684481
-1.25673e-05
0.675725
-1.25637e-05
0.667051
-1.25621e-05
0.658456
-1.25582e-05
0.649943
-1.25548e-05
0.641509
-1.25515e-05
0.633155
-1.2548e-05
0.62488
-1.25444e-05
0.616684
-1.25409e-05
0.608567
-1.25373e-05
0.600528
-1.25337e-05
0.592567
-1.25298e-05
0.584683
-1.25253e-05
0.576876
-1.25228e-05
0.569147
-1.25179e-05
0.561494
-1.25135e-05
0.553916
-1.25094e-05
0.546415
-1.25051e-05
0.538989
-1.25009e-05
0.531637
-1.24965e-05
0.52436
-1.2492e-05
0.517157
-1.24873e-05
0.510028
-1.24824e-05
0.502972
-1.24769e-05
0.495989
-1.24734e-05
0.489079
-1.24676e-05
0.482241
-1.24624e-05
0.475474
-1.2457e-05
0.468778
-1.24521e-05
0.462154
-1.24463e-05
0.455599
-1.24417e-05
0.449115
-1.24354e-05
0.4427
-1.24312e-05
0.436355
-1.24239e-05
0.430078
-1.24194e-05
0.423869
-1.24128e-05
0.417728
-1.24079e-05
0.411655
-1.24008e-05
0.405649
-1.23938e-05
0.399709
-1.23918e-05
0.393835
-1.2379e-05
0.388026
-1.239e-05
0.382283
-1.23627e-05
0.376604
-1.23857e-05
0.37099
-1.23718e-05
0.36544
-1.24373e-05
0.359953
-1.22914e-05
0.354528
-1.24426e-05
0.349167
-1.22079e-05
0.343866
-1.24884e-05
0.338629
-1.21699e-05
0.333451
-1.25022e-05
0.328335
-1.21015e-05
0.323278
-1.2465e-05
0.318282
-1.19735e-05
0.313343
-1.22859e-05
0.308465
-1.16778e-05
0.303644
-1.1495e-05
0.298881
-9.9389e-06
0.294173
-7.61755e-06
0.289521
-1.25012e-06
0.284919
1.14604e-05
0.280362
4.04849e-05
0.275835
0.000102275
0.27131
0.000236282
0.266727
0.000517461
0.261959
0.00112737
0.256709
0.00248288
0.250243
0.00571055
0.240525
0.01389
0.217253
0.0509596
0.0840556
0.179898
36.7743
7.19555e-05
36.6286
8.25526e-05
36.4829
7.11325e-05
36.3372
7.19546e-05
36.1914
7.42618e-05
36.0456
7.50389e-05
35.8997
7.54617e-05
35.7538
7.59953e-05
35.6078
7.65426e-05
35.4617
7.70548e-05
35.3155
7.75432e-05
35.1692
7.8014e-05
35.0228
7.84647e-05
34.8763
7.8893e-05
34.7298
7.92977e-05
34.5831
7.96778e-05
34.4364
8.00329e-05
34.2896
8.03626e-05
34.1427
8.06668e-05
33.9958
8.09457e-05
33.8488
8.11994e-05
33.7018
8.14289e-05
33.5547
8.16349e-05
33.4077
8.18185e-05
33.2606
8.19806e-05
33.1135
8.21225e-05
32.9664
8.22457e-05
32.8192
8.23516e-05
32.6722
8.2442e-05
32.5252
8.25185e-05
32.3783
8.25829e-05
32.2314
8.26372e-05
32.0846
8.26848e-05
31.938
8.27108e-05
31.7914
8.27468e-05
31.6449
8.27707e-05
31.4985
8.27886e-05
31.3523
8.28046e-05
31.2062
8.28175e-05
31.0603
8.28281e-05
30.9144
8.28368e-05
30.7688
8.28441e-05
30.6233
8.28504e-05
30.4779
8.28557e-05
30.3327
8.28605e-05
30.1876
8.28647e-05
30.0428
8.28686e-05
29.898
8.28722e-05
29.7535
8.28757e-05
29.6091
8.2879e-05
29.4649
8.28823e-05
29.3209
8.28854e-05
29.1771
8.28886e-05
29.0334
8.28916e-05
28.89
8.28945e-05
28.7467
8.28973e-05
28.6036
8.29e-05
28.4608
8.29027e-05
28.3181
8.29053e-05
28.1756
8.29079e-05
28.0334
8.29104e-05
27.8913
8.29128e-05
27.7495
8.2915e-05
27.6079
8.29173e-05
27.4665
8.29195e-05
27.3253
8.29215e-05
27.1844
8.29236e-05
27.0437
8.29257e-05
26.9032
8.29276e-05
26.7629
8.29295e-05
26.6229
8.29313e-05
26.4832
8.29331e-05
26.3437
8.29349e-05
26.2044
8.29365e-05
26.0654
8.29379e-05
25.9266
8.29394e-05
25.7881
8.29408e-05
25.6498
8.29419e-05
25.5118
8.29431e-05
25.3741
8.2944e-05
25.2366
8.29448e-05
25.0994
8.29456e-05
24.9625
8.29464e-05
24.8259
8.29469e-05
24.6895
8.29475e-05
24.5534
8.29483e-05
24.4176
8.2949e-05
24.2821
8.29497e-05
24.1468
8.29503e-05
24.0119
8.29504e-05
23.8772
8.295e-05
23.7429
8.2949e-05
23.6088
8.29486e-05
23.4751
8.29488e-05
23.3416
8.29495e-05
23.2085
8.29509e-05
23.0756
8.29519e-05
22.9431
8.29527e-05
22.8109
8.29524e-05
22.6789
8.29505e-05
22.5473
8.29474e-05
22.4161
8.29434e-05
22.2851
8.29381e-05
22.1545
8.29322e-05
22.0241
8.29254e-05
21.8942
8.29181e-05
21.7645
8.29102e-05
21.6352
8.29001e-05
21.5062
8.29426e-05
21.3776
8.28849e-05
21.2493
8.29136e-05
21.1214
8.29132e-05
20.9938
8.29189e-05
20.8665
8.29228e-05
20.7396
8.29276e-05
20.613
8.29324e-05
20.4868
8.29382e-05
20.3609
8.29427e-05
20.2354
8.29438e-05
20.1103
8.29433e-05
19.9855
8.29412e-05
19.861
8.29318e-05
19.7369
8.29052e-05
19.6132
8.29295e-05
19.4898
8.29092e-05
19.3668
8.29131e-05
19.2442
8.28799e-05
19.122
8.28875e-05
19.0001
8.288e-05
18.8786
8.28838e-05
18.7575
8.28843e-05
18.6367
8.28851e-05
18.5164
8.28829e-05
18.3964
8.28813e-05
18.2768
8.28755e-05
18.1575
8.28671e-05
18.0387
8.28578e-05
17.9202
8.28478e-05
17.8022
8.28411e-05
17.6845
8.28374e-05
17.5672
8.28376e-05
17.4504
8.28365e-05
17.3339
8.28378e-05
17.2178
8.28345e-05
17.1021
8.28309e-05
16.9868
8.28234e-05
16.8719
8.28124e-05
16.7574
8.27948e-05
16.6433
8.27671e-05
16.5295
8.27254e-05
16.4162
8.26672e-05
16.3033
8.25891e-05
16.1908
8.24915e-05
16.0787
8.23676e-05
15.967
8.22184e-05
15.8558
8.20385e-05
15.7449
8.18251e-05
15.6344
8.15775e-05
15.5244
8.12852e-05
15.4147
8.09535e-05
15.3055
8.05708e-05
15.1967
8.01303e-05
15.0883
7.96263e-05
14.9804
7.90463e-05
14.8728
7.8385e-05
14.7657
7.76284e-05
14.659
7.67724e-05
14.5527
7.58083e-05
14.4468
7.4727e-05
14.3414
7.35309e-05
14.2364
7.22067e-05
14.1317
7.07594e-05
14.0276
6.9186e-05
13.9238
6.74835e-05
13.8204
6.56593e-05
13.7175
6.37094e-05
13.615
6.16445e-05
13.513
5.94685e-05
13.4113
5.71884e-05
13.3101
5.48146e-05
13.2093
5.2356e-05
13.1089
4.98261e-05
13.009
4.72373e-05
12.9095
4.46029e-05
12.8104
4.19378e-05
12.7118
3.9257e-05
12.6135
3.65758e-05
12.5158
3.39092e-05
12.4184
3.12722e-05
12.3215
2.86788e-05
12.225
2.61433e-05
12.1289
2.36758e-05
12.0333
2.12909e-05
11.9381
1.89965e-05
11.8433
1.68015e-05
11.749
1.47131e-05
11.6551
1.2737e-05
11.5616
1.0877e-05
11.4686
9.13585e-06
11.376
7.51449e-06
11.2838
6.01269e-06
11.1921
4.62876e-06
11.1008
3.36012e-06
11.01
2.21341e-06
10.9196
1.21619e-06
10.8296
1.61802e-07
10.7401
-6.67239e-07
10.651
-1.4111e-06
10.5623
-2.0822e-06
10.4741
-2.67653e-06
10.3863
-3.20018e-06
10.299
-3.65922e-06
10.2121
-4.05974e-06
10.1256
-4.40719e-06
10.0396
-4.70717e-06
9.95398
-4.9645e-06
9.86883
-5.18463e-06
9.78412
-5.37193e-06
9.69985
-5.53051e-06
9.61601
-5.66417e-06
9.53262
-5.77632e-06
9.44966
-5.87003e-06
9.36715
-5.94798e-06
9.28507
-6.01254e-06
9.20343