/*--------------------------------*- C++ -*----------------------------------*\
| =========                 |                                                 |
| \\      /  F ield         | OpenFOAM: The Open Source CFD Toolbox           |
|  \\    /   O peration     | Version:  3.0.x                                 |
|   \\  /    A nd           | Web:      www.OpenFOAM.org                      |
|    \\/     M anipulation  |                                                 |
\*---------------------------------------------------------------------------*/
FoamFile
{
    version     2.0;
    format      ascii;
    class       volVectorField;
    location    "0.58";
    object      U;
}
// * * * * * * * * * * * * * * * * * * * * * * * * * * * * * * * * * * * * * //

dimensions      [0 1 -1 0 0 0 0];

internalField   nonuniform List<vector> 
27600
(
(42.6321 0.000121881 0)
(42.4671 0.000112741 0)
(42.2736 0.000112082 0)
(42.0898 0.000115467 0)
(41.9154 0.000118546 0)
(41.7429 0.000121154 0)
(41.5693 0.000123494 0)
(41.3949 0.000125604 0)
(41.2204 0.000127503 0)
(41.0461 0.00012922 0)
(40.8719 0.00013078 0)
(40.6977 0.0001322 0)
(40.5236 0.000133495 0)
(40.3495 0.000134677 0)
(40.1755 0.000135754 0)
(40.0016 0.000136735 0)
(39.8277 0.000137626 0)
(39.6539 0.000138435 0)
(39.4801 0.000139166 0)
(39.3065 0.000139824 0)
(39.1329 0.000140414 0)
(38.9594 0.00014094 0)
(38.786 0.000141407 0)
(38.6127 0.00014182 0)
(38.4396 0.000142181 0)
(38.2665 0.000142496 0)
(38.0935 0.000142769 0)
(37.9207 0.000143003 0)
(37.748 0.000143202 0)
(37.5754 0.00014337 0)
(37.403 0.000143511 0)
(37.2306 0.000143628 0)
(37.0585 0.000143722 0)
(36.8864 0.000143801 0)
(36.7146 0.00014387 0)
(36.5428 0.000143916 0)
(36.3713 0.000143954 0)
(36.1998 0.000143985 0)
(36.0286 0.000144008 0)
(35.8575 0.000144025 0)
(35.6866 0.000144037 0)
(35.5159 0.000144045 0)
(35.3453 0.000144049 0)
(35.175 0.000144051 0)
(35.0048 0.00014405 0)
(34.8348 0.000144048 0)
(34.665 0.000144044 0)
(34.4954 0.000144038 0)
(34.326 0.000144032 0)
(34.1569 0.000144024 0)
(33.9879 0.000144016 0)
(33.8192 0.000144007 0)
(33.6506 0.000143997 0)
(33.4823 0.000143987 0)
(33.3142 0.000143976 0)
(33.1464 0.000143965 0)
(32.9787 0.000143954 0)
(32.8113 0.000143942 0)
(32.6442 0.00014393 0)
(32.4773 0.000143917 0)
(32.3106 0.000143904 0)
(32.1442 0.000143892 0)
(31.9781 0.000143879 0)
(31.8122 0.000143865 0)
(31.6465 0.000143852 0)
(31.4812 0.000143838 0)
(31.3161 0.000143825 0)
(31.1512 0.000143811 0)
(30.9867 0.000143797 0)
(30.8224 0.000143784 0)
(30.6584 0.00014377 0)
(30.4947 0.000143756 0)
(30.3312 0.000143742 0)
(30.1681 0.000143728 0)
(30.0052 0.000143714 0)
(29.8427 0.0001437 0)
(29.6804 0.000143686 0)
(29.5185 0.000143672 0)
(29.3569 0.000143658 0)
(29.1955 0.000143643 0)
(29.0345 0.000143629 0)
(28.8738 0.000143614 0)
(28.7134 0.0001436 0)
(28.5534 0.000143586 0)
(28.3936 0.000143572 0)
(28.2342 0.000143558 0)
(28.0752 0.000143544 0)
(27.9164 0.00014353 0)
(27.758 0.000143515 0)
(27.5999 0.0001435 0)
(27.4422 0.000143485 0)
(27.2848 0.000143469 0)
(27.1278 0.000143455 0)
(26.9711 0.000143442 0)
(26.8148 0.000143429 0)
(26.6588 0.000143418 0)
(26.5032 0.000143406 0)
(26.3479 0.000143393 0)
(26.1931 0.000143378 0)
(26.0385 0.000143361 0)
(25.8844 0.000143342 0)
(25.7306 0.000143323 0)
(25.5772 0.000143303 0)
(25.4242 0.000143282 0)
(25.2715 0.00014326 0)
(25.1192 0.000143238 0)
(24.9674 0.000143216 0)
(24.8159 0.000143169 0)
(24.6648 0.000143256 0)
(24.514 0.000143118 0)
(24.3637 0.000143175 0)
(24.2138 0.000143154 0)
(24.0643 0.000143151 0)
(23.9151 0.000143145 0)
(23.7664 0.000143143 0)
(23.6181 0.000143141 0)
(23.4702 0.00014314 0)
(23.3226 0.000143137 0)
(23.1756 0.000143129 0)
(23.0289 0.000143116 0)
(22.8826 0.000143098 0)
(22.7368 0.000143082 0)
(22.5913 0.000143033 0)
(22.4463 0.000143049 0)
(22.3017 0.000142991 0)
(22.1576 0.000143037 0)
(22.0138 0.000142928 0)
(21.8705 0.000142944 0)
(21.7277 0.000142937 0)
(21.5852 0.000142926 0)
(21.4432 0.000142918 0)
(21.3017 0.000142912 0)
(21.1605 0.000142903 0)
(21.0198 0.000142893 0)
(20.8796 0.000142877 0)
(20.7398 0.000142856 0)
(20.6004 0.000142831 0)
(20.4615 0.000142806 0)
(20.3231 0.000142785 0)
(20.185 0.00014277 0)
(20.0475 0.000142761 0)
(19.9104 0.000142752 0)
(19.7737 0.000142747 0)
(19.6375 0.000142737 0)
(19.5018 0.000142727 0)
(19.3665 0.000142713 0)
(19.2317 0.000142693 0)
(19.0973 0.000142665 0)
(18.9634 0.000142621 0)
(18.83 0.000142556 0)
(18.697 0.000142465 0)
(18.5646 0.000142344 0)
(18.4325 0.000142195 0)
(18.301 0.000142007 0)
(18.1699 0.000141781 0)
(18.0393 0.000141511 0)
(17.9092 0.00014119 0)
(17.7795 0.000140813 0)
(17.6504 0.000140376 0)
(17.5217 0.00013987 0)
(17.3935 0.000139288 0)
(17.2658 0.000138618 0)
(17.1386 0.000137848 0)
(17.0118 0.000136963 0)
(16.8856 0.000135949 0)
(16.7599 0.000134787 0)
(16.6347 0.000133466 0)
(16.5099 0.000131973 0)
(16.3857 0.000130295 0)
(16.262 0.000128423 0)
(16.1388 0.00012635 0)
(16.0162 0.00012407 0)
(15.894 0.00012158 0)
(15.7724 0.000118877 0)
(15.6513 0.000115962 0)
(15.5308 0.000112839 0)
(15.4108 0.000109512 0)
(15.2913 0.000105991 0)
(15.1724 0.000102285 0)
(15.054 9.84078e-05 0)
(14.9362 9.43742e-05 0)
(14.8189 9.02022e-05 0)
(14.7022 8.59138e-05 0)
(14.5861 8.15281e-05 0)
(14.4705 7.70683e-05 0)
(14.3555 7.25583e-05 0)
(14.241 6.80228e-05 0)
(14.1271 6.34867e-05 0)
(14.0137 5.89747e-05 0)
(13.901 5.4511e-05 0)
(13.7887 5.01198e-05 0)
(13.6771 4.58195e-05 0)
(13.566 4.16355e-05 0)
(13.4555 3.75832e-05 0)
(13.3455 3.36791e-05 0)
(13.236 2.99376e-05 0)
(13.1272 2.63703e-05 0)
(13.0188 2.29864e-05 0)
(12.9111 1.97925e-05 0)
(12.8038 1.67922e-05 0)
(12.6972 1.39861e-05 0)
(12.591 1.13709e-05 0)
(12.4854 8.93777e-06 0)
(12.3803 6.67686e-06 0)
(12.2758 4.55689e-06 0)
(12.1718 2.45729e-06 0)
(12.0683 6.03507e-07 0)
(11.9653 -7.25742e-07 0)
(11.8629 -1.92921e-06 0)
(11.761 -3.00724e-06 0)
(11.6596 -3.9648e-06 0)
(11.5587 -4.80968e-06 0)
(11.4583 -5.5509e-06 0)
(11.3585 -6.19865e-06 0)
(11.2591 -6.75967e-06 0)
(11.1603 -7.24415e-06 0)
(11.062 -7.66047e-06 0)
(10.9642 -8.01623e-06 0)
(10.8669 -8.31877e-06 0)
(10.7701 -8.57475e-06 0)
(10.6739 -8.79035e-06 0)
(10.5781 -8.97108e-06 0)
(10.4829 -9.12186e-06 0)
(10.3881 -9.24698e-06 0)
(10.2939 -9.35051e-06 0)
(10.2001 -9.43648e-06 0)
(10.1069 -9.50588e-06 0)
(10.0142 -9.56289e-06 0)
(9.92194 -9.60936e-06 0)
(9.83022 -9.64697e-06 0)
(9.73901 -9.67732e-06 0)
(9.6483 -9.70175e-06 0)
(9.55809 -9.72136e-06 0)
(9.46839 -9.73705e-06 0)
(9.37919 -9.74956e-06 0)
(9.29049 -9.75934e-06 0)
(9.20229 -9.76753e-06 0)
(9.1146 -9.77436e-06 0)
(9.02741 -9.77905e-06 0)
(8.94071 -9.78311e-06 0)
(8.85452 -9.78645e-06 0)
(8.76883 -9.78912e-06 0)
(8.68364 -9.7913e-06 0)
(8.59895 -9.79312e-06 0)
(8.51476 -9.79465e-06 0)
(8.43106 -9.79595e-06 0)
(8.34787 -9.79704e-06 0)
(8.26517 -9.79777e-06 0)
(8.18297 -9.79888e-06 0)
(8.10127 -9.80005e-06 0)
(8.02006 -9.80034e-06 0)
(7.93935 -9.80096e-06 0)
(7.85913 -9.80159e-06 0)
(7.77941 -9.80216e-06 0)
(7.70018 -9.80268e-06 0)
(7.62145 -9.8032e-06 0)
(7.54321 -9.80369e-06 0)
(7.46546 -9.80415e-06 0)
(7.3882 -9.80456e-06 0)
(7.31143 -9.80468e-06 0)
(7.23516 -9.80529e-06 0)
(7.15937 -9.80598e-06 0)
(7.08407 -9.80587e-06 0)
(7.00926 -9.80616e-06 0)
(6.93494 -9.80651e-06 0)
(6.86111 -9.80683e-06 0)
(6.78776 -9.80716e-06 0)
(6.7149 -9.80748e-06 0)
(6.64252 -9.80775e-06 0)
(6.57062 -9.80798e-06 0)
(6.49921 -9.80814e-06 0)
(6.42828 -9.80793e-06 0)
(6.35783 -9.80846e-06 0)
(6.28786 -9.80871e-06 0)
(6.21838 -9.80843e-06 0)
(6.14937 -9.80853e-06 0)
(6.08084 -9.80867e-06 0)
(6.01278 -9.80879e-06 0)
(5.94521 -9.80887e-06 0)
(5.87811 -9.80892e-06 0)
(5.81148 -9.80896e-06 0)
(5.74533 -9.80899e-06 0)
(5.67965 -9.80902e-06 0)
(5.61445 -9.80861e-06 0)
(5.54971 -9.80953e-06 0)
(5.48545 -9.80929e-06 0)
(5.42165 -9.80901e-06 0)
(5.35833 -9.80892e-06 0)
(5.29547 -9.80877e-06 0)
(5.23308 -9.80858e-06 0)
(5.17115 -9.80841e-06 0)
(5.10969 -9.80828e-06 0)
(5.04869 -9.8082e-06 0)
(4.98816 -9.80813e-06 0)
(4.92809 -9.80801e-06 0)
(4.86847 -9.80743e-06 0)
(4.80932 -9.80842e-06 0)
(4.75063 -9.80752e-06 0)
(4.69239 -9.80718e-06 0)
(4.63461 -9.80689e-06 0)
(4.57728 -9.80653e-06 0)
(4.52041 -9.80618e-06 0)
(4.46399 -9.80584e-06 0)
(4.40802 -9.8055e-06 0)
(4.3525 -9.80518e-06 0)
(4.29743 -9.80485e-06 0)
(4.2428 -9.80423e-06 0)
(4.18863 -9.80428e-06 0)
(4.1349 -9.80417e-06 0)
(4.08161 -9.80335e-06 0)
(4.02877 -9.80288e-06 0)
(3.97636 -9.80239e-06 0)
(3.9244 -9.80187e-06 0)
(3.87287 -9.80133e-06 0)
(3.82178 -9.80076e-06 0)
(3.77113 -9.80018e-06 0)
(3.72091 -9.79957e-06 0)
(3.67113 -9.79885e-06 0)
(3.62177 -9.79797e-06 0)
(3.57285 -9.79829e-06 0)
(3.52436 -9.79702e-06 0)
(3.47629 -9.79628e-06 0)
(3.42864 -9.79559e-06 0)
(3.38143 -9.79485e-06 0)
(3.33463 -9.79409e-06 0)
(3.28825 -9.79329e-06 0)
(3.2423 -9.79244e-06 0)
(3.19676 -9.79154e-06 0)
(3.15164 -9.79059e-06 0)
(3.10693 -9.7891e-06 0)
(3.06263 -9.78945e-06 0)
(3.01875 -9.78782e-06 0)
(2.97527 -9.78681e-06 0)
(2.93221 -9.78579e-06 0)
(2.88955 -9.78466e-06 0)
(2.84729 -9.78353e-06 0)
(2.80543 -9.78241e-06 0)
(2.76398 -9.78134e-06 0)
(2.72293 -9.78025e-06 0)
(2.68227 -9.77908e-06 0)
(2.64201 -9.77725e-06 0)
(2.60214 -9.77722e-06 0)
(2.56266 -9.77513e-06 0)
(2.52358 -9.77366e-06 0)
(2.48488 -9.77231e-06 0)
(2.44657 -9.77096e-06 0)
(2.40864 -9.76964e-06 0)
(2.37109 -9.76826e-06 0)
(2.33392 -9.76679e-06 0)
(2.29713 -9.76523e-06 0)
(2.26072 -9.76356e-06 0)
(2.22468 -9.7613e-06 0)
(2.18901 -9.7608e-06 0)
(2.15372 -9.75834e-06 0)
(2.11879 -9.7565e-06 0)
(2.08423 -9.75461e-06 0)
(2.05003 -9.75292e-06 0)
(2.01619 -9.75096e-06 0)
(1.98271 -9.74951e-06 0)
(1.94959 -9.74724e-06 0)
(1.91682 -9.74619e-06 0)
(1.88441 -9.74309e-06 0)
(1.85235 -9.74229e-06 0)
(1.82063 -9.73876e-06 0)
(1.78927 -9.73979e-06 0)
(1.75824 -9.73229e-06 0)
(1.72756 -9.73755e-06 0)
(1.69722 -9.72523e-06 0)
(1.66722 -9.7371e-06 0)
(1.63754 -9.71691e-06 0)
(1.60821 -9.73808e-06 0)
(1.5792 -9.70445e-06 0)
(1.55053 -9.74337e-06 0)
(1.52217 -9.6984e-06 0)
(1.49415 -9.73699e-06 0)
(1.46644 -9.69367e-06 0)
(1.43906 -9.7253e-06 0)
(1.41198 -9.69366e-06 0)
(1.38524 -9.71681e-06 0)
(1.35878 -9.69208e-06 0)
(1.33266 -9.70653e-06 0)
(1.30682 -9.68626e-06 0)
(1.28132 -9.69101e-06 0)
(1.25609 -9.66804e-06 0)
(1.23118 -9.6603e-06 0)
(1.20655 -9.59289e-06 0)
(1.18224 -9.49793e-06 0)
(1.15818 -9.24345e-06 0)
(1.13444 -8.81009e-06 0)
(1.11094 -7.80706e-06 0)
(1.08771 -5.66827e-06 0)
(1.06464 2.70061e-07 0)
(1.0417 1.27183e-05 0)
(1.01859 3.88402e-05 0)
(0.994926 9.55026e-05 0)
(0.969593 0.000223449 0)
(0.940435 0.000557626 0)
(0.891736 0.00142358 0)
(0.853747 0.00840342 0)
(0.518277 0.0175526 0)
(42.6339 0.0001963 0)
(42.4707 0.000160045 0)
(42.2791 0.000146309 0)
(42.0972 0.000145524 0)
(41.9247 0.000145251 0)
(41.7541 0.000144759 0)
(41.5824 0.000144531 0)
(41.41 0.000144522 0)
(41.2374 0.000144634 0)
(41.0651 0.00014483 0)
(40.8928 0.000145092 0)
(40.7206 0.0001454 0)
(40.5485 0.000145738 0)
(40.3764 0.000146094 0)
(40.2044 0.000146456 0)
(40.0325 0.000146817 0)
(39.8606 0.000147169 0)
(39.6889 0.000147507 0)
(39.5172 0.000147828 0)
(39.3456 0.000148127 0)
(39.1741 0.000148403 0)
(39.0027 0.000148655 0)
(38.8313 0.000148881 0)
(38.6601 0.000149082 0)
(38.489 0.000149257 0)
(38.3181 0.000149409 0)
(38.1472 0.000149537 0)
(37.9764 0.000149645 0)
(37.8058 0.000149733 0)
(37.6353 0.000149804 0)
(37.465 0.000149859 0)
(37.2948 0.000149902 0)
(37.1247 0.000149931 0)
(36.9548 0.000149951 0)
(36.785 0.000149976 0)
(36.6153 0.000149976 0)
(36.4459 0.000149979 0)
(36.2765 0.000149979 0)
(36.1074 0.000149977 0)
(35.9384 0.000149973 0)
(35.7696 0.000149968 0)
(35.601 0.000149963 0)
(35.4325 0.000149957 0)
(35.2643 0.000149952 0)
(35.0962 0.000149947 0)
(34.9283 0.000149942 0)
(34.7606 0.000149938 0)
(34.5931 0.000149934 0)
(34.4258 0.000149931 0)
(34.2587 0.000149928 0)
(34.0919 0.000149926 0)
(33.9252 0.000149924 0)
(33.7588 0.000149922 0)
(33.5926 0.000149921 0)
(33.4266 0.00014992 0)
(33.2608 0.000149919 0)
(33.0953 0.000149919 0)
(32.93 0.000149919 0)
(32.7649 0.000149919 0)
(32.6001 0.000149919 0)
(32.4356 0.000149919 0)
(32.2712 0.000149919 0)
(32.1072 0.000149919 0)
(31.9434 0.000149919 0)
(31.7798 0.00014992 0)
(31.6166 0.000149919 0)
(31.4536 0.00014992 0)
(31.2908 0.00014992 0)
(31.1283 0.00014992 0)
(30.9662 0.00014992 0)
(30.8042 0.000149919 0)
(30.6426 0.000149919 0)
(30.4813 0.000149919 0)
(30.3202 0.000149919 0)
(30.1595 0.000149918 0)
(29.999 0.000149918 0)
(29.8389 0.000149917 0)
(29.679 0.000149916 0)
(29.5195 0.000149915 0)
(29.3602 0.000149913 0)
(29.2013 0.000149912 0)
(29.0427 0.00014991 0)
(28.8844 0.000149909 0)
(28.7264 0.000149907 0)
(28.5688 0.000149905 0)
(28.4115 0.000149904 0)
(28.2545 0.000149902 0)
(28.0978 0.000149899 0)
(27.9415 0.000149896 0)
(27.7855 0.000149892 0)
(27.6299 0.000149888 0)
(27.4746 0.000149883 0)
(27.3197 0.00014988 0)
(27.1651 0.000149878 0)
(27.0108 0.000149877 0)
(26.8569 0.000149877 0)
(26.7034 0.000149876 0)
(26.5502 0.000149874 0)
(26.3974 0.000149868 0)
(26.245 0.00014986 0)
(26.0929 0.00014985 0)
(25.9412 0.000149839 0)
(25.7899 0.000149826 0)
(25.639 0.000149813 0)
(25.4884 0.000149798 0)
(25.3382 0.000149782 0)
(25.1884 0.000149767 0)
(25.039 0.000149705 0)
(24.89 0.000149882 0)
(24.7413 0.000149654 0)
(24.5931 0.00014977 0)
(24.4453 0.000149751 0)
(24.2978 0.000149758 0)
(24.1508 0.000149761 0)
(24.0041 0.000149769 0)
(23.8579 0.000149777 0)
(23.712 0.000149786 0)
(23.5666 0.000149791 0)
(23.4216 0.00014979 0)
(23.277 0.000149782 0)
(23.1328 0.00014977 0)
(22.989 0.000149759 0)
(22.8457 0.000149691 0)
(22.7028 0.000149745 0)
(22.5603 0.000149664 0)
(22.4182 0.000149763 0)
(22.2765 0.000149591 0)
(22.1353 0.000149635 0)
(21.9945 0.000149638 0)
(21.8542 0.000149634 0)
(21.7142 0.000149631 0)
(21.5747 0.000149631 0)
(21.4357 0.000149627 0)
(21.2971 0.000149622 0)
(21.1589 0.000149607 0)
(21.0212 0.000149586 0)
(20.8839 0.000149561 0)
(20.7471 0.000149536 0)
(20.6107 0.000149517 0)
(20.4747 0.000149507 0)
(20.3393 0.000149502 0)
(20.2042 0.000149498 0)
(20.0696 0.000149497 0)
(19.9355 0.00014949 0)
(19.8019 0.000149482 0)
(19.6686 0.000149468 0)
(19.5359 0.000149449 0)
(19.4036 0.000149418 0)
(19.2718 0.000149366 0)
(19.1404 0.000149287 0)
(19.0095 0.000149176 0)
(18.8791 0.000149027 0)
(18.7492 0.000148844 0)
(18.6197 0.000148613 0)
(18.4907 0.000148336 0)
(18.3621 0.000148005 0)
(18.234 0.000147614 0)
(18.1064 0.000147156 0)
(17.9793 0.000146626 0)
(17.8527 0.000146017 0)
(17.7265 0.00014532 0)
(17.6008 0.00014452 0)
(17.4756 0.000143604 0)
(17.3509 0.000142554 0)
(17.2266 0.000141355 0)
(17.1029 0.000139985 0)
(16.9796 0.000138433 0)
(16.8568 0.000136685 0)
(16.7345 0.000134728 0)
(16.6127 0.000132555 0)
(16.4913 0.000130159 0)
(16.3705 0.000127534 0)
(16.2501 0.000124682 0)
(16.1303 0.0001216 0)
(16.0109 0.000118292 0)
(15.892 0.000114766 0)
(15.7736 0.000111028 0)
(15.6557 0.000107092 0)
(15.5383 0.00010297 0)
(15.4214 9.86797e-05 0)
(15.305 9.42387e-05 0)
(15.189 8.96688e-05 0)
(15.0736 8.49965e-05 0)
(14.9587 8.02427e-05 0)
(14.8442 7.54341e-05 0)
(14.7303 7.05975e-05 0)
(14.6168 6.576e-05 0)
(14.5039 6.09484e-05 0)
(14.3914 5.61891e-05 0)
(14.2795 5.15073e-05 0)
(14.168 4.69284e-05 0)
(14.057 4.2469e-05 0)
(13.9466 3.81573e-05 0)
(13.8366 3.40056e-05 0)
(13.7271 3.00297e-05 0)
(13.6181 2.62425e-05 0)
(13.5097 2.26534e-05 0)
(13.4017 1.92688e-05 0)
(13.2942 1.60945e-05 0)
(13.1872 1.31352e-05 0)
(13.0808 1.03932e-05 0)
(12.9748 7.86868e-06 0)
(12.8693 5.55674e-06 0)
(12.7643 3.46101e-06 0)
(12.6599 1.5972e-06 0)
(12.5559 1.71539e-07 0)
(12.4524 -1.53666e-06 0)
(12.3495 -2.85763e-06 0)
(12.247 -4.07045e-06 0)
(12.145 -5.15646e-06 0)
(12.0436 -6.1154e-06 0)
(11.9426 -6.95498e-06 0)
(11.8422 -7.68543e-06 0)
(11.7423 -8.31966e-06 0)
(11.6428 -8.86412e-06 0)
(11.5439 -9.33103e-06 0)
(11.4455 -9.72984e-06 0)
(11.3475 -1.00686e-05 0)
(11.2501 -1.0355e-05 0)
(11.1532 -1.05962e-05 0)
(11.0568 -1.07986e-05 0)
(10.9609 -1.09676e-05 0)
(10.8655 -1.11082e-05 0)
(10.7706 -1.12247e-05 0)
(10.6762 -1.13211e-05 0)
(10.5823 -1.14017e-05 0)
(10.4889 -1.14663e-05 0)
(10.3961 -1.15199e-05 0)
(10.3037 -1.1564e-05 0)
(10.2118 -1.16e-05 0)
(10.1204 -1.16296e-05 0)
(10.0296 -1.16538e-05 0)
(9.93922 -1.16737e-05 0)
(9.84937 -1.16902e-05 0)
(9.76001 -1.17039e-05 0)
(9.67116 -1.17151e-05 0)
(9.58281 -1.17252e-05 0)
(9.49496 -1.17342e-05 0)
(9.40761 -1.17407e-05 0)
(9.32077 -1.17469e-05 0)
(9.23442 -1.17525e-05 0)
(9.14858 -1.17575e-05 0)
(9.06323 -1.1762e-05 0)
(8.97839 -1.17662e-05 0)
(8.89404 -1.17701e-05 0)
(8.81019 -1.17737e-05 0)
(8.72684 -1.17772e-05 0)
(8.64399 -1.17801e-05 0)
(8.56163 -1.17836e-05 0)
(8.47978 -1.17873e-05 0)
(8.39841 -1.17895e-05 0)
(8.31755 -1.17923e-05 0)
(8.23718 -1.17951e-05 0)
(8.1573 -1.17977e-05 0)
(8.07792 -1.18003e-05 0)
(7.99903 -1.18028e-05 0)
(7.92063 -1.18052e-05 0)
(7.84273 -1.18076e-05 0)
(7.76532 -1.18098e-05 0)
(7.6884 -1.18116e-05 0)
(7.61197 -1.18141e-05 0)
(7.53603 -1.18166e-05 0)
(7.46057 -1.18179e-05 0)
(7.38561 -1.18198e-05 0)
(7.31113 -1.18217e-05 0)
(7.23715 -1.18235e-05 0)
(7.16364 -1.18252e-05 0)
(7.09062 -1.18269e-05 0)
(7.01809 -1.18286e-05 0)
(6.94604 -1.18301e-05 0)
(6.87447 -1.18315e-05 0)
(6.80339 -1.18322e-05 0)
(6.73279 -1.18341e-05 0)
(6.66267 -1.18356e-05 0)
(6.59302 -1.18361e-05 0)
(6.52386 -1.18372e-05 0)
(6.45518 -1.18383e-05 0)
(6.38697 -1.18393e-05 0)
(6.31924 -1.18402e-05 0)
(6.25198 -1.1841e-05 0)
(6.1852 -1.18418e-05 0)
(6.1189 -1.18426e-05 0)
(6.05307 -1.18432e-05 0)
(5.98771 -1.18432e-05 0)
(5.92282 -1.18451e-05 0)
(5.8584 -1.18453e-05 0)
(5.79445 -1.18453e-05 0)
(5.73097 -1.18456e-05 0)
(5.66796 -1.18458e-05 0)
(5.60541 -1.18459e-05 0)
(5.54333 -1.1846e-05 0)
(5.48172 -1.18461e-05 0)
(5.42057 -1.18461e-05 0)
(5.35988 -1.18462e-05 0)
(5.29965 -1.18461e-05 0)
(5.23988 -1.18453e-05 0)
(5.18058 -1.18469e-05 0)
(5.12173 -1.18455e-05 0)
(5.06334 -1.1845e-05 0)
(5.0054 -1.18445e-05 0)
(4.94792 -1.1844e-05 0)
(4.89089 -1.18433e-05 0)
(4.83432 -1.18426e-05 0)
(4.77819 -1.18419e-05 0)
(4.72252 -1.18411e-05 0)
(4.6673 -1.18403e-05 0)
(4.61252 -1.1839e-05 0)
(4.55819 -1.18386e-05 0)
(4.50431 -1.1838e-05 0)
(4.45087 -1.18363e-05 0)
(4.39787 -1.18351e-05 0)
(4.34531 -1.18338e-05 0)
(4.29319 -1.18324e-05 0)
(4.24151 -1.1831e-05 0)
(4.19027 -1.18294e-05 0)
(4.13947 -1.18278e-05 0)
(4.08909 -1.18261e-05 0)
(4.03916 -1.18242e-05 0)
(3.98965 -1.18221e-05 0)
(3.94057 -1.18217e-05 0)
(3.89192 -1.18188e-05 0)
(3.8437 -1.18167e-05 0)
(3.7959 -1.18147e-05 0)
(3.74853 -1.18125e-05 0)
(3.70158 -1.18103e-05 0)
(3.65505 -1.18079e-05 0)
(3.60894 -1.18055e-05 0)
(3.56325 -1.18029e-05 0)
(3.51798 -1.18002e-05 0)
(3.47312 -1.17967e-05 0)
(3.42867 -1.17959e-05 0)
(3.38463 -1.17921e-05 0)
(3.341 -1.17891e-05 0)
(3.29778 -1.17861e-05 0)
(3.25497 -1.17829e-05 0)
(3.21256 -1.17797e-05 0)
(3.17055 -1.17764e-05 0)
(3.12895 -1.17732e-05 0)
(3.08774 -1.17698e-05 0)
(3.04693 -1.17663e-05 0)
(3.00652 -1.17618e-05 0)
(2.9665 -1.176e-05 0)
(2.92687 -1.17551e-05 0)
(2.88763 -1.1751e-05 0)
(2.84878 -1.17471e-05 0)
(2.81031 -1.17431e-05 0)
(2.77223 -1.17391e-05 0)
(2.73453 -1.17349e-05 0)
(2.69721 -1.17306e-05 0)
(2.66027 -1.17261e-05 0)
(2.62371 -1.17215e-05 0)
(2.58751 -1.17159e-05 0)
(2.5517 -1.17129e-05 0)
(2.51625 -1.1707e-05 0)
(2.48117 -1.1702e-05 0)
(2.44645 -1.16968e-05 0)
(2.4121 -1.16919e-05 0)
(2.37811 -1.16863e-05 0)
(2.34448 -1.16818e-05 0)
(2.31121 -1.16756e-05 0)
(2.27829 -1.16716e-05 0)
(2.24572 -1.1664e-05 0)
(2.21351 -1.16604e-05 0)
(2.18164 -1.16519e-05 0)
(2.15013 -1.16508e-05 0)
(2.11895 -1.16366e-05 0)
(2.08812 -1.16403e-05 0)
(2.05763 -1.1621e-05 0)
(2.02747 -1.16306e-05 0)
(1.99765 -1.16059e-05 0)
(1.96817 -1.16206e-05 0)
(1.93901 -1.15868e-05 0)
(1.91018 -1.16205e-05 0)
(1.88167 -1.15883e-05 0)
(1.8535 -1.15915e-05 0)
(1.82564 -1.1583e-05 0)
(1.79811 -1.15585e-05 0)
(1.77088 -1.15827e-05 0)
(1.74398 -1.15434e-05 0)
(1.71738 -1.15644e-05 0)
(1.69111 -1.15207e-05 0)
(1.66512 -1.15341e-05 0)
(1.63946 -1.14685e-05 0)
(1.61408 -1.14614e-05 0)
(1.58903 -1.13331e-05 0)
(1.56425 -1.11568e-05 0)
(1.53978 -1.0668e-05 0)
(1.51559 -9.71483e-06 0)
(1.4917 -7.47218e-06 0)
(1.46805 -3.03483e-06 0)
(1.44467 5.69823e-06 0)
(1.42146 2.57236e-05 0)
(1.39835 6.95089e-05 0)
(1.37508 0.000162224 0)
(1.35123 0.00036195 0)
(1.32566 0.000790274 0)
(1.29612 0.00164907 0)
(1.24759 0.00320547 0)
(1.19963 0.0129906 0)
(0.920101 0.0158734 0)
(42.6339 0.000140688 0)
(42.4707 0.000113436 0)
(42.2791 0.000101505 0)
(42.0971 0.000104472 0)
(41.9247 0.000107067 0)
(41.7541 0.000108385 0)
(41.5824 0.000109552 0)
(41.4099 0.000110717 0)
(41.2374 0.000111809 0)
(41.0651 0.000112822 0)
(40.8928 0.000113769 0)
(40.7206 0.000114657 0)
(40.5485 0.000115488 0)
(40.3764 0.000116262 0)
(40.2044 0.000116983 0)
(40.0325 0.00011765 0)
(39.8606 0.000118267 0)
(39.6889 0.000118834 0)
(39.5172 0.000119353 0)
(39.3456 0.000119826 0)
(39.1741 0.000120254 0)
(39.0027 0.00012064 0)
(38.8313 0.000120985 0)
(38.6601 0.000121293 0)
(38.4891 0.000121565 0)
(38.3181 0.000121803 0)
(38.1472 0.000122011 0)
(37.9765 0.000122191 0)
(37.8058 0.000122346 0)
(37.6354 0.000122478 0)
(37.465 0.00012259 0)
(37.2948 0.000122685 0)
(37.1247 0.000122765 0)
(36.9548 0.000122825 0)
(36.785 0.00012289 0)
(36.6154 0.000122931 0)
(36.4459 0.000122968 0)
(36.2766 0.000123 0)
(36.1074 0.000123027 0)
(35.9385 0.00012305 0)
(35.7697 0.000123069 0)
(35.601 0.000123085 0)
(35.4326 0.0001231 0)
(35.2643 0.000123112 0)
(35.0963 0.000123123 0)
(34.9284 0.000123133 0)
(34.7607 0.000123143 0)
(34.5932 0.000123151 0)
(34.4259 0.000123159 0)
(34.2589 0.000123166 0)
(34.092 0.000123173 0)
(33.9253 0.000123179 0)
(33.7589 0.000123185 0)
(33.5927 0.000123191 0)
(33.4267 0.000123197 0)
(33.261 0.000123201 0)
(33.0954 0.000123207 0)
(32.9301 0.000123211 0)
(32.7651 0.000123216 0)
(32.6003 0.00012322 0)
(32.4357 0.000123224 0)
(32.2714 0.000123228 0)
(32.1074 0.000123232 0)
(31.9436 0.000123236 0)
(31.78 0.000123239 0)
(31.6168 0.000123242 0)
(31.4538 0.000123246 0)
(31.291 0.000123249 0)
(31.1286 0.000123251 0)
(30.9664 0.000123254 0)
(30.8045 0.000123257 0)
(30.6429 0.00012326 0)
(30.4815 0.000123262 0)
(30.3205 0.000123265 0)
(30.1598 0.000123267 0)
(29.9993 0.000123269 0)
(29.8392 0.000123272 0)
(29.6793 0.000123273 0)
(29.5198 0.000123275 0)
(29.3605 0.000123276 0)
(29.2016 0.000123278 0)
(29.043 0.000123279 0)
(28.8847 0.000123281 0)
(28.7268 0.000123282 0)
(28.5691 0.000123283 0)
(28.4118 0.000123284 0)
(28.2549 0.000123285 0)
(28.0982 0.000123286 0)
(27.9419 0.000123287 0)
(27.7859 0.000123287 0)
(27.6303 0.000123286 0)
(27.475 0.000123285 0)
(27.3201 0.000123286 0)
(27.1655 0.000123286 0)
(27.0113 0.000123288 0)
(26.8574 0.000123291 0)
(26.7039 0.000123292 0)
(26.5507 0.000123294 0)
(26.3979 0.000123293 0)
(26.2455 0.00012329 0)
(26.0934 0.000123286 0)
(25.9418 0.00012328 0)
(25.7905 0.000123273 0)
(25.6395 0.000123266 0)
(25.489 0.000123256 0)
(25.3388 0.000123247 0)
(25.189 0.000123237 0)
(25.0396 0.000123197 0)
(24.8906 0.000123336 0)
(24.742 0.000123163 0)
(24.5937 0.00012325 0)
(24.4459 0.000123243 0)
(24.2985 0.000123251 0)
(24.1514 0.000123257 0)
(24.0048 0.000123265 0)
(23.8586 0.000123274 0)
(23.7127 0.000123284 0)
(23.5673 0.00012329 0)
(23.4223 0.000123293 0)
(23.2777 0.00012329 0)
(23.1336 0.000123286 0)
(22.9898 0.000123279 0)
(22.8465 0.000123227 0)
(22.7036 0.00012328 0)
(22.5611 0.000123224 0)
(22.419 0.000123294 0)
(22.2774 0.000123172 0)
(22.1361 0.000123208 0)
(21.9954 0.000123209 0)
(21.855 0.000123213 0)
(21.7151 0.000123213 0)
(21.5756 0.000123215 0)
(21.4366 0.000123215 0)
(21.298 0.000123213 0)
(21.1598 0.000123205 0)
(21.0221 0.000123193 0)
(20.8849 0.000123178 0)
(20.748 0.000123164 0)
(20.6117 0.000123153 0)
(20.4758 0.000123148 0)
(20.3403 0.000123147 0)
(20.2053 0.000123147 0)
(20.0707 0.000123147 0)
(19.9366 0.000123143 0)
(19.8029 0.000123137 0)
(19.6697 0.000123125 0)
(19.537 0.000123108 0)
(19.4047 0.00012308 0)
(19.2729 0.000123035 0)
(19.1416 0.000122967 0)
(19.0107 0.000122873 0)
(18.8803 0.000122749 0)
(18.7504 0.000122593 0)
(18.6209 0.000122397 0)
(18.4919 0.000122162 0)
(18.3634 0.000121879 0)
(18.2353 0.000121543 0)
(18.1077 0.000121152 0)
(17.9806 0.000120692 0)
(17.854 0.000120167 0)
(17.7278 0.000119563 0)
(17.6022 0.000118869 0)
(17.477 0.000118073 0)
(17.3522 0.000117161 0)
(17.228 0.00011612 0)
(17.1042 0.000114933 0)
(16.981 0.000113591 0)
(16.8582 0.000112082 0)
(16.7359 0.000110397 0)
(16.6141 0.00010853 0)
(16.4927 0.000106475 0)
(16.3719 0.000104228 0)
(16.2515 0.000101791 0)
(16.1316 9.91631e-05 0)
(16.0123 9.63482e-05 0)
(15.8934 9.33509e-05 0)
(15.775 9.01809e-05 0)
(15.657 8.68482e-05 0)
(15.5396 8.33645e-05 0)
(15.4227 7.97459e-05 0)
(15.3062 7.60075e-05 0)
(15.1903 7.21691e-05 0)
(15.0748 6.82515e-05 0)
(14.9599 6.42744e-05 0)
(14.8454 6.0261e-05 0)
(14.7314 5.62343e-05 0)
(14.6179 5.22176e-05 0)
(14.505 4.82337e-05 0)
(14.3925 4.43048e-05 0)
(14.2805 4.04519e-05 0)
(14.169 3.66959e-05 0)
(14.058 3.30516e-05 0)
(13.9475 2.95406e-05 0)
(13.8375 2.61732e-05 0)
(13.728 2.2962e-05 0)
(13.619 1.99168e-05 0)
(13.5105 1.70446e-05 0)
(13.4025 1.43498e-05 0)
(13.295 1.18365e-05 0)
(13.188 9.50848e-06 0)
(13.0815 7.36815e-06 0)
(12.9755 5.41725e-06 0)
(12.87 3.65227e-06 0)
(12.765 2.06045e-06 0)
(12.6605 6.03741e-07 0)
(12.5565 -6.69081e-07 0)
(12.4531 -1.86359e-06 0)
(12.3501 -2.97506e-06 0)
(12.2476 -3.93709e-06 0)
(12.1457 -4.77846e-06 0)
(12.0442 -5.51291e-06 0)
(11.9432 -6.15179e-06 0)
(11.8428 -6.70546e-06 0)
(11.7428 -7.18496e-06 0)
(11.6434 -7.59609e-06 0)
(11.5445 -7.948e-06 0)
(11.446 -8.2482e-06 0)
(11.3481 -8.50282e-06 0)
(11.2507 -8.71776e-06 0)
(11.1538 -8.89839e-06 0)
(11.0574 -9.0495e-06 0)
(10.9614 -9.17538e-06 0)
(10.866 -9.27976e-06 0)
(10.7712 -9.36585e-06 0)
(10.6768 -9.43681e-06 0)
(10.5829 -9.49569e-06 0)
(10.4895 -9.54259e-06 0)
(10.3966 -9.58115e-06 0)
(10.3042 -9.61263e-06 0)
(10.2124 -9.63805e-06 0)
(10.121 -9.6586e-06 0)
(10.0301 -9.6752e-06 0)
(9.93978 -9.6886e-06 0)
(9.84992 -9.69942e-06 0)
(9.76057 -9.70816e-06 0)
(9.67171 -9.71507e-06 0)
(9.58336 -9.72117e-06 0)
(9.49552 -9.72642e-06 0)
(9.40817 -9.7299e-06 0)
(9.32132 -9.73317e-06 0)
(9.23498 -9.73604e-06 0)
(9.14913 -9.73845e-06 0)
(9.06379 -9.74052e-06 0)
(8.97894 -9.74235e-06 0)
(8.89459 -9.74398e-06 0)
(8.81074 -9.74544e-06 0)
(8.72739 -9.74674e-06 0)
(8.64454 -9.74772e-06 0)
(8.56219 -9.74915e-06 0)
(8.48033 -9.7506e-06 0)
(8.39897 -9.75112e-06 0)
(8.3181 -9.75199e-06 0)
(8.23773 -9.7529e-06 0)
(8.15785 -9.75371e-06 0)
(8.07847 -9.75447e-06 0)
(7.99958 -9.75519e-06 0)
(7.92119 -9.75587e-06 0)
(7.84328 -9.7565e-06 0)
(7.76587 -9.75703e-06 0)
(7.68895 -9.75731e-06 0)
(7.61252 -9.75806e-06 0)
(7.53658 -9.75885e-06 0)
(7.46113 -9.75878e-06 0)
(7.38616 -9.75908e-06 0)
(7.31169 -9.75948e-06 0)
(7.2377 -9.75979e-06 0)
(7.16419 -9.76008e-06 0)
(7.09118 -9.76034e-06 0)
(7.01864 -9.76054e-06 0)
(6.94659 -9.76067e-06 0)
(6.87503 -9.76069e-06 0)
(6.80394 -9.76037e-06 0)
(6.73334 -9.76078e-06 0)
(6.66322 -9.76086e-06 0)
(6.59358 -9.76035e-06 0)
(6.52441 -9.76022e-06 0)
(6.45573 -9.76013e-06 0)
(6.38752 -9.75997e-06 0)
(6.31979 -9.75977e-06 0)
(6.25253 -9.75951e-06 0)
(6.18575 -9.75922e-06 0)
(6.11945 -9.7589e-06 0)
(6.05362 -9.75852e-06 0)
(5.98826 -9.75778e-06 0)
(5.92337 -9.75826e-06 0)
(5.85895 -9.75759e-06 0)
(5.795 -9.75681e-06 0)
(5.73152 -9.75625e-06 0)
(5.66851 -9.75562e-06 0)
(5.60596 -9.75493e-06 0)
(5.54388 -9.75422e-06 0)
(5.48227 -9.75353e-06 0)
(5.42112 -9.75285e-06 0)
(5.36043 -9.75215e-06 0)
(5.3002 -9.75135e-06 0)
(5.24043 -9.7502e-06 0)
(5.18113 -9.75046e-06 0)
(5.12228 -9.74889e-06 0)
(5.06389 -9.74777e-06 0)
(5.00595 -9.74677e-06 0)
(4.94847 -9.74566e-06 0)
(4.89144 -9.74452e-06 0)
(4.83487 -9.74337e-06 0)
(4.77874 -9.74219e-06 0)
(4.72307 -9.741e-06 0)
(4.66785 -9.73976e-06 0)
(4.61307 -9.73825e-06 0)
(4.55874 -9.73737e-06 0)
(4.50486 -9.73628e-06 0)
(4.45141 -9.73448e-06 0)
(4.39842 -9.73299e-06 0)
(4.34586 -9.73148e-06 0)
(4.29374 -9.72991e-06 0)
(4.24206 -9.72827e-06 0)
(4.19082 -9.72661e-06 0)
(4.14001 -9.72488e-06 0)
(4.08964 -9.72311e-06 0)
(4.0397 -9.7212e-06 0)
(3.9902 -9.71918e-06 0)
(3.94112 -9.71822e-06 0)
(3.89247 -9.71573e-06 0)
(3.84425 -9.71366e-06 0)
(3.79645 -9.71168e-06 0)
(3.74908 -9.70961e-06 0)
(3.70213 -9.70748e-06 0)
(3.6556 -9.70529e-06 0)
(3.60949 -9.70303e-06 0)
(3.5638 -9.70069e-06 0)
(3.51852 -9.69823e-06 0)
(3.47366 -9.69537e-06 0)
(3.42921 -9.69412e-06 0)
(3.38518 -9.69101e-06 0)
(3.34155 -9.68837e-06 0)
(3.29833 -9.68576e-06 0)
(3.25552 -9.68302e-06 0)
(3.21311 -9.68025e-06 0)
(3.1711 -9.67745e-06 0)
(3.12949 -9.67467e-06 0)
(3.08829 -9.67182e-06 0)
(3.04748 -9.66885e-06 0)
(3.00706 -9.66531e-06 0)
(2.96704 -9.66338e-06 0)
(2.92741 -9.65954e-06 0)
(2.88817 -9.65615e-06 0)
(2.84932 -9.65292e-06 0)
(2.81086 -9.64964e-06 0)
(2.77278 -9.64633e-06 0)
(2.73508 -9.64296e-06 0)
(2.69776 -9.63946e-06 0)
(2.66082 -9.63585e-06 0)
(2.62425 -9.63208e-06 0)
(2.58806 -9.62779e-06 0)
(2.55224 -9.62509e-06 0)
(2.51679 -9.62058e-06 0)
(2.48171 -9.61648e-06 0)
(2.447 -9.61247e-06 0)
(2.41264 -9.60842e-06 0)
(2.37865 -9.60442e-06 0)
(2.34502 -9.60025e-06 0)
(2.31175 -9.59636e-06 0)
(2.27883 -9.5917e-06 0)
(2.24627 -9.58822e-06 0)
(2.21405 -9.58189e-06 0)
(2.18219 -9.581e-06 0)
(2.15067 -9.57215e-06 0)
(2.1195 -9.57373e-06 0)
(2.08866 -9.56087e-06 0)
(2.05817 -9.56926e-06 0)
(2.02802 -9.55039e-06 0)
(1.99819 -9.56821e-06 0)
(1.96871 -9.53992e-06 0)
(1.93955 -9.56121e-06 0)
(1.91072 -9.5457e-06 0)
(1.88222 -9.58381e-06 0)
(1.85405 -9.49513e-06 0)
(1.82618 -9.58151e-06 0)
(1.79865 -9.43648e-06 0)
(1.77142 -9.6147e-06 0)
(1.74453 -9.39831e-06 0)
(1.71792 -9.64101e-06 0)
(1.69165 -9.34582e-06 0)
(1.66566 -9.63055e-06 0)
(1.64 -9.26517e-06 0)
(1.61462 -9.52198e-06 0)
(1.58957 -9.11867e-06 0)
(1.56479 -9.07007e-06 0)
(1.54033 -8.14857e-06 0)
(1.51613 -6.84085e-06 0)
(1.49224 -3.17623e-06 0)
(1.4686 4.75659e-06 0)
(1.44523 2.21574e-05 0)
(1.42205 5.89496e-05 0)
(1.39902 0.000139372 0)
(1.37592 0.000310071 0)
(1.35245 0.000694915 0)
(1.32775 0.0016751 0)
(1.30013 0.00431816 0)
(1.25637 0.0116424 0)
(1.22215 0.042893 0)
(0.981401 0.0750688 0)
(42.6339 9.13593e-05 0)
(42.4706 9.35513e-05 0)