/*--------------------------------*- C++ -*----------------------------------*\
| =========                 |                                                 |
| \\      /  F ield         | OpenFOAM: The Open Source CFD Toolbox           |
|  \\    /   O peration     | Version:  3.0.x                                 |
|   \\  /    A nd           | Web:      www.OpenFOAM.org                      |
|    \\/     M anipulation  |                                                 |
\*---------------------------------------------------------------------------*/
FoamFile
{
    version     2.0;
    format      ascii;
    class       volScalarField;
    location    "0.58";
    object      rho;
}
// * * * * * * * * * * * * * * * * * * * * * * * * * * * * * * * * * * * * * //

dimensions      [1 -3 0 0 0 0 0];

internalField   nonuniform List<scalar> 
6900
(
54.2139
54.2177
54.2238
54.2297
54.2352
54.2405
54.2454
54.2498
54.254
54.2578
54.2613
54.2644
54.267
54.2693
54.2715
54.2736
54.2755
54.2772
54.2787
54.2803
54.2818
54.2833
54.2847
54.2862
54.2876
54.289
54.2903
54.2917
54.293
54.2943
54.2955
54.2967
54.2979
54.2991
54.3002
54.3013
54.3024
54.3034
54.3044
54.3054
54.3063
54.3073
54.3081
54.309
54.3099
54.3107
54.3115
54.3122
54.3129
54.3136
54.3144
54.3152
54.316
54.3168
54.3176
54.3183
54.319
54.3196
54.3202
54.3208
54.3213
54.3218
54.3224
54.3229
54.3235
54.3241
54.3248
54.3254
54.3259
54.3264
54.3268
54.3272
54.3275
54.3277
54.3279
54.3281
54.3283
54.3286
54.3288
54.3289
54.3291
54.3292
54.3292
54.3292
54.3291
54.329
54.3288
54.3286
54.3283
54.3281
54.3278
54.3274
54.3271
54.3267
54.3262
54.3258
54.3253
54.3248
54.3243
54.3238
54.3233
54.3227
54.3221
54.3215
54.3209
54.3202
54.3195
54.3188
54.3181
54.3174
54.3166
54.3158
54.315
54.3142
54.3134
54.3125
54.3116
54.3107
54.3098
54.3088
54.3079
54.3069
54.3058
54.3048
54.3037
54.3026
54.3015
54.3003
54.2992
54.298
54.2968
54.2955
54.2943
54.293
54.2917
54.2904
54.2891
54.2877
54.2863
54.2849
54.2835
54.2821
54.2807
54.2792
54.2777
54.2763
54.2748
54.2733
54.2717
54.2702
54.2687
54.2671
54.2655
54.264
54.2624
54.2608
54.2592
54.2576
54.2559
54.2543
54.2526
54.251
54.2493
54.2476
54.2459
54.2442
54.2425
54.2409
54.2392
54.2375
54.2358
54.2341
54.2324
54.2307
54.229
54.2273
54.2256
54.2238
54.2221
54.2204
54.2187
54.2168
54.2152
54.2133
54.2117
54.2097
54.2082
54.2062
54.2047
54.2027
54.2013
54.1993
54.1979
54.196
54.1946
54.1929
54.1911
54.1898
54.188
54.1864
54.2142
54.218
54.2241
54.23
54.2355
54.2407
54.2456
54.2501
54.2542
54.2581
54.2616
54.2646
54.2673
54.2696
54.2718
54.2738
54.2757
54.2775
54.279
54.2805
54.282
54.2835
54.285
54.2864
54.2879
54.2892
54.2906
54.2919
54.2932
54.2945
54.2958
54.297
54.2982
54.2993
54.3004
54.3015
54.3026
54.3036
54.3046
54.3056
54.3066
54.3075
54.3084
54.3093
54.3101
54.3109
54.3117
54.3125
54.3132
54.3139
54.3146
54.3154
54.3162
54.317
54.3178
54.3185
54.3192
54.3198
54.3204
54.321
54.3215
54.322
54.3226
54.3231
54.3237
54.3243
54.3249
54.3255
54.3261
54.3266
54.327
54.3274
54.3276
54.3279
54.3281
54.3283
54.3285
54.3287
54.3289
54.3291
54.3292
54.3293
54.3294
54.3293
54.3293
54.3291
54.329
54.3288
54.3285
54.3282
54.3279
54.3276
54.3272
54.3268
54.3264
54.326
54.3255
54.325
54.3245
54.324
54.3234
54.3229
54.3223
54.3217
54.321
54.3204
54.3197
54.319
54.3183
54.3175
54.3168
54.316
54.3152
54.3144
54.3136
54.3127
54.3118
54.3109
54.31
54.309
54.308
54.307
54.306
54.3049
54.3039
54.3028
54.3017
54.3005
54.2993
54.2982
54.2969
54.2957
54.2945
54.2932
54.2919
54.2906
54.2892
54.2879
54.2865
54.2851
54.2837
54.2823
54.2808
54.2794
54.2779
54.2764
54.2749
54.2734
54.2719
54.2704
54.2688
54.2673
54.2657
54.2641
54.2625
54.261
54.2593
54.2577
54.2561
54.2544
54.2528
54.2511
54.2495
54.2478
54.2461
54.2444
54.2427
54.241
54.2393
54.2376
54.2359
54.2342
54.2325
54.2308
54.2292
54.2274
54.2257
54.224
54.2223
54.2205
54.2188
54.217
54.2153
54.2134
54.2119
54.2099
54.2084
54.2064
54.2049
54.2029
54.2015
54.1995
54.1981
54.1961
54.1947
54.1928
54.1915
54.1897
54.1884
54.1867
54.2142
54.218
54.2241
54.23
54.2355
54.2407
54.2456
54.2501
54.2542
54.2581
54.2616
54.2646
54.2673
54.2696
54.2718
54.2738
54.2757
54.2774
54.279
54.2805
54.282
54.2835
54.285
54.2864
54.2878
54.2892
54.2906
54.2919
54.2932
54.2945
54.2958
54.297
54.2982
54.2993
54.3004
54.3015
54.3026
54.3036
54.3046
54.3056
54.3066
54.3075
54.3084
54.3093
54.3101
54.3109
54.3117
54.3125
54.3132
54.3139
54.3146
54.3154
54.3162
54.317
54.3178
54.3185
54.3192
54.3198
54.3204
54.321
54.3215
54.322
54.3226
54.3231
54.3237
54.3243
54.3249
54.3255
54.3261
54.3266
54.327
54.3274
54.3276
54.3279
54.3281
54.3283
54.3285
54.3287
54.3289
54.3291
54.3292
54.3293
54.3294
54.3293
54.3293
54.3291
54.329
54.3288
54.3285
54.3282
54.3279
54.3276
54.3272
54.3268
54.3264
54.326
54.3255
54.325
54.3245
54.324
54.3234
54.3229
54.3223
54.3217
54.321
54.3204
54.3197
54.319
54.3183
54.3175
54.3168
54.316
54.3152
54.3144
54.3136
54.3127
54.3118
54.3109
54.31
54.309
54.308
54.307
54.306
54.3049
54.3039
54.3028
54.3017
54.3005
54.2993
54.2982
54.2969
54.2957
54.2945
54.2932
54.2919
54.2906
54.2892
54.2879
54.2865
54.2851
54.2837
54.2823
54.2808
54.2794
54.2779
54.2764
54.2749
54.2734
54.2719
54.2704
54.2688
54.2673
54.2657
54.2641
54.2625
54.261
54.2593
54.2577
54.2561
54.2544
54.2528
54.2511
54.2495
54.2478
54.2461
54.2444
54.2427
54.241
54.2393
54.2376
54.2359
54.2342
54.2325
54.2308
54.2291
54.2274
54.2257
54.224
54.2223
54.2205
54.2188
54.217
54.2153
54.2135
54.2118
54.21
54.2083
54.2065
54.2048
54.2031
54.2014
54.1996
54.198
54.1962
54.1946
54.193
54.1913
54.1897
54.1883
54.1867
54.2142
54.218
54.2241
54.23
54.2355
54.2407
54.2456
54.2501
54.2542
54.2581
54.2616
54.2646
54.2673
54.2696
54.2718
54.2738
54.2757
54.2775
54.279
54.2805
54.282
54.2835
54.285
54.2864
54.2879
54.2892
54.2906
54.2919
54.2932
54.2945
54.2958
54.297
54.2982
54.2993
54.3004
54.3015
54.3026
54.3036
54.3046
54.3056
54.3066
54.3075
54.3084
54.3093
54.3101
54.3109
54.3117
54.3125
54.3132
54.3139
54.3146
54.3154
54.3162
54.317
54.3178
54.3185
54.3192
54.3198
54.3204
54.321
54.3215
54.322
54.3226
54.3231
54.3237
54.3243
54.3249
54.3255
54.3261
54.3266
54.327
54.3274
54.3276
54.3279
54.3281
54.3283
54.3285
54.3287
54.3289
54.3291
54.3292
54.3293
54.3294
54.3293
54.3293
54.3291
54.329
54.3288
54.3285
54.3282
54.3279
54.3276
54.3272
54.3268
54.3264
54.326
54.3255
54.325
54.3245
54.324
54.3234
54.3229
54.3223
54.3217
54.321
54.3204
54.3197
54.319
54.3183
54.3175
54.3168
54.316
54.3152
54.3144
54.3136
54.3127
54.3118
54.3109
54.31
54.309
54.308
54.307
54.306
54.3049
54.3039
54.3028
54.3017
54.3005
54.2993
54.2982
54.2969
54.2957
54.2945
54.2932
54.2919
54.2906
54.2892
54.2879
54.2865
54.2851
54.2837
54.2823
54.2808
54.2794
54.2779
54.2764
54.2749
54.2734
54.2719
54.2704
54.2688
54.2673
54.2657
54.2641
54.2625
54.261
54.2593
54.2577
54.2561
54.2544
54.2528
54.2511
54.2495
54.2478
54.2461
54.2444
54.2427
54.241
54.2393
54.2376
54.2359
54.2342
54.2325
54.2309
54.2291
54.2274
54.2257
54.224
54.2223
54.2206
54.2187
54.2171
54.2152
54.2136
54.2117
54.2101
54.2081
54.2066
54.2046
54.2032
54.2012
54.1998
54.1978
54.1964
54.1945
54.1931
54.1912
54.1899
54.1885
54.1863
54.2139
54.2177
54.2238
54.2297
54.2352
54.2405
54.2454
54.2498
54.254
54.2578
54.2613
54.2644
54.267
54.2693
54.2715
54.2736
54.2755
54.2772
54.2787
54.2803
54.2818
54.2833
54.2847
54.2862
54.2876
54.289
54.2903
54.2917
54.293
54.2943
54.2955
54.2967
54.2979
54.2991
54.3002
54.3013
54.3024
54.3034
54.3044
54.3054
54.3063
54.3073
54.3081
54.309
54.3099
54.3107
54.3115
54.3122
54.3129
54.3136
54.3144
54.3152
54.316
54.3168
54.3176
54.3183
54.319
54.3196
54.3202
54.3208
54.3213
54.3218
54.3224
54.3229
54.3235
54.3241
54.3248
54.3254
54.3259
54.3264
54.3268
54.3272
54.3275
54.3277
54.3279
54.3281
54.3283
54.3286
54.3288
54.3289
54.3291
54.3292
54.3292
54.3292
54.3291
54.329
54.3288
54.3286
54.3283
54.3281
54.3278
54.3274
54.3271
54.3267
54.3262
54.3258
54.3253
54.3248
54.3243
54.3238
54.3233
54.3227
54.3221
54.3215
54.3209
54.3202
54.3195
54.3188
54.3181
54.3174
54.3166
54.3158
54.315
54.3142
54.3134
54.3125
54.3116
54.3107
54.3098
54.3088
54.3079
54.3069
54.3058
54.3048
54.3037
54.3026
54.3015
54.3003
54.2992
54.298
54.2968
54.2955
54.2943
54.293
54.2917
54.2904
54.2891
54.2877
54.2863
54.2849
54.2835
54.2821
54.2807
54.2792
54.2777
54.2763
54.2748
54.2733
54.2717
54.2702
54.2687
54.2671
54.2655
54.264
54.2624
54.2608
54.2592
54.2576
54.2559
54.2543
54.2526
54.251
54.2493
54.2476
54.2459
54.2442
54.2425
54.2409
54.2392
54.2375
54.2358
54.2341
54.2324
54.2307
54.229
54.2273
54.2256
54.2239
54.2221
54.2204
54.2186
54.2169
54.215
54.2134
54.2115
54.21
54.208
54.2065
54.2045
54.203
54.201
54.1996
54.1976
54.1962
54.1943
54.193
54.1911
54.1896
54.1885
54.1861
54.1858
54.1856
54.1854
54.1851
54.1847
54.1843
54.184
54.1836
54.1835
54.1836
54.1837
54.1832
54.1822
54.1813
54.1797
54.1784
54.178
54.1783
54.1785
54.1792
54.1859
54.1856
54.1853
54.1849
54.1846
54.1842
54.1837
54.1834
54.1834
54.1837
54.1837
54.183
54.1819
54.1811
54.1803
54.1792
54.1787
54.1787
54.1787
54.1786
54.1858
54.1855
54.1852
54.1849
54.1845
54.1841
54.1837
54.1833
54.1828
54.1823
54.1818
54.1813
54.1808
54.1801
54.1793
54.1787
54.178
54.1772
54.176
54.1752
54.1851
54.1849
54.1848
54.1845
54.1842
54.1839
54.1836
54.1833
54.1831
54.1828
54.1824
54.1821
54.1818
54.1814
54.1811
54.1808
54.1805
54.1801
54.1796
54.179
54.1846
54.1842
54.1839
54.1835
54.1832
54.1829
54.1826
54.1823
54.182
54.1817
54.1814
54.1811
54.1809
54.1806
54.1803
54.1801
54.1798
54.1795
54.1792
54.179
54.18
54.1756
54.1723
54.1714
54.1731
54.171
54.166
54.1656
54.1707
54.1677
54.1626
54.162
54.1692
54.1711
54.1597
54.1571
54.1583
54.1653
54.1756
54.1605
54.1506
54.1523
54.1542
54.1646
54.1779
54.162
54.146
54.1467
54.1518
54.1715
54.1786
54.1563
54.1431
54.1422
54.1421
54.1417
54.1411
54.1405
54.1402
54.1404
54.1416
54.1463
54.1713
54.1747
54.1491
54.1378
54.1376
54.1375
54.1371
54.1366
54.1362
54.1358
54.1355
54.1353
54.1351
54.1349
54.1347
54.1345
54.1344
54.1343
54.1341
54.134
54.134
54.134
54.134
54.134
54.1341
54.1342
54.1344
54.1345
54.1347
54.1349
54.1351
54.1353
54.1355
54.1356
54.1358
54.1359
54.1361
54.1362
54.1362
54.1363
54.1364
54.1365
54.1365
54.1365
54.1365
54.1365
54.1365
54.1366
54.1368
54.1373
54.1382
54.1391
54.1411
54.1473
54.1473
54.1418
54.1375
54.1377
54.1387
54.1394
54.1402
54.1409
54.1412
54.1416
54.1422
54.1428
54.1433
54.1431
54.143
54.1435
54.1443
54.1446
54.1426
54.1382
54.1372
54.1386
54.1443
54.1498
54.152
54.1523
54.1519
54.1515
54.1513
54.1512
54.1512
54.1512
54.1512
54.1512
54.1513
54.1513
54.1514
54.1514
54.1515
54.1515
54.1516
54.1516
54.1517
54.1517
54.1518
54.1518
54.1519
54.152
54.152
54.1521
54.1521
54.1522
54.1522
54.1522
54.1523
54.1523
54.1524
54.1524
54.1525
54.1525
54.1525
54.1526
54.1526
54.1527
54.1527
54.1528
54.1528
54.1528
54.1529
54.1529
54.153
54.153
54.1531
54.1531
54.1532
54.1532
54.1532
54.1533
54.1533
54.1534
54.1534
54.1534
54.1534
54.1535
54.1535
54.1536
54.1536
54.1537
54.1537
54.1538
54.1538
54.154
54.1539
54.1541
54.1541
54.1543
54.1543
54.1545
54.1545
54.1546
54.1547
54.1547
54.155
54.1551
54.1777
54.1743
54.1716
54.1681
54.1662
54.1652
54.1635
54.1621
54.1612
54.1587
54.1574
54.1569
54.1582
54.1591
54.1521
54.1531
54.1524
54.1531
54.162
54.1495
54.1467
54.1492
54.1461
54.1518
54.1644
54.1508
54.1419
54.1444
54.1453
54.1591
54.1657
54.1471
54.1399
54.1402
54.1405
54.1402
54.1397
54.1392
54.1391
54.1399
54.1406
54.138
54.1595
54.1632
54.1413
54.1351
54.1358
54.1361
54.1358
54.1354
54.135
54.1347
54.1345
54.1343
54.1341
54.1339
54.1337
54.1335
54.1333
54.1332
54.133
54.1329
54.1328
54.1328
54.1329
54.1329
54.1331
54.1332
54.1334
54.1336
54.1338
54.134
54.1342
54.1344
54.1346
54.1348
54.1349
54.1351
54.1352
54.1352
54.1353
54.1354
54.1354
54.1354
54.1353
54.1353
54.1353
54.1354
54.1355
54.1355
54.1356
54.1356
54.1356
54.1366
54.139
54.145
54.1451
54.1397
54.136
54.1363
54.1372
54.1377
54.1382
54.139
54.1397
54.1403
54.14
54.14
54.1405
54.1412
54.1418
54.1415
54.1381
54.1353
54.1347
54.1355
54.1387
54.1446
54.1491
54.1514
54.152
54.1518
54.1515
54.1513
54.1512
54.1512
54.1512
54.1513
54.1513
54.1513
54.1514
54.1514
54.1515
54.1515
54.1516
54.1517
54.1517
54.1518
54.1518
54.1519
54.1519
54.152
54.152
54.1521
54.1521
54.1522
54.1522
54.1523
54.1523
54.1524
54.1524
54.1525
54.1525
54.1526
54.1526
54.1526
54.1527
54.1527
54.1528
54.1528
54.1528
54.1529
54.1529
54.153
54.153
54.1531
54.1531
54.1532
54.1532
54.1533
54.1533
54.1533
54.1534
54.1534
54.1534
54.1535
54.1535
54.1536
54.1536
54.1537
54.1536
54.1537
54.1537
54.1538
54.1538
54.154
54.1539
54.1541
54.1541
54.1542
54.1542
54.1544
54.1544
54.1546
54.1546
54.1548
54.1548
54.1549
54.1551
54.155
54.1712
54.1666
54.1627
54.159
54.1551
54.1516
54.1487
54.1459
54.143
54.1411
54.1396
54.1382
54.136
54.1344
54.1339
54.133
54.1323
54.1305
54.128
54.128
54.1273
54.1273
54.1265
54.1246
54.122
54.1222
54.1224
54.1223
54.1231
54.1204
54.1178
54.1192
54.1202
54.1208
54.1212
54.1213
54.1212
54.1208
54.1201
54.1191
54.1181
54.1176
54.1145
54.1128
54.1151
54.1167
54.1176
54.1182
54.1185
54.1184
54.1183
54.1181
54.1179
54.1177
54.1174
54.1172
54.1169
54.1167
54.1165
54.1163
54.1162
54.1162
54.1162
54.1162
54.1162
54.1162
54.1162
54.1163
54.1164
54.1165
54.1165
54.1165
54.1164
54.1163
54.1162
54.1161
54.116
54.1157
54.1155
54.1156
54.1161
54.1176
54.1194
54.1218
54.125
54.1277
54.1301
54.1321
54.1338
54.1349
54.1356
54.1359
54.1364
54.1373
54.1378
54.1367
54.136
54.1359
54.1363
54.1368
54.1374
54.1381
54.1388
54.1396
54.1403
54.1411
54.1418
54.1425
54.1432
54.1438
54.1445
54.1452
54.146
54.1467
54.1475
54.1482
54.1488
54.1494
54.1498
54.1501
54.1503
54.1504
54.1506
54.1507
54.1508
54.1509
54.151
54.1511
54.1512
54.1513
54.1513
54.1514
54.1515
54.1515
54.1516
54.1516
54.1517
54.1518
54.1518
54.1519
54.1519
54.152
54.152
54.1521
54.1521
54.1522
54.1522
54.1523
54.1523
54.1524
54.1524
54.1525
54.1525
54.1526
54.1526
54.1526
54.1527
54.1527
54.1528
54.1528
54.1528
54.1529
54.1529
54.153
54.153
54.1531
54.1531
54.1532
54.1532
54.1532
54.1533
54.1533
54.1534
54.1534
54.1535
54.1535
54.1535
54.1535
54.1536
54.1536
54.1537
54.1537
54.1538
54.1538
54.1539
54.1539
54.154
54.154
54.1542
54.1542
54.1543
54.1544
54.1545
54.1546
54.1546
54.1547
54.1548
54.1549
54.155
54.155
54.177
54.1744
54.1714
54.1688
54.1672
54.1659
54.1644
54.1617
54.1599
54.159
54.1584
54.1567
54.1551
54.154
54.1541
54.1537
54.1515
54.1495
54.1477
54.1478
54.1489
54.1486
54.1458
54.1434
54.1412
54.141
54.1428
54.1435
54.1417
54.1395
54.1376
54.1367
54.1373
54.1378
54.1379
54.138
54.1382
54.1386
54.1394
54.14
54.1399
54.1381
54.1356
54.1329
54.1324
54.1339
54.1347
54.1348
54.1348
54.1346
54.1345
54.1344
54.1343
54.1342
54.1341
54.134
54.1339
54.1338
54.1337
54.1336
54.1335
54.1335
54.1334
54.1335
54.1335
54.1336
54.1337
54.1338
54.1339
54.1341
54.1342
54.1344
54.1345
54.1347
54.1349
54.135
54.1351
54.1353
54.1354
54.1356
54.1357
54.1358
54.1359
54.136
54.1362
54.1363
54.1364
54.1366
54.1369
54.1373
54.1378
54.1384
54.1391
54.1396
54.1394
54.1378
54.1362
54.1354
54.136
54.1368
54.1373
54.1373
54.1377
54.1377
54.1368
54.1358
54.1359
54.136
54.1352
54.1337
54.1335
54.1341
54.1359
54.1408
54.1458
54.1492
54.1509
54.1514
54.1513
54.1511
54.1511
54.151
54.151
54.151
54.1511
54.1511
54.1512
54.1512
54.1513
54.1513
54.1514
54.1514
54.1515
54.1515
54.1516
54.1517
54.1517
54.1518
54.1518
54.1519
54.1519
54.152
54.152
54.1521
54.1521
54.1522
54.1522
54.1523
54.1523
54.1524
54.1524
54.1525
54.1525
54.1526
54.1526
54.1526
54.1527
54.1527
54.1528
54.1528
54.1528
54.1529
54.1529
54.153
54.153
54.1531
54.1531
54.1532
54.1532
54.1532
54.1533
54.1533
54.1534
54.1534
54.1535
54.1535
54.1535
54.1535
54.1536
54.1536
54.1537
54.1537
54.1538
54.1538
54.1539
54.1539
54.154
54.154
54.1542
54.1542
54.1543
54.1543
54.1545
54.1545
54.1547
54.1547
54.1548
54.1549
54.155
54.1551
54.1782
54.1772
54.1758
54.1741
54.1723
54.1705
54.1691
54.1674
54.165
54.1631
54.1621
54.1608
54.1584
54.1559
54.1549
54.1546
54.1535
54.1507
54.1474
54.1455
54.1461
54.1465
54.1451
54.1419
54.1386
54.1364
54.1375
54.1387
54.1379
54.1351
54.1323
54.1306
54.1307
54.131
54.131
54.131
54.1311
54.1312
54.1317
54.1326
54.1334
54.1325
54.1294
54.126
54.1248
54.1256
54.1263
54.1263
54.1262
54.1261
54.1259
54.1258
54.1257
54.1255
54.1254
54.1253
54.1252
54.1251
54.125
54.1249
54.1248
54.1247
54.1246
54.1246
54.1247
54.1248
54.1249
54.1251
54.1252
54.1254
54.1256
54.1258
54.1261
54.1263
54.1265
54.1267
54.1269
54.1271
54.1273
54.1275
54.1276
54.1278
54.128
54.1281
54.1282
54.1283
54.1284
54.1286
54.1288
54.1289
54.1294
54.1301
54.131
54.1315
54.131
54.1298
54.1291
54.1291
54.1294
54.1293
54.1296
54.1307
54.1315
54.1298
54.1251
54.1245
54.1272
54.1336
54.1383
54.1415
54.1436
54.1452
54.1464
54.1473
54.148
54.1486
54.149
54.1494
54.1497
54.1499
54.1501
54.1503
54.1505
54.1506
54.1507
54.1508
54.1509
54.151
54.1511
54.1511
54.1512
54.1513
54.1513
54.1514
54.1514
54.1515
54.1516
54.1516
54.1517
54.1517
54.1518
54.1518
54.1519
54.152
54.152
54.1521
54.1521
54.1522
54.1522
54.1522
54.1523
54.1523
54.1524
54.1524
54.1525
54.1525
54.1525
54.1526
54.1526
54.1527
54.1527
54.1528
54.1528
54.1528
54.1529
54.1529
54.153
54.153
54.1531
54.1531
54.1532
54.1532
54.1532
54.1533
54.1533
54.1533
54.1534
54.1534
54.1535
54.1535
54.1536
54.1536
54.1537
54.1536
54.1538
54.1537
54.1539
54.1539
54.154
54.154
54.1542
54.1542
54.1544
54.1545
54.1545
54.1547
54.1546
54.1547
54.1549
54.155
54.155
54.155
54.1549
54.1548
54.1547
54.1547
54.1547
54.1546
54.1546
54.1546
54.1547
54.1547
54.1547
54.1549
54.1549
54.155
54.155
54.1551
54.1551
54.1552
54.155
54.155
54.155
54.155
54.155
54.155
54.1551
54.1551
54.1552
54.1552
54.1553
54.1554
54.1555
54.1554
54.1554
54.1553
54.1552
54.1552
54.1552
54.1552
54.1551
54.1551
54.1551
54.1552
54.1552
54.1552
54.1552
54.1552
54.1551
54.1549
54.1548
54.1547
54.1545
54.1543
54.1541
54.1537
54.153
54.1527
54.1524
54.1521
54.1552
54.1552
54.1551
54.1551
54.1552
54.1552
54.1551
54.155
54.1549
54.1545
54.1543
54.1544
54.1547
54.1549
54.155
54.1551
54.1548
54.1543
54.1537
54.1536
54.155
54.155
54.1549
54.1549
54.1549
54.155
54.1549
54.1548
54.1547
54.1544
54.1543
54.1543
54.1545
54.1548
54.1551
54.1554
54.1554
54.1551
54.1545
54.1539
54.1555
54.1557
54.1557
54.1557
54.1557
54.1553
54.1543
54.1539
54.1537
54.154
54.1539
54.1528
54.1518
54.152
54.1524
54.1521
54.1504
54.1492
54.1498
54.1506
54.1506
54.1494
54.1471
54.1467
54.1478
54.1491
54.1492
54.148
54.1456
54.1447
54.1459
54.1483
54.1491
54.1487
54.1471
54.1456
54.1443
54.1432
54.143
54.1412
54.1404
54.1415
54.1427
54.1433
54.1438
54.1442
54.1446
54.145
54.1454
54.1458
54.1461
54.1465
54.1469
54.1472
54.1475
54.1479
54.1482
54.1485
54.1488
54.1491
54.1494
54.1497
54.15
54.1503
54.1506
54.151
54.1514
54.1517
54.1522
54.1529
54.1539
54.1551
54.1568
54.159
54.16
54.1599
54.1588
54.157
54.1555
54.1548
54.1537
54.1532
54.154
54.1552
54.156
54.1567
54.1574
54.158
54.1587
54.1591
54.1592
54.16
54.1602
54.1546
54.151
54.156
54.1625
54.1648
54.1649
54.1656
54.1543
54.1524
54.1517
54.1513
54.1501
54.1472
54.1454
54.1453
54.1464
54.1465
54.1444
54.1435
54.1444
54.1457
54.1454
54.1431
54.1427
54.1446
54.1471
54.1475
54.1447
54.1428
54.1427
54.1456
54.1484
54.149
54.1464
54.1437
54.143
54.1441
54.1482
54.1503
54.15
54.1469
54.1443
54.143
54.1422
54.1432
54.1463
54.1459
54.1461
54.1475
54.1485
54.1487
54.1491
54.1496
54.1501
54.1508
54.1514
54.152
54.1525
54.1531
54.1536
54.1542
54.1546
54.1551
54.1556
54.156
54.1565
54.1569
54.1573
54.1577
54.1581
54.1585
54.1588
54.1592
54.1595
54.1598
54.1602
54.1608
54.1615
54.1626
54.164
54.1652
54.1653
54.164
54.1625
54.1613
54.16
54.1594
54.1583
54.1594
54.1613
54.1628
54.1638
54.1645
54.1652
54.1654
54.1657
54.1662
54.1665
54.1665
54.1668
54.1666
54.1646
54.1641
54.1644
54.1648
54.1637
54.1636
54.1507
54.1467
54.1434
54.1408
54.1386
54.1362
54.1338
54.132
54.1307
54.1296
54.1286
54.1281
54.1279
54.1278
54.1273
54.1273
54.1278
54.1278
54.1277
54.1277
54.1282
54.1293
54.1295
54.1292
54.1289
54.1292
54.13
54.1311
54.1314
54.1307
54.1304
54.1306
54.1308
54.1312
54.1314
54.1315
54.1315
54.1312
54.1294
54.1287
54.1302
54.1319
54.1337
54.1352
54.1363
54.1371
54.1375
54.1379
54.1382
54.1384
54.1386
54.1389
54.1391
54.1394
54.1395
54.1397
54.1398
54.1399
54.1402
54.1403
54.1405
54.1405
54.1406
54.1407
54.1408
54.1407
54.1405
54.1406
54.141
54.1419
54.143
54.1442
54.146
54.1486
54.1514
54.1542
54.1569
54.1592
54.1603
54.1598
54.1595
54.1602
54.1614
54.1623
54.1633
54.1639
54.1643
54.1647
54.1651
54.1657
54.1664
54.167
54.168
54.1688
54.1697
54.1708
54.1715
54.1722
54.1732
54.1741
54.1524
54.149
54.1474
54.1477
54.1491
54.1486
54.142
54.1396
54.1406
54.1444
54.1428
54.1379
54.1382
54.1417
54.1427
54.1356
54.1371
54.1366
54.1415
54.1423
54.1364
54.1366
54.1378
54.1372
54.143
54.1425
54.1382
54.1385
54.1407
54.1385
54.1421
54.1458
54.1451
54.143
54.1418
54.1435
54.1474
54.1561
54.1689
54.1694
54.1519
54.1488
54.1524
54.1545
54.155
54.1551
54.1551
54.1552
54.1553
54.1555
54.1556
54.1558
54.156
54.1562
54.1564
54.1566
54.1568
54.157
54.1572
54.1574
54.1576
54.1578
54.158
54.1582
54.1584
54.1587
54.159
54.1593
54.1593
54.1594
54.1596
54.1601
54.1616
54.164
54.1625
54.1622
54.1648
54.1687
54.175
54.1824
54.1805
54.1673
54.1606
54.162
54.1634
54.164
54.1644
54.1647
54.1651
54.1657
54.1664
54.167
54.1676
54.1684
54.1691
54.1696
54.1696
54.1693
54.1695
54.1699
54.1526
54.1519
54.1517
54.1519
54.1511
54.1514
54.1513
54.1503
54.1493
54.1484
54.1494
54.1509
54.1506
54.1482
54.1493
54.1502
54.1504
54.1477
54.1453
54.1486
54.1505
54.1495
54.148
54.1435
54.1437
54.1491
54.1513
54.1498
54.1497
54.1459
54.143
54.1463
54.153
54.1535
54.1514
54.152
54.1552
54.1634
54.1761
54.1756
54.1543
54.146
54.1517
54.1551
54.1561
54.1564
54.1563
54.1563
54.1563
54.1565
54.1566
54.1568
54.157
54.1572
54.1574
54.1576
54.1578
54.158
54.1583
54.1585
54.1587
54.1589
54.1591
54.1593
54.1595
54.1597
54.1599
54.1603
54.1602
54.1603
54.1605
54.1609
54.162
54.1642
54.1666
54.1671
54.1684
54.1711
54.1767
54.1838
54.182
54.1686
54.1609
54.1631
54.1649
54.1656
54.1658
54.1659
54.1664
54.167
54.1677
54.1684
54.1692
54.1701
54.1706
54.171
54.1714
54.1719
54.1722
54.1725
54.1634
54.1631
54.1631
54.1638
54.1645
54.1657
54.1668
54.1683
54.1723
54.1758
54.1749
54.1743
54.175
54.1764
54.1774
54.1781
54.1786
54.1789
54.1792
54.1793
54.1617
54.1613
54.1612
54.1615
54.1619
54.1625
54.1632
54.1639
54.1649
54.1668
54.1679
54.1692
54.1715
54.1737
54.1752
54.1766
54.1779
54.1787
54.179
54.1789
54.1742
54.1735
54.1732
54.1732
54.1734
54.1736
54.1739
54.1743
54.1747
54.1752
54.1755
54.1759
54.1761
54.176
54.1759
54.1756
54.1751
54.1748
54.1747
54.175
54.1696
54.1693
54.1689
54.1689
54.169
54.1693
54.1694
54.1689
54.1678
54.1665
54.1652
54.1643
54.1636
54.163
54.1624
54.1618
54.1615
54.1617
54.1618
54.1626
54.1726
54.1726
54.1722
54.1719
54.1719
54.1719
54.1721
54.1722
54.1725
54.1728
54.1731
54.1735
54.1741
54.1746
54.1744
54.1731
54.1708
54.1681
54.1647
54.1622
54.1794
54.1802
54.1807
54.1809
54.1805
54.1797
54.1798
54.18
54.1804
54.1803
54.1794
54.179
54.1795
54.18
54.1799
54.1789
54.1777
54.1772
54.1778
54.1785
54.179
54.1786
54.1772
54.1754
54.1744
54.175
54.1763
54.1774
54.1778
54.1772
54.1758
54.1747
54.174
54.1735
54.173
54.1727
54.1732
54.1714
54.1701
54.1708
54.1721
54.1727
54.1732
54.1736
54.1741
54.1746
54.1751
54.1758
54.1767
54.1776
54.1778
54.1769
54.1764
54.1776
54.179
54.1803
54.1817
54.1838
54.1856
54.1863
54.1864
54.1859
54.1842
54.1821
54.1827
54.1845
54.1862
54.1864
54.1856
54.1839
54.1827
54.1819
54.1813
54.1803
54.1803
54.181
54.1818
54.1826
54.1834
54.1842
54.1846
54.1852
54.1857
54.181
54.1743
54.1838
54.1908
54.1932
54.1954
54.1973
54.1987
54.2
54.2009
54.2017
54.2021
54.2025
54.2028
54.203
54.2033
54.2034
54.2035
54.2036
54.2037
54.2038
54.2038
54.2039
54.2039
54.204
54.204
54.2041
54.2041
54.2041
54.2041
54.2042
54.2042
54.2042
54.2043
54.2043
54.2043
54.2043
54.2043
54.2044
54.2044
54.2044
54.2045
54.2045
54.2045
54.2046
54.2046
54.2046
54.2046
54.2047
54.2047
54.2047
54.2048
54.2048
54.2048
54.2048
54.2049
54.2049
54.2049
54.2049
54.2049
54.2049
54.2049
54.2049
54.2049
54.2049
54.2049
54.2049
54.2049
54.2048
54.2048
54.2048
54.2048
54.2047
54.2047
54.2047
54.2047
54.2047
54.2046
54.2046
54.2046
54.2046
54.2046
54.2046
54.2046
54.2046
54.2046
54.2046
54.2046
54.2046
54.2046
54.2046
54.2047
54.2047
54.2047
54.2047
54.2048
54.2048
54.2049
54.2049
54.205
54.205
54.2051
54.2051
54.2053
54.2052
54.2054
54.2053
54.2056
54.2055
54.2058
54.2058
54.2058
54.2061
54.206
54.2063
54.2064
54.2064
54.1768
54.1764
54.1765
54.1758
54.1731
54.1713
54.1716
54.1725
54.1724
54.1699
54.1691
54.1703
54.1723
54.1726
54.1701
54.1681
54.1682
54.1712
54.1746
54.1755
54.1741
54.1702
54.1685
54.1682
54.1704
54.1749
54.1771
54.1776
54.1751
54.1717
54.1698
54.1689
54.1686
54.1688
54.1705
54.1737
54.1761
54.1752
54.1745
54.1752
54.176
54.1762
54.1767
54.1773
54.178
54.1788
54.1798
54.1808
54.1821
54.1832
54.1834
54.1828
54.1828
54.1842
54.1858
54.1871
54.1885
54.1897
54.1901
54.1899
54.1887
54.1854
54.1838
54.1834
54.1844
54.1869
54.1884
54.1887
54.1881
54.187
54.1859
54.1852
54.1851
54.1859
54.1872
54.1886
54.1897
54.1905
54.1909
54.1912
54.1916
54.1918
54.192
54.1919
54.1896
54.1884
54.1885
54.189
54.189
54.1874
54.1867
54.1878
54.1936
54.2009
54.2034
54.2039
54.2039
54.2038
54.2038
54.2038
54.2039
54.2039
54.2039
54.2039
54.204
54.204
54.2041
54.2041
54.2041
54.2042
54.2042
54.2042
54.2043
54.2043
54.2043
54.2043
54.2044
54.2044
54.2044
54.2044
54.2045
54.2045
54.2045
54.2045
54.2046
54.2046
54.2046
54.2047
54.2047
54.2047
54.2048
54.2048
54.2048
54.2048
54.2049
54.2049
54.2049
54.2049
54.205
54.205
54.205
54.205
54.205
54.205
54.205
54.205
54.205
54.205
54.205
54.205
54.205
54.2049
54.2049
54.2049
54.2049
54.2048
54.2048
54.2048
54.2048
54.2048
54.2047
54.2047
54.2047
54.2047
54.2047
54.2047
54.2047
54.2047
54.2047
54.2047
54.2047
54.2047
54.2047
54.2047
54.2048
54.2048
54.2048
54.2048
54.2049
54.2049
54.205
54.205
54.2051
54.2051
54.2052
54.2052
54.2054
54.2053
54.2055
54.2054
54.2057
54.2056
54.2058
54.2058
54.206
54.206
54.2063
54.2063
54.2065
54.2066
54.1742
54.1708
54.1679
54.1656
54.1633
54.161
54.1592
54.1578
54.1567
54.1557
54.1555
54.1554
54.1554
54.1551
54.1551
54.1561
54.1568
54.1565
54.1562
54.1564
54.157
54.1581
54.1589
54.1589
54.1582
54.158
54.1584
54.1588
54.1592
54.1596
54.16
54.1603
54.1605
54.1606
54.1606
54.1601
54.1587
54.1576
54.1584
54.1601
54.1617
54.1633
54.1645
54.1654
54.1661
54.1666
54.1669
54.1673
54.1676
54.1684
54.1669
54.1652
54.1666
54.1674
54.1677
54.1677
54.1671
54.166
54.1652
54.1653
54.1663
54.1681
54.1701
54.1718
54.1748
54.1785
54.1815
54.1845
54.1868
54.188
54.1883
54.188
54.1871
54.1867
54.1872
54.1878
54.1887
54.1895
54.1901
54.1906
54.1912
54.1919
54.1928
54.1937
54.1946
54.1955
54.1962
54.1967
54.1971
54.1977
54.1984
54.1992
54.2
54.2008
54.2014
54.2022
54.2028
54.2032
54.2034
54.2035
54.2036
54.2037
54.2038
54.2039
54.2039
54.204
54.204
54.2041
54.2041
54.2042
54.2042
54.2042
54.2043
54.2043
54.2043
54.2043
54.2044
54.2044
54.2044
54.2044
54.2045
54.2045
54.2045
54.2045
54.2046
54.2046
54.2046
54.2047
54.2047
54.2047
54.2048
54.2048
54.2048
54.2048
54.2049
54.2049
54.2049
54.2049
54.205
54.205
54.205
54.205
54.205
54.205
54.205
54.205
54.205
54.205
54.205
54.205
54.205
54.2049
54.2049
54.2049
54.2049
54.2048
54.2048
54.2048
54.2048
54.2048
54.2047
54.2047
54.2047
54.2047
54.2047
54.2047
54.2047
54.2047
54.2047
54.2047
54.2047
54.2047
54.2047
54.2047
54.2048
54.2048
54.2048
54.2048
54.2049
54.2049
54.205
54.205
54.2051
54.2051
54.2052
54.2052
54.2053
54.2054
54.2055
54.2055
54.2057
54.2057
54.2058
54.2059
54.206
54.2061
54.2062
54.2063
54.2064
54.2065
54.1714
54.1731
54.1727
54.1743
54.1747
54.1694
54.1657
54.1673
54.1711
54.1682
54.1619
54.1627
54.1669
54.1692
54.1633
54.16
54.1615
54.1622
54.1681
54.1692
54.1657
54.1624
54.1627
54.1635
54.1634
54.1686
54.1718
54.1717
54.1703
54.169
54.1685
54.1689
54.1696
54.1711
54.1741
54.1807
54.1923
54.1968
54.1824
54.177
54.1805
54.1832
54.1841
54.1843
54.1843
54.1844
54.1846
54.1849
54.1856
54.1868
54.1897
54.2006
54.1882
54.1842
54.1843
54.1851
54.1867
54.1893
54.1824
54.1737
54.1711
54.1725
54.1756
54.1758
54.1791
54.1845
54.1881
54.1898
54.192
54.1952
54.1993
54.2043
54.2059
54.1978
54.1879
54.1871
54.1891
54.1902
54.1907
54.1911
54.1916
54.1922
54.1928
54.1936
54.1943
54.195
54.1953
54.195
54.1947
54.195
54.1955
54.1956
54.1932
54.1892
54.1886
54.1907
54.198
54.2032
54.2045
54.2044
54.2041
54.204
54.204
54.204
54.204
54.204
54.2041
54.2041
54.2041
54.2042
54.2042
54.2042
54.2043
54.2043
54.2043
54.2043
54.2044
54.2044
54.2044
54.2044
54.2045
54.2045
54.2045
54.2045
54.2046
54.2046
54.2046
54.2047
54.2047
54.2047
54.2048
54.2048
54.2048
54.2048
54.2049
54.2049
54.2049
54.2049
54.205
54.205
54.205
54.205
54.205
54.205
54.205
54.205
54.205
54.205
54.205
54.205
54.205
54.2049
54.2049
54.2049
54.2049
54.2048
54.2048
54.2048
54.2048
54.2048
54.2047
54.2047
54.2047
54.2047
54.2047
54.2047
54.2047
54.2047
54.2047
54.2047
54.2047
54.2047
54.2047
54.2047
54.2047
54.2048
54.2048
54.2049
54.2049
54.205
54.2049
54.2051
54.205
54.2052
54.2051
54.2053
54.2052
54.2054
54.2054
54.2056
54.2055
54.2058
54.2057
54.2059
54.2059
54.2062
54.2062
54.2063
54.2066
54.2064
54.1682
54.1754
54.1767
54.1772
54.1779
54.178
54.1761
54.1752
54.1751
54.176
54.1755
54.1746
54.1729
54.1752
54.1767
54.1747
54.1712
54.1697
54.1687
54.1727
54.1764
54.1749
54.1707
54.1701
54.1687
54.1677
54.17
54.1763
54.1787
54.1774
54.1763
54.1761
54.1765
54.1776
54.1802
54.1865
54.198
54.2015
54.1833
54.1711
54.1768
54.1827
54.1849
54.1856
54.1857
54.1857
54.1858
54.186
54.1866
54.1871
54.1935
54.2082
54.193
54.1859
54.1854
54.186
54.1872
54.1896
54.1917
54.1858
54.1792
54.1786
54.1807
54.1797
54.1777
54.1802
54.1878
54.1921
54.1938
54.1961
54.1995
54.2049
54.2067
54.1979
54.1872
54.1862
54.1899
54.1915
54.1921
54.1925
54.1929
54.1934
54.1942
54.1951
54.1957
54.1961
54.1964
54.1968
54.1973
54.1977
54.198
54.1979
54.1982
54.1985
54.1973
54.1923