/*--------------------------------*- C++ -*----------------------------------*\
| =========                 |                                                 |
| \\      /  F ield         | OpenFOAM: The Open Source CFD Toolbox           |
|  \\    /   O peration     | Version:  3.0.x                                 |
|   \\  /    A nd           | Web:      www.OpenFOAM.org                      |
|    \\/     M anipulation  |                                                 |
\*---------------------------------------------------------------------------*/
FoamFile
{
    version     2.0;
    format      ascii;
    class       volScalarField;
    location    "0.44";
    object      p;
}
// * * * * * * * * * * * * * * * * * * * * * * * * * * * * * * * * * * * * * //

dimensions      [1 -1 -2 0 0 0 0];

internalField   nonuniform List<scalar> 
6900
(
1.8197e+07
1.8197e+07
1.8197e+07
1.81971e+07
1.81971e+07
1.81971e+07
1.81971e+07
1.81972e+07
1.81972e+07
1.81972e+07
1.81973e+07
1.81973e+07
1.81973e+07
1.81973e+07
1.81974e+07
1.81974e+07
1.81974e+07
1.81974e+07
1.81974e+07
1.81974e+07
1.81974e+07
1.81974e+07
1.81974e+07
1.81973e+07
1.81973e+07
1.81973e+07
1.81972e+07
1.81972e+07
1.81972e+07
1.81971e+07
1.81971e+07
1.81971e+07
1.8197e+07
1.8197e+07
1.8197e+07
1.8197e+07
1.81969e+07
1.81969e+07
1.81969e+07
1.81969e+07
1.81969e+07
1.8197e+07
1.8197e+07
1.8197e+07
1.8197e+07
1.81971e+07
1.81971e+07
1.81971e+07
1.81972e+07
1.81972e+07
1.81972e+07
1.81972e+07
1.81972e+07
1.81972e+07
1.81972e+07
1.81972e+07
1.81972e+07
1.81972e+07
1.81972e+07
1.81972e+07
1.81971e+07
1.81971e+07
1.81971e+07
1.8197e+07
1.8197e+07
1.8197e+07
1.81969e+07
1.81969e+07
1.81968e+07
1.81968e+07
1.81968e+07
1.81968e+07
1.81968e+07
1.81968e+07
1.81968e+07
1.81968e+07
1.81968e+07
1.81969e+07
1.81969e+07
1.8197e+07
1.8197e+07
1.81971e+07
1.81971e+07
1.81972e+07
1.81972e+07
1.81973e+07
1.81974e+07
1.81974e+07
1.81975e+07
1.81975e+07
1.81976e+07
1.81976e+07
1.81976e+07
1.81977e+07
1.81977e+07
1.81977e+07
1.81977e+07
1.81977e+07
1.81978e+07
1.81978e+07
1.81978e+07
1.81978e+07
1.81979e+07
1.81979e+07
1.8198e+07
1.81981e+07
1.81982e+07
1.81983e+07
1.81984e+07
1.81985e+07
1.81986e+07
1.81988e+07
1.8199e+07
1.81992e+07
1.81994e+07
1.81996e+07
1.81999e+07
1.82001e+07
1.82004e+07
1.82006e+07
1.82009e+07
1.82012e+07
1.82015e+07
1.82018e+07
1.8202e+07
1.82023e+07
1.82026e+07
1.82029e+07
1.82032e+07
1.82035e+07
1.82038e+07
1.82041e+07
1.82044e+07
1.82048e+07
1.82051e+07
1.82054e+07
1.82058e+07
1.82062e+07
1.82066e+07
1.8207e+07
1.82075e+07
1.8208e+07
1.82085e+07
1.8209e+07
1.82096e+07
1.82102e+07
1.82108e+07
1.82115e+07
1.82122e+07
1.82129e+07
1.82136e+07
1.82144e+07
1.82152e+07
1.82161e+07
1.82169e+07
1.82178e+07
1.82186e+07
1.82195e+07
1.82204e+07
1.82213e+07
1.82222e+07
1.82231e+07
1.8224e+07
1.8225e+07
1.82259e+07
1.82268e+07
1.82278e+07
1.82288e+07
1.82298e+07
1.82308e+07
1.82318e+07
1.82329e+07
1.82339e+07
1.8235e+07
1.82361e+07
1.82373e+07
1.82385e+07
1.82397e+07
1.8241e+07
1.82423e+07
1.82436e+07
1.8245e+07
1.82465e+07
1.8248e+07
1.82495e+07
1.82511e+07
1.82527e+07
1.82543e+07
1.8256e+07
1.82577e+07
1.82595e+07
1.82612e+07
1.8263e+07
1.82648e+07
1.82666e+07
1.82684e+07
1.82702e+07
1.8272e+07
1.82739e+07
1.82762e+07
1.8197e+07
1.8197e+07
1.8197e+07
1.81971e+07
1.81971e+07
1.81971e+07
1.81971e+07
1.81972e+07
1.81972e+07
1.81972e+07
1.81973e+07
1.81973e+07
1.81973e+07
1.81973e+07
1.81974e+07
1.81974e+07
1.81974e+07
1.81974e+07
1.81974e+07
1.81974e+07
1.81974e+07
1.81974e+07
1.81974e+07
1.81973e+07
1.81973e+07
1.81973e+07
1.81972e+07
1.81972e+07
1.81972e+07
1.81971e+07
1.81971e+07
1.81971e+07
1.8197e+07
1.8197e+07
1.8197e+07
1.8197e+07
1.81969e+07
1.81969e+07
1.81969e+07
1.81969e+07
1.81969e+07
1.8197e+07
1.8197e+07
1.8197e+07
1.8197e+07
1.81971e+07
1.81971e+07
1.81971e+07
1.81972e+07
1.81972e+07
1.81972e+07
1.81972e+07
1.81972e+07
1.81972e+07
1.81972e+07
1.81972e+07
1.81972e+07
1.81972e+07
1.81972e+07
1.81972e+07
1.81971e+07
1.81971e+07
1.81971e+07
1.8197e+07
1.8197e+07
1.8197e+07
1.81969e+07
1.81969e+07
1.81968e+07
1.81968e+07
1.81968e+07
1.81968e+07
1.81968e+07
1.81968e+07
1.81968e+07
1.81968e+07
1.81968e+07
1.81969e+07
1.81969e+07
1.8197e+07
1.8197e+07
1.81971e+07
1.81971e+07
1.81972e+07
1.81972e+07
1.81973e+07
1.81974e+07
1.81974e+07
1.81975e+07
1.81975e+07
1.81976e+07
1.81976e+07
1.81976e+07
1.81977e+07
1.81977e+07
1.81977e+07
1.81977e+07
1.81977e+07
1.81978e+07
1.81978e+07
1.81978e+07
1.81978e+07
1.81979e+07
1.81979e+07
1.8198e+07
1.81981e+07
1.81982e+07
1.81983e+07
1.81984e+07
1.81985e+07
1.81986e+07
1.81988e+07
1.8199e+07
1.81992e+07
1.81994e+07
1.81996e+07
1.81999e+07
1.82001e+07
1.82004e+07
1.82006e+07
1.82009e+07
1.82012e+07
1.82015e+07
1.82018e+07
1.8202e+07
1.82023e+07
1.82026e+07
1.82029e+07
1.82032e+07
1.82035e+07
1.82038e+07
1.82041e+07
1.82044e+07
1.82048e+07
1.82051e+07
1.82054e+07
1.82058e+07
1.82062e+07
1.82066e+07
1.8207e+07
1.82075e+07
1.8208e+07
1.82085e+07
1.8209e+07
1.82096e+07
1.82102e+07
1.82108e+07
1.82115e+07
1.82122e+07
1.82129e+07
1.82136e+07
1.82144e+07
1.82152e+07
1.82161e+07
1.82169e+07
1.82178e+07
1.82186e+07
1.82195e+07
1.82204e+07
1.82213e+07
1.82222e+07
1.82231e+07
1.8224e+07
1.8225e+07
1.82259e+07
1.82268e+07
1.82278e+07
1.82288e+07
1.82298e+07
1.82308e+07
1.82318e+07
1.82329e+07
1.82339e+07
1.8235e+07
1.82361e+07
1.82373e+07
1.82385e+07
1.82397e+07
1.8241e+07
1.82423e+07
1.82436e+07
1.8245e+07
1.82465e+07
1.8248e+07
1.82495e+07
1.82511e+07
1.82527e+07
1.82543e+07
1.8256e+07
1.82577e+07
1.82595e+07
1.82612e+07
1.8263e+07
1.82648e+07
1.82666e+07
1.82684e+07
1.82702e+07
1.8272e+07
1.82739e+07
1.82762e+07
1.8197e+07
1.8197e+07
1.8197e+07
1.81971e+07
1.81971e+07
1.81971e+07
1.81971e+07
1.81972e+07
1.81972e+07
1.81972e+07
1.81973e+07
1.81973e+07
1.81973e+07
1.81973e+07
1.81974e+07
1.81974e+07
1.81974e+07
1.81974e+07
1.81974e+07
1.81974e+07
1.81974e+07
1.81974e+07
1.81974e+07
1.81973e+07
1.81973e+07
1.81973e+07
1.81972e+07
1.81972e+07
1.81972e+07
1.81971e+07
1.81971e+07
1.81971e+07
1.8197e+07
1.8197e+07
1.8197e+07
1.8197e+07
1.81969e+07
1.81969e+07
1.81969e+07
1.81969e+07
1.81969e+07
1.8197e+07
1.8197e+07
1.8197e+07
1.8197e+07
1.81971e+07
1.81971e+07
1.81971e+07
1.81972e+07
1.81972e+07
1.81972e+07
1.81972e+07
1.81972e+07
1.81972e+07
1.81972e+07
1.81972e+07
1.81972e+07
1.81972e+07
1.81972e+07
1.81972e+07
1.81971e+07
1.81971e+07
1.81971e+07
1.8197e+07
1.8197e+07
1.8197e+07
1.81969e+07
1.81969e+07
1.81968e+07
1.81968e+07
1.81968e+07
1.81968e+07
1.81968e+07
1.81968e+07
1.81968e+07
1.81968e+07
1.81968e+07
1.81969e+07
1.81969e+07
1.8197e+07
1.8197e+07
1.81971e+07
1.81971e+07
1.81972e+07
1.81972e+07
1.81973e+07
1.81974e+07
1.81974e+07
1.81975e+07
1.81975e+07
1.81976e+07
1.81976e+07
1.81976e+07
1.81977e+07
1.81977e+07
1.81977e+07
1.81977e+07
1.81977e+07
1.81978e+07
1.81978e+07
1.81978e+07
1.81978e+07
1.81979e+07
1.81979e+07
1.8198e+07
1.81981e+07
1.81982e+07
1.81983e+07
1.81984e+07
1.81985e+07
1.81986e+07
1.81988e+07
1.8199e+07
1.81992e+07
1.81994e+07
1.81996e+07
1.81999e+07
1.82001e+07
1.82004e+07
1.82006e+07
1.82009e+07
1.82012e+07
1.82015e+07
1.82018e+07
1.8202e+07
1.82023e+07
1.82026e+07
1.82029e+07
1.82032e+07
1.82035e+07
1.82038e+07
1.82041e+07
1.82044e+07
1.82048e+07
1.82051e+07
1.82054e+07
1.82058e+07
1.82062e+07
1.82066e+07
1.8207e+07
1.82075e+07
1.8208e+07
1.82085e+07
1.8209e+07
1.82096e+07
1.82102e+07
1.82108e+07
1.82115e+07
1.82122e+07
1.82129e+07
1.82136e+07
1.82144e+07
1.82152e+07
1.82161e+07
1.82169e+07
1.82178e+07
1.82186e+07
1.82195e+07
1.82204e+07
1.82213e+07
1.82222e+07
1.82231e+07
1.8224e+07
1.8225e+07
1.82259e+07
1.82268e+07
1.82278e+07
1.82288e+07
1.82298e+07
1.82308e+07
1.82318e+07
1.82329e+07
1.82339e+07
1.8235e+07
1.82361e+07
1.82373e+07
1.82385e+07
1.82397e+07
1.8241e+07
1.82423e+07
1.82436e+07
1.8245e+07
1.82465e+07
1.8248e+07
1.82495e+07
1.82511e+07
1.82527e+07
1.82543e+07
1.8256e+07
1.82577e+07
1.82595e+07
1.82612e+07
1.8263e+07
1.82648e+07
1.82666e+07
1.82684e+07
1.82701e+07
1.82719e+07
1.82737e+07
1.82756e+07
1.8197e+07
1.8197e+07
1.8197e+07
1.81971e+07
1.81971e+07
1.81971e+07
1.81971e+07
1.81972e+07
1.81972e+07
1.81972e+07
1.81973e+07
1.81973e+07
1.81973e+07
1.81973e+07
1.81974e+07
1.81974e+07
1.81974e+07
1.81974e+07
1.81974e+07
1.81974e+07
1.81974e+07
1.81974e+07
1.81974e+07
1.81973e+07
1.81973e+07
1.81973e+07
1.81972e+07
1.81972e+07
1.81972e+07
1.81971e+07
1.81971e+07
1.81971e+07
1.8197e+07
1.8197e+07
1.8197e+07
1.8197e+07
1.81969e+07
1.81969e+07
1.81969e+07
1.81969e+07
1.81969e+07
1.8197e+07
1.8197e+07
1.8197e+07
1.8197e+07
1.81971e+07
1.81971e+07
1.81971e+07
1.81972e+07
1.81972e+07
1.81972e+07
1.81972e+07
1.81972e+07
1.81972e+07
1.81972e+07
1.81972e+07
1.81972e+07
1.81972e+07
1.81972e+07
1.81972e+07
1.81971e+07
1.81971e+07
1.81971e+07
1.8197e+07
1.8197e+07
1.8197e+07
1.81969e+07
1.81969e+07
1.81968e+07
1.81968e+07
1.81968e+07
1.81968e+07
1.81968e+07
1.81968e+07
1.81968e+07
1.81968e+07
1.81968e+07
1.81969e+07
1.81969e+07
1.8197e+07
1.8197e+07
1.81971e+07
1.81971e+07
1.81972e+07
1.81972e+07
1.81973e+07
1.81974e+07
1.81974e+07
1.81975e+07
1.81975e+07
1.81976e+07
1.81976e+07
1.81976e+07
1.81977e+07
1.81977e+07
1.81977e+07
1.81977e+07
1.81977e+07
1.81978e+07
1.81978e+07
1.81978e+07
1.81978e+07
1.81979e+07
1.81979e+07
1.8198e+07
1.81981e+07
1.81982e+07
1.81983e+07
1.81984e+07
1.81985e+07
1.81986e+07
1.81988e+07
1.8199e+07
1.81992e+07
1.81994e+07
1.81996e+07
1.81999e+07
1.82001e+07
1.82004e+07
1.82006e+07
1.82009e+07
1.82012e+07
1.82015e+07
1.82018e+07
1.8202e+07
1.82023e+07
1.82026e+07
1.82029e+07
1.82032e+07
1.82035e+07
1.82038e+07
1.82041e+07
1.82044e+07
1.82048e+07
1.82051e+07
1.82054e+07
1.82058e+07
1.82062e+07
1.82066e+07
1.8207e+07
1.82075e+07
1.8208e+07
1.82085e+07
1.8209e+07
1.82096e+07
1.82102e+07
1.82108e+07
1.82115e+07
1.82122e+07
1.82129e+07
1.82136e+07
1.82144e+07
1.82152e+07
1.82161e+07
1.82169e+07
1.82178e+07
1.82186e+07
1.82195e+07
1.82204e+07
1.82213e+07
1.82222e+07
1.82231e+07
1.8224e+07
1.8225e+07
1.82259e+07
1.82268e+07
1.82278e+07
1.82288e+07
1.82298e+07
1.82308e+07
1.82318e+07
1.82329e+07
1.82339e+07
1.8235e+07
1.82361e+07
1.82373e+07
1.82385e+07
1.82397e+07
1.8241e+07
1.82423e+07
1.82436e+07
1.8245e+07
1.82465e+07
1.8248e+07
1.82495e+07
1.82511e+07
1.82527e+07
1.82543e+07
1.8256e+07
1.82577e+07
1.82595e+07
1.82612e+07
1.8263e+07
1.82648e+07
1.82666e+07
1.82684e+07
1.82701e+07
1.82719e+07
1.82735e+07
1.82747e+07
1.8197e+07
1.8197e+07
1.8197e+07
1.81971e+07
1.81971e+07
1.81971e+07
1.81971e+07
1.81972e+07
1.81972e+07
1.81972e+07
1.81973e+07
1.81973e+07
1.81973e+07
1.81973e+07
1.81974e+07
1.81974e+07
1.81974e+07
1.81974e+07
1.81974e+07
1.81974e+07
1.81974e+07
1.81974e+07
1.81974e+07
1.81973e+07
1.81973e+07
1.81973e+07
1.81972e+07
1.81972e+07
1.81972e+07
1.81971e+07
1.81971e+07
1.81971e+07
1.8197e+07
1.8197e+07
1.8197e+07
1.8197e+07
1.81969e+07
1.81969e+07
1.81969e+07
1.81969e+07
1.81969e+07
1.8197e+07
1.8197e+07
1.8197e+07
1.8197e+07
1.81971e+07
1.81971e+07
1.81971e+07
1.81972e+07
1.81972e+07
1.81972e+07
1.81972e+07
1.81972e+07
1.81972e+07
1.81972e+07
1.81972e+07
1.81972e+07
1.81972e+07
1.81972e+07
1.81972e+07
1.81971e+07
1.81971e+07
1.81971e+07
1.8197e+07
1.8197e+07
1.8197e+07
1.81969e+07
1.81969e+07
1.81968e+07
1.81968e+07
1.81968e+07
1.81968e+07
1.81968e+07
1.81968e+07
1.81968e+07
1.81968e+07
1.81968e+07
1.81969e+07
1.81969e+07
1.8197e+07
1.8197e+07
1.81971e+07
1.81971e+07
1.81972e+07
1.81972e+07
1.81973e+07
1.81974e+07
1.81974e+07
1.81975e+07
1.81975e+07
1.81976e+07
1.81976e+07
1.81976e+07
1.81977e+07
1.81977e+07
1.81977e+07
1.81977e+07
1.81977e+07
1.81978e+07
1.81978e+07
1.81978e+07
1.81978e+07
1.81979e+07
1.81979e+07
1.8198e+07
1.81981e+07
1.81982e+07
1.81983e+07
1.81984e+07
1.81985e+07
1.81986e+07
1.81988e+07
1.8199e+07
1.81992e+07
1.81994e+07
1.81996e+07
1.81999e+07
1.82001e+07
1.82004e+07
1.82006e+07
1.82009e+07
1.82012e+07
1.82015e+07
1.82018e+07
1.8202e+07
1.82023e+07
1.82026e+07
1.82029e+07
1.82032e+07
1.82035e+07
1.82038e+07
1.82041e+07
1.82044e+07
1.82048e+07
1.82051e+07
1.82054e+07
1.82058e+07
1.82062e+07
1.82066e+07
1.8207e+07
1.82075e+07
1.8208e+07
1.82085e+07
1.8209e+07
1.82096e+07
1.82102e+07
1.82108e+07
1.82115e+07
1.82122e+07
1.82129e+07
1.82136e+07
1.82144e+07
1.82152e+07
1.82161e+07
1.82169e+07
1.82178e+07
1.82186e+07
1.82195e+07
1.82204e+07
1.82213e+07
1.82222e+07
1.82231e+07
1.8224e+07
1.8225e+07
1.82259e+07
1.82268e+07
1.82278e+07
1.82288e+07
1.82298e+07
1.82308e+07
1.82318e+07
1.82329e+07
1.82339e+07
1.8235e+07
1.82361e+07
1.82373e+07
1.82385e+07
1.82397e+07
1.8241e+07
1.82423e+07
1.82436e+07
1.8245e+07
1.82465e+07
1.8248e+07
1.82495e+07
1.82511e+07
1.82527e+07
1.82543e+07
1.8256e+07
1.82577e+07
1.82595e+07
1.82612e+07
1.8263e+07
1.82648e+07
1.82666e+07
1.82684e+07
1.82701e+07
1.82719e+07
1.82735e+07
1.82747e+07
1.8283e+07
1.82859e+07
1.82865e+07
1.82863e+07
1.82861e+07
1.8286e+07
1.82856e+07
1.82845e+07
1.82832e+07
1.82822e+07
1.82816e+07
1.82819e+07
1.82845e+07
1.82863e+07
1.8285e+07
1.82796e+07
1.82723e+07
1.82678e+07
1.82646e+07
1.82609e+07
1.82815e+07
1.82831e+07
1.82834e+07
1.82832e+07
1.8283e+07
1.82829e+07
1.82825e+07
1.82812e+07
1.82798e+07
1.82788e+07
1.82784e+07
1.82787e+07
1.82814e+07
1.82829e+07
1.82809e+07
1.82746e+07
1.82668e+07
1.82626e+07
1.82597e+07
1.82569e+07
1.82769e+07
1.82772e+07
1.82772e+07
1.82767e+07
1.8276e+07
1.8275e+07
1.82738e+07
1.82724e+07
1.82707e+07
1.82686e+07
1.82662e+07
1.82634e+07
1.82603e+07
1.82573e+07
1.82545e+07
1.8252e+07
1.82494e+07
1.82463e+07
1.82429e+07
1.82391e+07
1.82683e+07
1.82677e+07
1.82684e+07
1.82691e+07
1.82688e+07
1.82676e+07
1.82659e+07
1.82633e+07
1.82613e+07
1.82586e+07
1.82564e+07
1.8254e+07
1.82517e+07
1.82495e+07
1.82474e+07
1.82455e+07
1.82438e+07
1.82425e+07
1.82416e+07
1.8241e+07
1.82639e+07
1.82598e+07
1.82585e+07
1.82586e+07
1.82581e+07
1.82567e+07
1.82546e+07
1.82519e+07
1.82493e+07
1.82464e+07
1.82438e+07
1.8241e+07
1.82383e+07
1.82358e+07
1.82333e+07
1.82311e+07
1.82293e+07
1.82278e+07
1.82271e+07
1.82274e+07
1.82507e+07
1.82456e+07
1.82429e+07
1.82424e+07
1.82434e+07
1.82452e+07
1.82467e+07
1.82478e+07
1.82493e+07
1.82509e+07
1.82527e+07
1.82544e+07
1.82561e+07
1.82579e+07
1.82598e+07
1.82616e+07
1.82635e+07
1.82654e+07
1.82674e+07
1.82693e+07
1.82714e+07
1.82734e+07
1.82754e+07
1.82775e+07
1.82795e+07
1.82816e+07
1.82837e+07
1.82859e+07
1.8288e+07
1.82902e+07
1.82923e+07
1.82945e+07
1.82967e+07
1.82989e+07
1.83011e+07
1.83033e+07
1.83055e+07
1.83077e+07
1.83099e+07
1.83122e+07
1.83144e+07
1.83167e+07
1.8319e+07
1.83213e+07
1.83236e+07
1.83259e+07
1.83283e+07
1.83306e+07
1.8333e+07
1.83354e+07
1.83378e+07
1.83403e+07
1.83427e+07
1.83452e+07
1.83477e+07
1.83502e+07
1.83527e+07
1.83553e+07
1.83579e+07
1.83605e+07
1.83631e+07
1.83658e+07
1.83685e+07
1.83712e+07
1.83739e+07
1.83767e+07
1.83795e+07
1.83823e+07
1.83852e+07
1.8388e+07
1.83909e+07
1.83938e+07
1.83968e+07
1.83998e+07
1.84028e+07
1.84059e+07
1.84091e+07
1.84121e+07
1.8415e+07
1.84179e+07
1.84209e+07
1.8424e+07
1.84271e+07
1.84303e+07
1.84334e+07
1.84366e+07
1.84399e+07
1.84431e+07
1.84464e+07
1.84497e+07
1.8453e+07
1.84563e+07
1.84597e+07
1.84631e+07
1.84664e+07
1.84698e+07
1.84732e+07
1.84766e+07
1.84801e+07
1.84835e+07
1.84869e+07
1.84904e+07
1.84938e+07
1.84973e+07
1.85008e+07
1.85042e+07
1.85077e+07
1.85112e+07
1.85146e+07
1.85181e+07
1.85216e+07
1.85251e+07
1.85286e+07
1.85322e+07
1.85357e+07
1.85393e+07
1.85429e+07
1.85465e+07
1.85501e+07
1.85538e+07
1.85575e+07
1.85611e+07
1.85649e+07
1.85686e+07
1.85723e+07
1.85761e+07
1.85799e+07
1.85836e+07
1.85875e+07
1.85913e+07
1.85951e+07
1.85989e+07
1.86028e+07
1.86067e+07
1.86105e+07
1.86144e+07
1.86183e+07
1.86222e+07
1.86261e+07
1.863e+07
1.86339e+07
1.86379e+07
1.86418e+07
1.86457e+07
1.86497e+07
1.86536e+07
1.86576e+07
1.86616e+07
1.86655e+07
1.86695e+07
1.86735e+07
1.86775e+07
1.86815e+07
1.86855e+07
1.86896e+07
1.86936e+07
1.86976e+07
1.87017e+07
1.87057e+07
1.87098e+07
1.87139e+07
1.8718e+07
1.87221e+07
1.87262e+07
1.87303e+07
1.87344e+07
1.87386e+07
1.87427e+07
1.87469e+07
1.8751e+07
1.87552e+07
1.87594e+07
1.87635e+07
1.87677e+07
1.87719e+07
1.87761e+07
1.87803e+07
1.87845e+07
1.87887e+07
1.87929e+07
1.87971e+07
1.88013e+07
1.88055e+07
1.88097e+07
1.88139e+07
1.88181e+07
1.88223e+07
1.88265e+07
1.88307e+07
1.88349e+07
1.88391e+07
1.88434e+07
1.88476e+07
1.88518e+07
1.8856e+07
1.88602e+07
1.88644e+07
1.88686e+07
1.88728e+07
1.88769e+07
1.82497e+07
1.82455e+07
1.82429e+07
1.82424e+07
1.82434e+07
1.82453e+07
1.82467e+07
1.82478e+07
1.82493e+07
1.82509e+07
1.82527e+07
1.82544e+07
1.82561e+07
1.82579e+07
1.82598e+07
1.82616e+07
1.82635e+07
1.82654e+07
1.82674e+07
1.82693e+07
1.82714e+07
1.82734e+07
1.82754e+07
1.82775e+07
1.82795e+07
1.82816e+07
1.82837e+07
1.82859e+07
1.8288e+07
1.82902e+07
1.82923e+07
1.82945e+07
1.82967e+07
1.82989e+07
1.83011e+07
1.83033e+07
1.83055e+07
1.83077e+07
1.83099e+07
1.83122e+07
1.83144e+07
1.83167e+07
1.8319e+07
1.83213e+07
1.83236e+07
1.83259e+07
1.83283e+07
1.83306e+07
1.8333e+07
1.83354e+07
1.83378e+07
1.83403e+07
1.83427e+07
1.83452e+07
1.83477e+07
1.83502e+07
1.83527e+07
1.83553e+07
1.83579e+07
1.83605e+07
1.83631e+07
1.83658e+07
1.83685e+07
1.83712e+07
1.83739e+07
1.83767e+07
1.83795e+07
1.83823e+07
1.83852e+07
1.8388e+07
1.83909e+07
1.83938e+07
1.83968e+07
1.83998e+07
1.84028e+07
1.84059e+07
1.84091e+07
1.84121e+07
1.8415e+07
1.84179e+07
1.84209e+07
1.8424e+07
1.84271e+07
1.84303e+07
1.84334e+07
1.84366e+07
1.84399e+07
1.84431e+07
1.84464e+07
1.84497e+07
1.8453e+07
1.84563e+07
1.84597e+07
1.84631e+07
1.84664e+07
1.84698e+07
1.84732e+07
1.84766e+07
1.84801e+07
1.84835e+07
1.84869e+07
1.84904e+07
1.84938e+07
1.84973e+07
1.85008e+07
1.85042e+07
1.85077e+07
1.85112e+07
1.85146e+07
1.85181e+07
1.85216e+07
1.85251e+07
1.85286e+07
1.85322e+07
1.85357e+07
1.85393e+07
1.85429e+07
1.85465e+07
1.85501e+07
1.85538e+07
1.85575e+07
1.85611e+07
1.85649e+07
1.85686e+07
1.85723e+07
1.85761e+07
1.85799e+07
1.85836e+07
1.85875e+07
1.85913e+07
1.85951e+07
1.85989e+07
1.86028e+07
1.86067e+07
1.86105e+07
1.86144e+07
1.86183e+07
1.86222e+07
1.86261e+07
1.863e+07
1.86339e+07
1.86379e+07
1.86418e+07
1.86457e+07
1.86497e+07
1.86536e+07
1.86576e+07
1.86616e+07
1.86655e+07
1.86695e+07
1.86735e+07
1.86775e+07
1.86815e+07
1.86855e+07
1.86896e+07
1.86936e+07
1.86976e+07
1.87017e+07
1.87057e+07
1.87098e+07
1.87139e+07
1.8718e+07
1.87221e+07
1.87262e+07
1.87303e+07
1.87344e+07
1.87386e+07
1.87427e+07
1.87469e+07
1.8751e+07
1.87552e+07
1.87594e+07
1.87635e+07
1.87677e+07
1.87719e+07
1.87761e+07
1.87803e+07
1.87845e+07
1.87887e+07
1.87929e+07
1.87971e+07
1.88013e+07
1.88055e+07
1.88097e+07
1.88139e+07
1.88181e+07
1.88223e+07
1.88265e+07
1.88307e+07
1.88349e+07
1.88391e+07
1.88434e+07
1.88476e+07
1.88518e+07
1.8856e+07
1.88602e+07
1.88644e+07
1.88686e+07
1.88728e+07
1.88769e+07
1.82287e+07
1.82345e+07
1.82393e+07
1.82415e+07
1.82429e+07
1.82443e+07
1.82458e+07
1.82475e+07
1.82492e+07
1.82509e+07
1.82526e+07
1.82543e+07
1.82561e+07
1.82579e+07
1.82597e+07
1.82616e+07
1.82635e+07
1.82654e+07
1.82674e+07
1.82693e+07
1.82713e+07
1.82734e+07
1.82754e+07
1.82775e+07
1.82795e+07
1.82816e+07
1.82837e+07
1.82859e+07
1.8288e+07
1.82902e+07
1.82923e+07
1.82945e+07
1.82967e+07
1.82989e+07
1.83011e+07
1.83033e+07
1.83055e+07
1.83077e+07
1.83099e+07
1.83122e+07
1.83144e+07
1.83167e+07
1.8319e+07
1.83213e+07
1.83236e+07
1.83259e+07
1.83283e+07
1.83306e+07
1.8333e+07
1.83354e+07
1.83378e+07
1.83403e+07
1.83427e+07
1.83452e+07
1.83477e+07
1.83502e+07
1.83528e+07
1.83553e+07
1.83579e+07
1.83605e+07
1.83631e+07
1.83658e+07
1.83685e+07
1.83712e+07
1.8374e+07
1.83767e+07
1.83795e+07
1.83823e+07
1.83852e+07
1.8388e+07
1.83909e+07
1.83939e+07
1.83968e+07
1.83998e+07
1.84028e+07
1.84058e+07
1.84087e+07
1.84118e+07
1.84148e+07
1.84179e+07
1.8421e+07
1.84241e+07
1.84272e+07
1.84304e+07
1.84336e+07
1.84368e+07
1.844e+07
1.84432e+07
1.84465e+07
1.84498e+07
1.84531e+07
1.84565e+07
1.84598e+07
1.84632e+07
1.84665e+07
1.84699e+07
1.84733e+07
1.84767e+07
1.84801e+07
1.84835e+07
1.8487e+07
1.84904e+07
1.84939e+07
1.84973e+07
1.85008e+07
1.85042e+07
1.85077e+07
1.85111e+07
1.85146e+07
1.85181e+07
1.85216e+07
1.85251e+07
1.85286e+07
1.85322e+07
1.85357e+07
1.85393e+07
1.85429e+07
1.85465e+07
1.85501e+07
1.85538e+07
1.85575e+07
1.85611e+07
1.85649e+07
1.85686e+07
1.85723e+07
1.85761e+07
1.85799e+07
1.85836e+07
1.85875e+07
1.85913e+07
1.85951e+07
1.85989e+07
1.86028e+07
1.86067e+07
1.86105e+07
1.86144e+07
1.86183e+07
1.86222e+07
1.86261e+07
1.863e+07
1.86339e+07
1.86379e+07
1.86418e+07
1.86457e+07
1.86497e+07
1.86536e+07
1.86576e+07
1.86616e+07
1.86655e+07
1.86695e+07
1.86735e+07
1.86775e+07
1.86815e+07
1.86855e+07
1.86896e+07
1.86936e+07
1.86976e+07
1.87017e+07
1.87057e+07
1.87098e+07
1.87139e+07
1.8718e+07
1.87221e+07
1.87262e+07
1.87303e+07
1.87344e+07
1.87386e+07
1.87427e+07
1.87469e+07
1.8751e+07
1.87552e+07
1.87594e+07
1.87635e+07
1.87677e+07
1.87719e+07
1.87761e+07
1.87803e+07
1.87845e+07
1.87887e+07
1.87929e+07
1.87971e+07
1.88013e+07
1.88055e+07
1.88097e+07
1.88139e+07
1.88181e+07
1.88223e+07
1.88265e+07
1.88307e+07
1.88349e+07
1.88391e+07
1.88434e+07
1.88476e+07
1.88518e+07
1.8856e+07
1.88602e+07
1.88644e+07
1.88686e+07
1.88728e+07
1.8877e+07
1.82391e+07
1.82396e+07
1.82404e+07
1.82415e+07
1.82428e+07
1.82442e+07
1.82457e+07
1.82474e+07
1.82491e+07
1.82508e+07
1.82525e+07
1.82543e+07
1.8256e+07
1.82579e+07
1.82597e+07
1.82616e+07
1.82635e+07
1.82654e+07
1.82673e+07
1.82693e+07
1.82713e+07
1.82733e+07
1.82754e+07
1.82775e+07
1.82795e+07
1.82816e+07
1.82838e+07
1.82859e+07
1.8288e+07
1.82902e+07
1.82923e+07
1.82945e+07
1.82967e+07
1.82989e+07
1.83011e+07
1.83033e+07
1.83055e+07
1.83077e+07
1.83099e+07
1.83122e+07
1.83144e+07
1.83167e+07
1.8319e+07
1.83213e+07
1.83236e+07
1.83259e+07
1.83283e+07
1.83306e+07
1.8333e+07
1.83354e+07
1.83378e+07
1.83403e+07
1.83427e+07
1.83452e+07
1.83477e+07
1.83502e+07
1.83528e+07
1.83553e+07
1.83579e+07
1.83605e+07
1.83632e+07
1.83658e+07
1.83685e+07
1.83712e+07
1.8374e+07
1.83767e+07
1.83795e+07
1.83823e+07
1.83852e+07
1.83881e+07
1.8391e+07
1.83939e+07
1.83969e+07
1.83998e+07
1.84028e+07
1.84058e+07
1.84088e+07
1.84118e+07
1.84149e+07
1.8418e+07
1.84211e+07
1.84242e+07
1.84274e+07
1.84305e+07
1.84337e+07
1.84369e+07
1.84401e+07
1.84434e+07
1.84467e+07
1.84499e+07
1.84532e+07
1.84566e+07
1.84599e+07
1.84633e+07
1.84666e+07
1.847e+07
1.84734e+07
1.84768e+07
1.84802e+07
1.84836e+07
1.8487e+07
1.84904e+07
1.84939e+07
1.84973e+07
1.85008e+07
1.85042e+07
1.85077e+07
1.85112e+07
1.85146e+07
1.85181e+07
1.85216e+07
1.85251e+07
1.85286e+07
1.85322e+07
1.85357e+07
1.85393e+07
1.85429e+07
1.85465e+07
1.85501e+07
1.85538e+07
1.85575e+07
1.85611e+07
1.85649e+07
1.85686e+07
1.85723e+07
1.85761e+07
1.85799e+07
1.85836e+07
1.85875e+07
1.85913e+07
1.85951e+07
1.85989e+07
1.86028e+07
1.86067e+07
1.86105e+07
1.86144e+07
1.86183e+07
1.86222e+07
1.86261e+07
1.863e+07
1.86339e+07
1.86379e+07
1.86418e+07
1.86457e+07
1.86497e+07
1.86536e+07
1.86576e+07
1.86616e+07
1.86655e+07
1.86695e+07
1.86735e+07
1.86775e+07
1.86815e+07
1.86855e+07
1.86896e+07
1.86936e+07
1.86976e+07
1.87017e+07
1.87057e+07
1.87098e+07
1.87139e+07
1.8718e+07
1.87221e+07
1.87262e+07
1.87303e+07
1.87344e+07
1.87386e+07
1.87427e+07
1.87469e+07
1.8751e+07
1.87552e+07
1.87594e+07
1.87635e+07
1.87677e+07
1.87719e+07
1.87761e+07
1.87803e+07
1.87845e+07
1.87887e+07
1.87929e+07
1.87971e+07
1.88013e+07
1.88055e+07
1.88097e+07
1.88139e+07
1.88181e+07
1.88223e+07
1.88265e+07
1.88307e+07
1.88349e+07
1.88391e+07
1.88434e+07
1.88476e+07
1.88518e+07
1.8856e+07
1.88602e+07
1.88644e+07
1.88686e+07
1.88729e+07
1.88772e+07
1.82366e+07
1.82393e+07
1.82403e+07
1.82415e+07
1.82427e+07
1.82442e+07
1.82457e+07
1.82474e+07
1.82491e+07
1.82508e+07
1.82525e+07
1.82543e+07
1.8256e+07
1.82579e+07
1.82597e+07
1.82616e+07
1.82635e+07
1.82654e+07
1.82673e+07
1.82693e+07
1.82713e+07
1.82733e+07
1.82754e+07
1.82775e+07
1.82795e+07
1.82816e+07
1.82838e+07
1.82859e+07
1.8288e+07
1.82902e+07
1.82923e+07
1.82945e+07
1.82967e+07
1.82989e+07
1.83011e+07
1.83033e+07
1.83055e+07
1.83077e+07
1.83099e+07
1.83122e+07
1.83144e+07
1.83167e+07
1.8319e+07
1.83213e+07
1.83236e+07
1.83259e+07
1.83283e+07
1.83306e+07
1.8333e+07
1.83354e+07
1.83378e+07
1.83403e+07
1.83427e+07
1.83452e+07
1.83477e+07
1.83502e+07
1.83528e+07
1.83553e+07
1.83579e+07
1.83605e+07
1.83632e+07
1.83658e+07
1.83685e+07
1.83712e+07
1.8374e+07
1.83767e+07
1.83795e+07
1.83823e+07
1.83852e+07
1.83881e+07
1.8391e+07
1.83939e+07
1.83969e+07
1.83998e+07
1.84028e+07
1.84058e+07
1.84088e+07
1.84118e+07
1.84149e+07
1.8418e+07
1.84211e+07
1.84242e+07
1.84274e+07
1.84305e+07
1.84337e+07
1.84369e+07
1.84401e+07
1.84434e+07
1.84467e+07
1.84499e+07
1.84532e+07
1.84566e+07
1.84599e+07
1.84633e+07
1.84666e+07
1.847e+07
1.84734e+07
1.84768e+07
1.84802e+07
1.84836e+07
1.8487e+07
1.84904e+07
1.84939e+07
1.84973e+07
1.85008e+07
1.85042e+07
1.85077e+07
1.85112e+07
1.85146e+07
1.85181e+07
1.85216e+07
1.85251e+07
1.85286e+07
1.85322e+07
1.85357e+07
1.85393e+07
1.85429e+07
1.85465e+07
1.85501e+07
1.85538e+07
1.85575e+07
1.85611e+07
1.85649e+07
1.85686e+07
1.85723e+07
1.85761e+07
1.85799e+07
1.85836e+07
1.85875e+07
1.85913e+07
1.85951e+07
1.85989e+07
1.86028e+07
1.86067e+07
1.86105e+07
1.86144e+07
1.86183e+07
1.86222e+07
1.86261e+07
1.863e+07
1.86339e+07
1.86379e+07
1.86418e+07
1.86457e+07
1.86497e+07
1.86536e+07
1.86576e+07
1.86616e+07
1.86655e+07
1.86695e+07
1.86735e+07
1.86775e+07
1.86815e+07
1.86855e+07
1.86896e+07
1.86936e+07
1.86976e+07
1.87017e+07
1.87057e+07
1.87098e+07
1.87139e+07
1.8718e+07
1.87221e+07
1.87262e+07
1.87303e+07
1.87344e+07
1.87386e+07
1.87427e+07
1.87469e+07
1.8751e+07
1.87552e+07
1.87594e+07
1.87635e+07
1.87677e+07
1.87719e+07
1.87761e+07
1.87803e+07
1.87845e+07
1.87887e+07
1.87929e+07
1.87971e+07
1.88013e+07
1.88055e+07
1.88097e+07
1.88139e+07
1.88181e+07
1.88223e+07
1.88265e+07
1.88307e+07
1.88349e+07
1.88391e+07
1.88434e+07
1.88476e+07
1.88518e+07
1.8856e+07
1.88602e+07
1.88644e+07
1.88686e+07
1.88729e+07
1.88772e+07
1.88774e+07
1.88772e+07
1.88776e+07
1.88782e+07
1.88786e+07
1.88789e+07
1.8879e+07
1.88791e+07
1.88791e+07
1.88791e+07
1.88791e+07
1.88791e+07
1.88791e+07
1.88791e+07
1.88792e+07
1.88794e+07
1.88795e+07
1.88798e+07
1.88801e+07
1.88807e+07
1.88787e+07
1.88795e+07
1.88803e+07
1.8881e+07
1.88815e+07
1.88819e+07
1.88821e+07
1.88823e+07
1.88824e+07
1.88825e+07
1.88826e+07
1.88827e+07
1.88828e+07
1.8883e+07
1.88831e+07
1.88836e+07
1.88837e+07
1.88841e+07
1.88844e+07
1.88847e+07
1.88797e+07
1.88807e+07
1.88816e+07
1.88824e+07
1.88831e+07
1.88837e+07
1.88841e+07
1.88845e+07
1.88847e+07
1.8885e+07
1.88852e+07
1.88855e+07
1.88856e+07
1.88856e+07
1.88855e+07
1.88853e+07
1.8885e+07
1.88845e+07
1.88842e+07
1.8884e+07
1.88807e+07
1.88821e+07
1.88833e+07
1.88842e+07
1.88851e+07
1.8886e+07
1.8887e+07
1.88883e+07
1.88898e+07
1.88909e+07
1.88909e+07
1.88899e+07
1.88897e+07
1.889e+07
1.88904e+07
1.8891e+07
1.8892e+07
1.88945e+07
1.88967e+07
1.8897e+07
1.88811e+07
1.8883e+07
1.88842e+07
1.88851e+07
1.8886e+07
1.88869e+07
1.88879e+07
1.88892e+07
1.88907e+07
1.88919e+07
1.8892e+07
1.88913e+07
1.8891e+07
1.88912e+07
1.88916e+07
1.8892e+07
1.88929e+07
1.88954e+07
1.88978e+07
1.88985e+07
1.88848e+07
1.88896e+07
1.88939e+07
1.88978e+07
1.89015e+07
1.89055e+07
1.89095e+07
1.89136e+07
1.89175e+07
1.89215e+07
1.89255e+07
1.89296e+07
1.89336e+07
1.89376e+07
1.89416e+07
1.89457e+07
1.89497e+07
1.89537e+07
1.89577e+07
1.89617e+07
1.89657e+07
1.89697e+07
1.89737e+07
1.89777e+07
1.89817e+07
1.89857e+07
1.89897e+07
1.89937e+07
1.89976e+07
1.90016e+07
1.90055e+07
1.90095e+07
1.90134e+07
1.90173e+07
1.90212e+07
1.90251e+07
1.9029e+07
1.90329e+07
1.90368e+07
1.90407e+07
1.90445e+07
1.90483e+07
1.90521e+07
1.9056e+07
1.90598e+07
1.90635e+07
1.90673e+07
1.90711e+07
1.90748e+07
1.90786e+07
1.90823e+07
1.9086e+07
1.90897e+07
1.90934e+07
1.90971e+07
1.91008e+07
1.91045e+07
1.91081e+07
1.91118e+07
1.91154e+07
1.9119e+07
1.91226e+07
1.91262e+07
1.91298e+07
1.91334e+07
1.9137e+07
1.91406e+07
1.91442e+07
1.91477e+07
1.91512e+07
1.91548e+07
1.91583e+07
1.91618e+07
1.91654e+07
1.91689e+07
1.91724e+07
1.91758e+07
1.91793e+07
1.91828e+07
1.91863e+07
1.91897e+07
1.91932e+07
1.91966e+07
1.92001e+07
1.92035e+07
1.9207e+07
1.92104e+07
1.92138e+07
1.92173e+07
1.92206e+07
1.9224e+07
1.92274e+07
1.92307e+07
1.9234e+07
1.92372e+07
1.92405e+07
1.92437e+07
1.92469e+07
1.925e+07
1.9253e+07
1.88854e+07
1.88897e+07
1.8894e+07
1.88978e+07
1.89015e+07
1.89055e+07
1.89095e+07
1.89136e+07
1.89175e+07
1.89215e+07
1.89255e+07
1.89296e+07
1.89336e+07
1.89376e+07
1.89416e+07
1.89457e+07
1.89497e+07
1.89537e+07
1.89577e+07
1.89617e+07
1.89657e+07
1.89697e+07
1.89737e+07
1.89777e+07
1.89817e+07
1.89857e+07
1.89897e+07
1.89937e+07
1.89976e+07
1.90016e+07
1.90055e+07
1.90095e+07
1.90134e+07
1.90173e+07
1.90212e+07
1.90251e+07
1.9029e+07
1.90329e+07
1.90368e+07
1.90407e+07
1.90445e+07
1.90483e+07
1.90521e+07
1.9056e+07
1.90598e+07
1.90635e+07
1.90673e+07
1.90711e+07
1.90748e+07
1.90786e+07
1.90823e+07
1.9086e+07
1.90897e+07
1.90934e+07
1.90971e+07
1.91008e+07
1.91045e+07
1.91081e+07
1.91118e+07
1.91154e+07
1.9119e+07
1.91226e+07
1.91262e+07
1.91298e+07
1.91334e+07
1.9137e+07
1.91406e+07
1.91442e+07
1.91477e+07
1.91512e+07
1.91548e+07
1.91583e+07
1.91618e+07
1.91654e+07
1.91689e+07
1.91724e+07
1.91758e+07
1.91793e+07
1.91828e+07
1.91863e+07
1.91897e+07
1.91932e+07
1.91966e+07
1.92001e+07
1.92035e+07
1.9207e+07
1.92104e+07
1.92139e+07
1.92173e+07
1.92207e+07
1.9224e+07
1.92274e+07
1.92307e+07
1.9234e+07
1.92372e+07
1.92405e+07
1.92437e+07
1.92469e+07
1.925e+07
1.9253e+07
1.88842e+07
1.88901e+07
1.8895e+07
1.88988e+07
1.89024e+07
1.89064e+07
1.89105e+07
1.89145e+07
1.89183e+07
1.89223e+07
1.89264e+07
1.89303e+07
1.89342e+07
1.89382e+07
1.89422e+07
1.89463e+07
1.89502e+07
1.89541e+07
1.89581e+07
1.89621e+07
1.89661e+07
1.89701e+07
1.8974e+07
1.8978e+07
1.89819e+07
1.89859e+07
1.89899e+07
1.89938e+07
1.89978e+07
1.90017e+07
1.90057e+07
1.90096e+07
1.90135e+07
1.90174e+07
1.90213e+07
1.90252e+07
1.90291e+07
1.90329e+07
1.90368e+07
1.90406e+07
1.90445e+07
1.90483e+07
1.90521e+07
1.90559e+07
1.90597e+07
1.90635e+07
1.90673e+07
1.90711e+07
1.90748e+07
1.90786e+07
1.90823e+07