/*--------------------------------*- C++ -*----------------------------------*\
| =========                 |                                                 |
| \\      /  F ield         | OpenFOAM: The Open Source CFD Toolbox           |
|  \\    /   O peration     | Version:  3.0.x                                 |
|   \\  /    A nd           | Web:      www.OpenFOAM.org                      |
|    \\/     M anipulation  |                                                 |
\*---------------------------------------------------------------------------*/
FoamFile
{
    version     2.0;
    format      ascii;
    class       volScalarField;
    location    "0.44";
    object      rho;
}
// * * * * * * * * * * * * * * * * * * * * * * * * * * * * * * * * * * * * * //

dimensions      [1 -3 0 0 0 0 0];

internalField   nonuniform List<scalar> 
6900
(
50.9224
50.9224
50.9225
50.9225
50.9226
50.9227
50.9227
50.9228
50.9229
50.923
50.923
50.9231
50.9232
50.9233
50.9233
50.9234
50.9234
50.9234
50.9235
50.9235
50.9234
50.9234
50.9234
50.9233
50.9233
50.9232
50.9231
50.923
50.9229
50.9228
50.9228
50.9228
50.9229
50.923
50.9231
50.9232
50.9233
50.9233
50.9233
50.9234
50.9234
50.9235
50.9237
50.9239
50.9241
50.9243
50.9246
50.9249
50.9252
50.9255
50.9258
50.926
50.9261
50.9262
50.9263
50.9263
50.9264
50.9265
50.9265
50.9267
50.9268
50.9268
50.9269
50.9269
50.9269
50.9269
50.9269
50.9268
50.9268
50.9267
50.9267
50.9267
50.9267
50.9267
50.9267
50.9267
50.9268
50.9269
50.927
50.9271
50.9272
50.9273
50.9275
50.9276
50.9278
50.9279
50.928
50.9282
50.9283
50.9284
50.9285
50.9286
50.9286
50.9287
50.9288
50.9288
50.9289
50.9289
50.929
50.929
50.9291
50.9291
50.9292
50.9294
50.9295
50.9297
50.9299
50.9301
50.9304
50.9307
50.931
50.9314
50.9318
50.9323
50.9328
50.9333
50.9339
50.9345
50.9351
50.9357
50.9363
50.937
50.9376
50.9383
50.9389
50.9396
50.9403
50.941
50.9417
50.9423
50.9431
50.9438
50.9445
50.9453
50.946
50.9469
50.9477
50.9486
50.9496
50.9506
50.9516
50.9527
50.9539
50.9552
50.9565
50.9579
50.9594
50.9609
50.9625
50.9642
50.966
50.9678
50.9697
50.9716
50.9736
50.9756
50.9776
50.9797
50.9817
50.9838
50.9859
50.9881
50.9902
50.9924
50.9945
50.9967
50.999
51.0012
51.0036
51.0059
51.0083
51.0107
51.0132
51.0158
51.0184
51.0211
51.0239
51.0268
51.0297
51.0328
51.0359
51.0391
51.0425
51.046
51.0495
51.0532
51.057
51.0608
51.0648
51.0688
51.0728
51.0769
51.0811
51.0851
51.0894
51.0934
51.0978
51.1016
51.1065
51.1078
50.9226
50.9226
50.9227
50.9227
50.9228
50.9229
50.9229
50.923
50.9231
50.9232
50.9232
50.9233
50.9234
50.9235
50.9235
50.9236
50.9236
50.9236
50.9237
50.9237
50.9236
50.9236
50.9236
50.9235
50.9234
50.9234
50.9233
50.9232
50.9231
50.923
50.923
50.9229
50.923
50.9232
50.9233
50.9234
50.9234
50.9235
50.9235
50.9235
50.9236
50.9237
50.9238
50.924
50.9242
50.9245
50.9248
50.9251
50.9254
50.9257
50.926
50.9262
50.9263
50.9264
50.9264
50.9265
50.9265
50.9266
50.9267
50.9268
50.9269
50.927
50.927
50.9271
50.9271
50.927
50.927
50.927
50.9269
50.9269
50.9268
50.9268
50.9268
50.9268
50.9268
50.9269
50.9269
50.927
50.9271
50.9272
50.9273
50.9275
50.9276
50.9277
50.9279
50.928
50.9282
50.9283
50.9284
50.9285
50.9286
50.9287
50.9288
50.9288
50.9289
50.929
50.929
50.929
50.9291
50.9291
50.9292
50.9293
50.9294
50.9295
50.9296
50.9298
50.93
50.9302
50.9305
50.9308
50.9312
50.9315
50.932
50.9324
50.9329
50.9335
50.934
50.9346
50.9352
50.9358
50.9365
50.9371
50.9378
50.9384
50.9391
50.9398
50.9404
50.9411
50.9418
50.9425
50.9432
50.9439
50.9446
50.9454
50.9462
50.947
50.9479
50.9488
50.9497
50.9507
50.9517
50.9529
50.954
50.9553
50.9566
50.958
50.9595
50.961
50.9627
50.9644
50.9661
50.9679
50.9698
50.9717
50.9737
50.9757
50.9777
50.9798
50.9819
50.984
50.9861
50.9882
50.9903
50.9925
50.9947
50.9969
50.9991
51.0014
51.0037
51.006
51.0084
51.0109
51.0134
51.0159
51.0186
51.0213
51.024
51.0269
51.0298
51.0329
51.036
51.0393
51.0426
51.0461
51.0497
51.0533
51.0571
51.061
51.0649
51.0689
51.073
51.077
51.0812
51.0853
51.0895
51.0935
51.0979
51.1018
51.1066
51.1082
50.9226
50.9226
50.9227
50.9227
50.9228
50.9228
50.9229
50.923
50.9231
50.9232
50.9232
50.9233
50.9234
50.9235
50.9235
50.9236
50.9236
50.9236
50.9236
50.9236
50.9236
50.9236
50.9236
50.9235
50.9234
50.9234
50.9233
50.9232
50.9231
50.923
50.923
50.9229
50.923
50.9232
50.9233
50.9234
50.9234
50.9235
50.9235
50.9235
50.9236
50.9237
50.9238
50.924
50.9242
50.9245
50.9248
50.9251
50.9254
50.9257
50.926
50.9261
50.9263
50.9264
50.9264
50.9265
50.9265
50.9266
50.9267
50.9268
50.9269
50.927
50.927
50.9271
50.9271
50.927
50.927
50.927
50.9269
50.9269
50.9268
50.9268
50.9268
50.9268
50.9268
50.9269
50.9269
50.927
50.9271
50.9272
50.9273
50.9275
50.9276
50.9277
50.9279
50.928
50.9282
50.9283
50.9284
50.9285
50.9286
50.9287
50.9288
50.9288
50.9289
50.929
50.929
50.929
50.9291
50.9291
50.9292
50.9293
50.9294
50.9295
50.9296
50.9298
50.93
50.9302
50.9305
50.9308
50.9312
50.9315
50.932
50.9324
50.9329
50.9335
50.934
50.9346
50.9352
50.9358
50.9365
50.9371
50.9378
50.9384
50.9391
50.9398
50.9404
50.9411
50.9418
50.9425
50.9432
50.9439
50.9446
50.9454
50.9462
50.947
50.9479
50.9488
50.9497
50.9507
50.9517
50.9529
50.954
50.9553
50.9566
50.958
50.9595
50.961
50.9627
50.9644
50.9661
50.9679
50.9698
50.9717
50.9737
50.9757
50.9777
50.9798
50.9819
50.984
50.9861
50.9882
50.9903
50.9925
50.9947
50.9969
50.9991
51.0014
51.0037
51.006
51.0084
51.0109
51.0134
51.0159
51.0186
51.0213
51.024
51.0269
51.0298
51.0329
51.036
51.0393
51.0426
51.0461
51.0497
51.0533
51.0571
51.061
51.0649
51.0689
51.073
51.077
51.0812
51.0853
51.0895
51.0936
51.0978
51.1019
51.1061
51.1105
50.9226
50.9226
50.9227
50.9227
50.9228
50.9229
50.9229
50.923
50.9231
50.9232
50.9232
50.9233
50.9234
50.9235
50.9235
50.9236
50.9236
50.9236
50.9237
50.9237
50.9236
50.9236
50.9236
50.9235
50.9234
50.9234
50.9233
50.9232
50.9231
50.923
50.923
50.9229
50.923
50.9232
50.9233
50.9234
50.9234
50.9235
50.9235
50.9235
50.9236
50.9237
50.9238
50.924
50.9242
50.9245
50.9248
50.9251
50.9254
50.9257
50.926
50.9262
50.9263
50.9264
50.9264
50.9265
50.9265
50.9266
50.9267
50.9268
50.9269
50.927
50.927
50.9271
50.9271
50.927
50.927
50.927
50.9269
50.9269
50.9268
50.9268
50.9268
50.9268
50.9268
50.9269
50.9269
50.927
50.9271
50.9272
50.9273
50.9275
50.9276
50.9277
50.9279
50.928
50.9282
50.9283
50.9284
50.9285
50.9286
50.9287
50.9288
50.9288
50.9289
50.929
50.929
50.929
50.9291
50.9291
50.9292
50.9293
50.9294
50.9295
50.9296
50.9298
50.93
50.9302
50.9305
50.9308
50.9312
50.9315
50.932
50.9324
50.9329
50.9335
50.934
50.9346
50.9352
50.9358
50.9365
50.9371
50.9378
50.9384
50.9391
50.9398
50.9404
50.9411
50.9418
50.9425
50.9432
50.9439
50.9446
50.9454
50.9462
50.947
50.9479
50.9488
50.9497
50.9507
50.9517
50.9529
50.954
50.9553
50.9566
50.958
50.9595
50.961
50.9627
50.9644
50.9661
50.9679
50.9698
50.9717
50.9737
50.9757
50.9777
50.9798
50.9819
50.984
50.9861
50.9882
50.9903
50.9925
50.9947
50.9969
50.9991
51.0014
51.0037
51.006
51.0084
51.0109
51.0134
51.0159
51.0186
51.0213
51.024
51.0269
51.0298
51.0329
51.036
51.0393
51.0426
51.0461
51.0497
51.0533
51.0571
51.061
51.0649
51.0689
51.0729
51.0771
51.0811
51.0854
51.0894
51.0937
51.0977
51.1021
51.1049
51.1149
50.9224
50.9224
50.9225
50.9225
50.9226
50.9227
50.9227
50.9228
50.9229
50.923
50.923
50.9231
50.9232
50.9233
50.9233
50.9234
50.9234
50.9234
50.9235
50.9235
50.9234
50.9234
50.9234
50.9233
50.9233
50.9232
50.9231
50.923
50.9229
50.9228
50.9228
50.9228
50.9229
50.923
50.9231
50.9232
50.9233
50.9233
50.9233
50.9234
50.9234
50.9235
50.9237
50.9239
50.9241
50.9243
50.9246
50.9249
50.9252
50.9255
50.9258
50.926
50.9261
50.9262
50.9263
50.9263
50.9264
50.9265
50.9265
50.9267
50.9268
50.9268
50.9269
50.9269
50.9269
50.9269
50.9269
50.9268
50.9268
50.9267
50.9267
50.9267
50.9267
50.9267
50.9267
50.9267
50.9268
50.9269
50.927
50.9271
50.9272
50.9273
50.9275
50.9276
50.9278
50.9279
50.928
50.9282
50.9283
50.9284
50.9285
50.9286
50.9286
50.9287
50.9288
50.9288
50.9289
50.9289
50.929
50.929
50.9291
50.9291
50.9292
50.9294
50.9295
50.9297
50.9299
50.9301
50.9304
50.9307
50.931
50.9314
50.9318
50.9323
50.9328
50.9333
50.9339
50.9345
50.9351
50.9357
50.9363
50.937
50.9376
50.9383
50.9389
50.9396
50.9403
50.941
50.9417
50.9423
50.9431
50.9438
50.9445
50.9453
50.946
50.9469
50.9477
50.9486
50.9496
50.9506
50.9516
50.9527
50.9539
50.9552
50.9565
50.9579
50.9594
50.9609
50.9625
50.9642
50.966
50.9678
50.9697
50.9716
50.9736
50.9756
50.9776
50.9797
50.9817
50.9838
50.9859
50.9881
50.9902
50.9924
50.9945
50.9967
50.999
51.0012
51.0036
51.0059
51.0083
51.0107
51.0132
51.0158
51.0184
51.0211
51.0239
51.0268
51.0297
51.0328
51.0359
51.0391
51.0425
51.046
51.0495
51.0532
51.057
51.0608
51.0648
51.0688
51.0728
51.0769
51.081
51.0853
51.0892
51.0936
51.0975
51.1019
51.1043
51.1201
51.1269
51.1341
51.1356
51.1349
51.1345
51.1343
51.1333
51.1303
51.1265
51.1234
51.1211
51.1224
51.1313
51.1379
51.1344
51.1209
51.103
51.0908
51.0803
51.0712
51.1238
51.1277
51.1285
51.128
51.1276
51.1274
51.1266
51.1234
51.1197
51.1167
51.1147
51.116
51.126
51.1313
51.1257
51.109
51.0907
51.08
51.0707
51.0627
51.1135
51.1142
51.114
51.1128
51.111
51.1085
51.1053
51.1017
51.0972
51.0918
51.0853
51.0777
51.0689
51.0603
51.0526
51.0462
51.0394
51.031
51.0215
51.011
51.094
51.092
51.0935
51.0957
51.0953
51.0925
51.0884
51.0824
51.0776
51.0712
51.066
51.0607
51.0545
51.0493
51.044
51.0395
51.0352
51.0322
51.0299
51.0288
51.0849
51.0746
51.0711
51.0712
51.0699
51.066
51.0608
51.0539
51.0476
51.0402
51.0336
51.0266
51.0198
51.0131
51.0069
51.001
50.9959
50.9918
50.9891
50.9879
51.0526
51.0391
51.0318
51.031
51.0344
51.0383
51.0405
51.0433
51.0472
51.0514
51.0551
51.0591
51.0632
51.0673
51.0716
51.076
51.0803
51.0848
51.0893
51.0939
51.0986
51.1034
51.1081
51.1128
51.1176
51.1225
51.1274
51.1324
51.1374
51.1424
51.1474
51.1525
51.1576
51.1627
51.1679
51.173
51.1782
51.1833
51.1885
51.1937
51.199
51.2042
51.2095
51.2149
51.2202
51.2256
51.2311
51.2366
51.2422
51.2478
51.2534
51.2591
51.2649
51.2707
51.2765
51.2824
51.2883
51.2943
51.3004
51.3064
51.3126
51.3188
51.3251
51.3313
51.3377
51.3441
51.3506
51.3571
51.3636
51.3703
51.3771
51.384
51.3909
51.3978
51.4047
51.4118
51.4192
51.4261
51.4327
51.4395
51.4466
51.4539
51.4612
51.4685
51.4759
51.4833
51.4907
51.4981
51.5055
51.5131
51.5208
51.5287
51.5365
51.5441
51.5514
51.5587
51.5664
51.5749
51.5834
51.5906
51.5948
51.5982
51.6032
51.6105
51.6198
51.6303
51.6434
51.6556
51.6661
51.6758
51.6851
51.6931
51.7007
51.7085
51.7164
51.7245
51.7327
51.7409
51.7493
51.7577
51.7662
51.7747
51.7833
51.792
51.8006
51.8094
51.8181
51.8269
51.8358
51.8446
51.8535
51.8624
51.8714
51.8804
51.8894
51.8984
51.9074
51.9165
51.9255
51.9346
51.9437
51.9528
51.962
51.9711
51.9803
51.9895
51.9986
52.0079
52.0171
52.0263
52.0356
52.0449
52.0542
52.0635
52.0728
52.0822
52.0916
52.101
52.1104
52.1198
52.1293
52.1388
52.1483
52.1578
52.1674
52.177
52.1866
52.1962
52.2058
52.2154
52.2251
52.2348
52.2444
52.2541
52.2638
52.2736
52.2833
52.293
52.3027
52.3125
52.3222
52.332
52.3416
52.3515
52.3611
52.3711
52.3806
52.3906
52.4001
52.4102
52.4195
52.4297
52.439
52.4493
52.4585
52.4689
52.478
52.4884
52.4969
52.5077
51.0508
51.0384
51.0311
51.0301
51.0335
51.0369
51.0393
51.0422
51.0461
51.0501
51.0538
51.0579
51.062
51.0661
51.0704
51.0748
51.0792
51.0836
51.0881
51.0927
51.0974
51.1021
51.1069
51.1116
51.1165
51.1214
51.1263
51.1313
51.1363
51.1413
51.1464
51.1515
51.1566
51.1617
51.1668
51.172
51.1771
51.1823
51.1875
51.1927
51.1979
51.2031
51.2084
51.2138
51.2192
51.2246
51.2301
51.2356
51.2412
51.2468
51.2525
51.2582
51.264
51.2698
51.2756
51.2815
51.2874
51.2934
51.2994
51.3055
51.3116
51.3178
51.324
51.3303
51.3366
51.343
51.3494
51.356
51.3625
51.3692
51.3759
51.3827
51.3894
51.3961
51.4028
51.4097
51.4171
51.4243
51.4312
51.4381
51.4453
51.4527
51.46
51.4672
51.4744
51.4817
51.489
51.4965
51.504
51.5117
51.5193
51.5268
51.5341
51.5413
51.5489
51.5572
51.5657
51.5733
51.5787
51.5829
51.5876
51.5937
51.6018
51.6113
51.622
51.6349
51.6468
51.6572
51.6669
51.6763
51.6846
51.6924
51.7002
51.7082
51.7163
51.7244
51.7327
51.741
51.7493
51.7578
51.7663
51.7748
51.7834
51.7921
51.8008
51.8095
51.8183
51.8271
51.8359
51.8448
51.8536
51.8626
51.8715
51.8805
51.8895
51.8985
51.9075
51.9166
51.9257
51.9348
51.9439
51.953
51.9621
51.9712
51.9804
51.9896
51.9988
52.008
52.0172
52.0265
52.0357
52.045
52.0543
52.0636
52.073
52.0823
52.0917
52.1011
52.1105
52.12
52.1294
52.1389
52.1484
52.158
52.1675
52.1771
52.1867
52.1963
52.2059
52.2156
52.2252
52.2349
52.2446
52.2543
52.264
52.2737
52.2834
52.2931
52.3028
52.3126
52.3223
52.3321
52.3418
52.3516
52.3612
52.3712
52.3807
52.3907
52.4002
52.4103
52.4197
52.4298
52.4391
52.4494
52.4586
52.469
52.4781
52.4885
52.4974
52.5078
50.9791
50.9945
51.0066
51.0113
51.014
51.0169
51.0204
51.0244
51.0283
51.0323
51.0363
51.0403
51.0445
51.0487
51.053
51.0573
51.0617
51.0662
51.0708
51.0755
51.0802
51.085
51.0898
51.0947
51.0997
51.1046
51.1095
51.1145
51.1195
51.1245
51.1295
51.1346
51.1397
51.1449
51.1501
51.1554
51.1607
51.166
51.1713
51.1766
51.182
51.1874
51.1927
51.1981
51.2035
51.209
51.2144
51.2198
51.2253
51.2309
51.2365
51.2421
51.2478
51.2536
51.2594
51.2653
51.2712
51.2772
51.2831
51.2891
51.2952
51.3013
51.3075
51.3137
51.3199
51.3261
51.3323
51.3386
51.345
51.3514
51.3579
51.3645
51.3712
51.3783
51.3859
51.394
51.4026
51.4125
51.4229
51.4328
51.4418
51.4505
51.4591
51.4673
51.4752
51.4829
51.4905
51.498
51.5055
51.513
51.5206
51.5282
51.5359
51.5437
51.5516
51.5596
51.5676
51.5757
51.5839
51.5922
51.6004
51.6088
51.6171
51.6254
51.6337
51.642
51.6501
51.6583
51.6664
51.6745
51.6827
51.6909
51.6991
51.7073
51.7156
51.7239
51.7323
51.7407
51.7491
51.7576
51.7662
51.7748
51.7834
51.792
51.8007
51.8095
51.8182
51.827
51.8359
51.8447
51.8536
51.8626
51.8715
51.8805
51.8895
51.8985
51.9075
51.9166
51.9257
51.9348
51.9439
51.953
51.9621
51.9712
51.9804
51.9896
51.9988
52.008
52.0172
52.0265
52.0357
52.045
52.0543
52.0636
52.073
52.0823
52.0917
52.1011
52.1105
52.12
52.1294
52.1389
52.1484
52.158
52.1675
52.1771
52.1867
52.1963
52.2059
52.2156
52.2252
52.2349
52.2446
52.2543
52.264
52.2737
52.2834
52.2931
52.3029
52.3126
52.3223
52.332
52.3418
52.3515
52.3614
52.371
52.3809
52.3906
52.4003
52.4101
52.4198
52.4296
52.4395
52.449
52.4591
52.4686
52.4784
52.4882
52.498
52.5076
51.0241
51.025
51.0268
51.0294
51.0318
51.0346
51.0384
51.0423
51.0462
51.0501
51.0542
51.0582
51.0624
51.0666
51.0709
51.0753
51.0797
51.0842
51.0888
51.0934
51.0981
51.1028
51.1075
51.1123
51.1172
51.1221
51.127
51.1319
51.1369
51.1419
51.1469
51.152
51.157
51.1621
51.1673
51.1724
51.1776
51.1828
51.188
51.1932
51.1985
51.2038
51.2091
51.2145
51.2198
51.2252
51.2307
51.2362
51.2417
51.2473
51.2529
51.2585
51.2642
51.27
51.2758
51.2817
51.2876
51.2936
51.2997
51.3058
51.3119
51.3181
51.3244
51.3307
51.3372
51.3436
51.3501
51.3568
51.3634
51.3702
51.377
51.3838
51.3906
51.3975
51.4043
51.4112
51.4181
51.4251
51.4322
51.4393
51.4464
51.4537
51.461
51.4683
51.4753
51.4824
51.4898
51.4974
51.5045
51.5114
51.5184
51.5258
51.5334
51.5407
51.5473
51.5534
51.5592
51.5656
51.5728
51.5812
51.5905
51.6004
51.6118
51.623
51.633
51.6427
51.652
51.6604
51.6682
51.676
51.6838
51.6918
51.6998
51.7079
51.716
51.7242
51.7325
51.7409
51.7493
51.7577
51.7662
51.7748
51.7834
51.7921
51.8008
51.8095
51.8182
51.827
51.8359
51.8448
51.8536
51.8626
51.8715
51.8805
51.8895
51.8985
51.9075
51.9166
51.9257
51.9348
51.9439
51.953
51.9621
51.9712
51.9804
51.9896
51.9988
52.008
52.0172
52.0265
52.0357
52.045
52.0543
52.0636
52.073
52.0823
52.0917
52.1011
52.1105
52.12
52.1294
52.1389
52.1484
52.158
52.1675
52.1771
52.1867
52.1963
52.2059
52.2156
52.2252
52.2349
52.2446
52.2543
52.264
52.2737
52.2834
52.2931
52.3029
52.3126
52.3223
52.332
52.3419
52.3515
52.3614
52.371
52.3809
52.3905
52.4005
52.4099
52.4201
52.4294
52.4396
52.4489
52.4592
52.4684
52.4787
52.4879
52.4983
52.5075
51.0102
51.0162
51.0187
51.0212
51.0235
51.0266
51.0301
51.034
51.0379
51.0418
51.0458
51.0498
51.054
51.0582
51.0625
51.0668
51.0712
51.0757
51.0803
51.0849
51.0895
51.0942
51.099
51.1037
51.1086
51.1135
51.1184
51.1233
51.1283
51.1333
51.1384
51.1435
51.1486
51.1537
51.1589
51.1641
51.1693
51.1745
51.1797
51.1849
51.1902
51.1954
51.2007
51.2061
51.2115
51.2169
51.2224
51.2279
51.2334
51.239
51.2447
51.2504
51.2562
51.262
51.2678
51.2737
51.2797
51.2857
51.2918
51.298
51.3042
51.3104
51.3167
51.3231
51.3295
51.3359
51.3425
51.349
51.3556
51.3623
51.369
51.3758
51.3826
51.3895
51.3964
51.4034
51.4104
51.4175
51.4246
51.4317
51.4389
51.4461
51.4534
51.4608
51.4682
51.4754
51.4824
51.4893
51.4967
51.5047
51.5131
51.5207
51.526
51.5294
51.5337
51.5401
51.5485
51.5581
51.5692
51.5823
51.5943
51.6048
51.6145
51.624
51.6331
51.6416
51.6499
51.6581
51.6663
51.6744
51.6826
51.6908
51.699
51.7072
51.7155
51.7238
51.7322
51.7406
51.749
51.7575
51.7661
51.7746
51.7832
51.7919
51.8006
51.8093
51.8181
51.8269
51.8358
51.8446
51.8535
51.8624
51.8714
51.8804
51.8894
51.8984
51.9074
51.9165
51.9255
51.9346
51.9437
51.9528
51.962
51.9711
51.9803
51.9895
51.9986
52.0079
52.0171
52.0263
52.0356
52.0449
52.0542
52.0635
52.0728
52.0822
52.0916
52.101
52.1104
52.1198
52.1293
52.1388
52.1483
52.1578
52.1674
52.177
52.1866
52.1962
52.2058
52.2154
52.2251
52.2348
52.2444
52.2541
52.2638
52.2735
52.2833
52.293
52.3027
52.3124
52.3222
52.3319
52.3417
52.3514
52.3613
52.3709
52.3808
52.3903
52.4004
52.4098
52.4199
52.4293
52.4395
52.4488
52.459
52.4683
52.4785
52.4881
52.4976
52.5081
52.5094
52.5086
52.5096
52.5112
52.5123
52.5129
52.5131
52.5133
52.5133
52.5132
52.5131
52.513
52.513
52.513
52.513
52.5136
52.5138
52.5143
52.5149
52.5159
52.5116
52.5134
52.5154
52.5172
52.5184
52.5193
52.5199
52.5205
52.5209
52.5213
52.5216
52.5221
52.5224
52.523
52.5232
52.5245
52.5249
52.5257
52.5263
52.5271
52.5139
52.5163
52.5182
52.52
52.5215
52.5228
52.5238
52.5244
52.5247
52.5249
52.5252
52.5256
52.5255
52.5246
52.5236
52.5225
52.5209
52.5181
52.5155
52.5143
52.5159
52.5192
52.5217
52.5239
52.5258
52.5276
52.5297
52.5327
52.5368
52.5396
52.5392
52.5362
52.5352
52.5356
52.5353
52.5358
52.5386
52.5466
52.5543
52.5566
52.5171
52.5212
52.5238
52.5257
52.5275
52.5291
52.531
52.534
52.5379
52.5409
52.5411
52.5387
52.5376
52.5375
52.5367
52.5369
52.5398
52.547
52.5555
52.5608
52.525
52.5356
52.5447
52.5527
52.5608
52.5693
52.5779
52.5864
52.595
52.6036
52.6124
52.6211
52.6298
52.6388
52.6478
52.6568
52.6657
52.6746
52.6837
52.6929
52.7021
52.7113
52.7204
52.7295
52.7388
52.748
52.7572
52.7664
52.7756
52.7848
52.794
52.8032
52.8123
52.8214
52.8305
52.8396
52.8487
52.8577
52.8667
52.8757
52.8846
52.8936
52.9024
52.9113
52.9201
52.9288
52.9376
52.9463
52.955
52.9636
52.9722
52.9808
52.9894
52.998
53.0066
53.0151
53.0237
53.0322
53.0406
53.0491
53.0575
53.0659
53.0742
53.0826
53.0909
53.0992
53.1074
53.1157
53.1239
53.1321
53.1403
53.1484
53.1565
53.1646
53.1727
53.1808
53.1889
53.1968
53.2047
53.2128
53.2211
53.229
53.236
53.2429
53.2508
53.2597
53.2686
53.2763
53.2792
53.2804
53.2852
53.2934
53.3031
53.3153
53.3287
53.3401
53.3502
53.3595
53.3681
53.3761
52.5278
52.5374
52.5463
52.5546
52.5633
52.5722
52.581
52.5898
52.5987
52.6078
52.6169
52.626
52.6351
52.6443
52.6536
52.6629
52.6721
52.6813
52.6907
52.7
52.7094
52.7187
52.728
52.7372
52.7466
52.7559
52.7652
52.7745
52.7838
52.793
52.8022
52.8114
52.8206
52.8297
52.8388
52.8479
52.857
52.866
52.875
52.884
52.8929
52.9017
52.9106
52.9194
52.9282
52.937
52.9457
52.9545
52.9631
52.9718
52.9804
52.989
52.9976
53.0061
53.0146
53.0231
53.0316
53.04
53.0485
53.0569
53.0653
53.0737
53.0821
53.0904
53.0987
53.107
53.1153
53.1235
53.1317
53.1399
53.1481
53.1562
53.1643
53.1723
53.1805
53.1887
53.1965
53.2043
53.2125
53.2206
53.2283
53.2358
53.2436
53.2516
53.2592
53.2664
53.2736
53.281
53.2885
53.2957
53.3022
53.3076
53.3126
53.3186
53.3265
53.3355
53.345
53.3558
53.3667
53.3759
52.5114
52.5248
52.5341
52.5408
52.5481
52.5561
52.5646
52.5729
52.5814
52.5904
52.5996
52.6085
52.6175
52.6269
52.6364
52.6457
52.6549
52.6643
52.6739
52.6834
52.6929
52.7023
52.7116
52.721
52.7305
52.7398
52.7491
52.7584
52.7676
52.7768
52.7859
52.795
52.8041
52.8131
52.8222
52.8313
52.8404
52.8494
52.8584
52.8674
52.8764
52.8853
52.8941
52.903
52.9117
52.9205
52.9292
52.9379
52.9466
52.9552
52.9638
52.9724
52.981
52.9895
52.998
53.0064
53.0147
53.023
53.0314
53.0397
53.048
53.0562
53.0643
53.0725
53.0806
53.0886
53.0964
53.1043
53.1123
53.1209
53.1301
53.1399
53.1501
53.1611
53.1719
53.1822
53.1921
53.2018
53.2111
53.2196
53.2278
53.2359
53.2439
53.2517
53.2596
53.2673
53.2752
53.2831
53.2911
53.2989
53.307
53.3147
53.3229
53.3305
53.3384
53.3464
53.3541
53.3619
53.3696
53.3772
52.5362
52.5371
52.55
52.5616
52.5671
52.5727
52.5821
52.5922
52.6012
52.609
52.6179
52.6279
52.638
52.6463
52.6546
52.6638
52.6743
52.684
52.6924
52.701
52.7103
52.7199
52.7298
52.7388
52.7474
52.7565
52.7658
52.775
52.7842
52.7934
52.8025
52.8116
52.8207
52.8298
52.8388
52.8478
52.8568
52.8658
52.8747
52.8836
52.8925
52.9014
52.9102
52.919
52.9277
52.9365
52.9452
52.9538
52.9625
52.9711
52.9798
52.9884
52.997
53.0056
53.0141
53.0227
53.0312
53.0397
53.0481
53.0566
53.0649
53.0733
53.0816
53.0899
53.0981
53.1064
53.1146
53.1229
53.131
53.139
53.1471
53.1552
53.1633
53.1714
53.1794
53.1875
53.1955
53.2034
53.2112
53.219
53.2269
53.2348
53.2427
53.2505
53.2583
53.2663
53.2743
53.2819
53.2889
53.2961
53.3042
53.313
53.3215
53.3285
53.3318
53.334
53.3381
53.3451
53.3539
53.3639
52.5385
52.5373
52.5514
52.5647
52.5691
52.5741
52.5839
52.5961
52.6049
52.6116
52.6201
52.6311
52.6414
52.6488
52.6567
52.6662
52.6774
52.6868
52.6945
52.7028
52.7122
52.7219
52.7319
52.7406
52.7489
52.7579
52.7671
52.7762
52.7854
52.7945
52.8036
52.8127
52.8218
52.8308
52.8399
52.8489
52.8578
52.8668
52.8757
52.8846
52.8935
52.9024
52.9112
52.92
52.9288
52.9375
52.9462
52.9549
52.9636
52.9722
52.9808
52.9894
52.998
53.0066
53.0151
53.0236
53.0321
53.0406
53.0491
53.0575
53.0659
53.0743
53.0827
53.091
53.0992
53.1075
53.1157
53.1241
53.1322
53.1402
53.1483
53.1564
53.1645
53.1725
53.1805
53.1885
53.1965
53.2045
53.2125
53.2205
53.2284
53.2362
53.2441
53.2521
53.2601
53.2679
53.2758
53.2839
53.2921
53.2996
53.3065
53.3134
53.3214
53.33
53.3384
53.3452
53.3469
53.3482
53.353
53.3611
53.3786
53.3791
53.3804
53.3821
53.3838
53.3855
53.387
53.3884
53.3897
53.391
53.3923
53.3936
53.3947
53.3958
53.3968
53.3979
53.399
53.4002
53.4013
53.4026
53.38
53.3814
53.3831
53.385
53.3869
53.3887
53.3903
53.3918
53.3932
53.3945
53.3957
53.3968
53.3979
53.3989
53.3998
53.4008
53.4018
53.4029
53.4039
53.4051
53.3819
53.3837
53.3854
53.387
53.3886
53.39
53.3914
53.3927
53.3939
53.3949
53.3958
53.3967
53.3971
53.3975
53.3981
53.399
53.3994
53.4001
53.4005
53.4013
53.3713
53.3748
53.378
53.3807
53.3837
53.3867
53.3893
53.392
53.3944
53.3967
53.399
53.4017
53.4046
53.4084
53.4098
53.4079
53.4059
53.4069
53.4081
53.4079
53.367
53.3707
53.3742
53.3777
53.3814
53.385
53.388
53.3911
53.3942
53.3969
53.3994
53.4021
53.4057
53.4099
53.4122
53.4111
53.4093
53.4094
53.4091
53.4072
53.4082
53.4153
53.4212
53.4269
53.4326
53.4382
53.4439
53.4498
53.4555
53.461
53.4665
53.4723
53.4782
53.4838
53.4891
53.4943
53.5001
53.506
53.5119
53.5176
53.5231
53.5284
53.5341
53.5401
53.5461
53.552
53.5579
53.5638
53.5696
53.5754
53.5811
53.5868
53.5924
53.598
53.6035
53.609
53.6144
53.6198
53.6251
53.6304
53.6357
53.6409
53.6461
53.6512
53.6562
53.6612
53.6662
53.671
53.6758
53.6806
53.6853
53.69
53.6947
53.6991
53.7031
53.7072
53.7116
53.7161
53.7204
53.7244
53.7284
53.7324
53.7365
53.7405
53.7444
53.7482
53.7521
53.7559
53.7598
53.7634
53.7668
53.7705
53.7746
53.7784
53.7811
53.7834
53.7868
53.7912
53.7956
53.7981
53.7936
53.79
53.7924
53.7973
53.8061
53.8162
53.8238
53.8297
53.8349
53.8395
53.8433
53.8465
53.8493
53.8519
53.8544
53.8568
53.8592
53.8615
53.8637
53.8658
53.8679
53.87
53.872
53.8739
53.8758
53.8776
53.8794
53.8812
53.8828
53.8845
53.8861
53.8876
53.8891
53.8905
53.8919
53.8932
53.8945
53.8957
53.8969
53.8981
53.8992
53.9003
53.9013
53.9023
53.9032
53.9041
53.905
53.9058
53.9066
53.9073
53.9081
53.9087
53.9094
53.91
53.9106
53.9112
53.9117
53.9122
53.9127
53.9131
53.9136
53.914
53.9144
53.9147
53.9151
53.9154
53.9157
53.916
53.9162
53.9165
53.9167
53.9169
53.9171
53.9173
53.9174
53.9176
53.9177
53.9178
53.918
53.9181
53.9181
53.9182
53.9183
53.9183
53.9184
53.9184
53.9184
53.9185
53.9185
53.9185
53.9185
53.9185
53.9185
53.9185
53.9185
53.9184
53.9184
53.9184
53.9184
53.9183
53.9184
53.9183
53.9184
53.9182
53.9184
53.9182
53.9184
53.9181
53.9184
53.9181
53.9184
53.9182
53.9185
53.9183
53.9184
53.9186
53.9183
53.9187
53.9187
53.9186
53.4083
53.4149
53.4207
53.426
53.4314
53.4374
53.4437
53.4499
53.4557
53.4615
53.4676
53.4741
53.4803
53.4862
53.4919
53.4979
53.5042
53.5105
53.5168
53.5227
53.5286
53.5343
53.5403
53.5465
53.5527
53.5587
53.5647
53.5707
53.5766
53.5825
53.5884
53.5942
53.5999
53.6056
53.6113
53.6168
53.6224
53.6278
53.6332
53.6385
53.6438
53.6489
53.6541
53.6592
53.6642
53.6691
53.6741
53.679
53.6837
53.6885
53.6932
53.698
53.7026
53.707
53.7111
53.7151
53.7195
53.724
53.7283
53.7324
53.7363
53.7404
53.7444
53.7485
53.7524
53.7561
53.7599
53.7639
53.7676
53.771
53.7745
53.7784
53.7821
53.7851
53.7883
53.792
53.7955
53.7982
53.8008
53.8038
53.8065
53.809
53.8107
53.8108
53.8113
53.8143
53.8183
53.8233
53.8305
53.8375
53.8434
53.8481
53.8515
53.8538
53.8558
53.8578
53.8599
53.862
53.8641
53.8662
53.8682
53.8702
53.8722
53.8741
53.876
53.8778
53.8795
53.8813
53.883
53.8846
53.8862
53.8877
53.8892
53.8906
53.892
53.8933
53.8946
53.8958
53.897
53.8982
53.8993
53.9004
53.9014
53.9024
53.9033
53.9042
53.9051
53.9059
53.9067
53.9074
53.9082
53.9088
53.9095
53.9101
53.9107
53.9113
53.9118
53.9123
53.9128
53.9132
53.9137
53.9141
53.9145
53.9148
53.9152
53.9155
53.9158
53.9161
53.9163
53.9166
53.9168
53.917
53.9172
53.9174
53.9175
53.9177
53.9178
53.9179
53.9181
53.9182
53.9182
53.9183
53.9184
53.9184
53.9185
53.9185
53.9185
53.9186
53.9186
53.9186
53.9186
53.9186
53.9186
53.9186
53.9186
53.9185
53.9185
53.9185
53.9185
53.9184
53.9185
53.9184
53.9185
53.9183
53.9185
53.9183
53.9185
53.9182
53.9185
53.9182
53.9185
53.9182
53.9186
53.9183
53.9186
53.9184
53.9187
53.9186
53.9188
53.9188
53.3997
53.405
53.4097
53.4144
53.419
53.4233
53.4281
53.4336
53.439
53.4443
53.4502
53.4566
53.4629
53.4691
53.4746
53.4808
53.4878
53.4944
53.5008
53.507
53.5124
53.5181
53.5247
53.5313
53.5376
53.5438
53.5498
53.5558
53.5617
53.5675
53.5732
53.5788
53.5844
53.5899
53.5954
53.6008
53.6062
53.6115
53.6168
53.622
53.6272
53.6323
53.6374
53.6424
53.6474
53.6524
53.6573
53.662
53.6667
53.6714
53.676
53.6805
53.685
53.689
53.6924
53.6969
53.7013
53.7054
53.7092
53.7127
53.7167
53.7211
53.7264
53.732
53.7381
53.7451
53.7517
53.7578
53.7635
53.7689
53.7736
53.7777
53.7815
53.7851
53.7886
53.792
53.7954
53.7988
53.8023
53.8059
53.8094
53.813
53.8165
53.82
53.8234
53.8268
53.8303
53.8337
53.8371
53.8404
53.8436
53.8466
53.8494
53.852
53.8545
53.8569
53.8593
53.8616
53.8638
53.8659
53.868
53.8701
53.8721
53.874
53.8759
53.8777
53.8795
53.8813
53.8829
53.8846
53.8862
53.8877
53.8892
53.8906
53.892
53.8933
53.8946
53.8958
53.897
53.8982
53.8993
53.9004
53.9014
53.9024
53.9033
53.9042
53.9051
53.9059
53.9067
53.9074
53.9082
53.9088
53.9095
53.9101
53.9107
53.9113
53.9118
53.9123
53.9128
53.9132
53.9137
53.9141
53.9145
53.9148
53.9152
53.9155
53.9158
53.9161
53.9163
53.9166
53.9168
53.917
53.9172
53.9174
53.9175
53.9177
53.9178
53.9179
53.9181
53.9182
53.9182
53.9183
53.9184
53.9184
53.9185
53.9185
53.9185
53.9186
53.9186
53.9186
53.9186
53.9186
53.9186
53.9186
53.9186
53.9185
53.9185
53.9185
53.9185
53.9185
53.9185
53.9184
53.9185
53.9184
53.9184
53.9184
53.9184
53.9184
53.9184
53.9183
53.9185
53.9183
53.9185
53.9185
53.9184
53.9186
53.9187
53.9186
53.9187
53.9187
53.4082
53.4185
53.4223
53.4261
53.4326
53.4397
53.4452
53.4499
53.4569
53.465
53.4705
53.4745
53.4812
53.4874
53.4984
53.5044
53.5064
53.512
53.5189
53.525
53.5349
53.5436
53.5452
53.5488
53.5548
53.5609
53.5668
53.5726
53.5784
53.5841
53.5897
53.5953
53.6008
53.6063
53.6118
53.6172
53.6225
53.6279
53.6332
53.6384
53.6436
53.6488
53.6539
53.659
53.6639
53.6689
53.6737
53.6785
53.6833
53.688
53.6925
53.6974
53.7024
53.7068
53.7147
53.7165
53.719
53.7234
53.7279
53.7328
53.7366
53.7397
53.7436
53.7476
53.7514
53.7552
53.759
53.7627
53.7665
53.7701
53.7735
53.7769
53.7804
53.7841
53.7876
53.7911
53.7946
53.7984
53.802
53.8048
53.8071
53.81
53.8139
53.818
53.8217
53.8235
53.8203
53.818
53.8195
53.8232
53.8294
53.8391
53.8469
53.8525
53.8564
53.8589
53.8606
53.8624
53.8643
53.8663
53.8683
53.8703
53.8722
53.8741
53.876
53.8778
53.8796
53.8813
53.883
53.8846
53.8862
53.8877
53.8892
53.8906
53.892
53.8933
53.8946
53.8958
53.897
53.8982
53.8993
53.9004
53.9014
53.9024
53.9033
53.9042
53.9051
53.9059
53.9067
53.9074
53.9082
53.9088
53.9095
53.9101
53.9107
53.9113
53.9118
53.9123
53.9128
53.9132
53.9137
53.9141
53.9145
53.9148
53.9152
53.9155
53.9158
53.9161
53.9163
53.9166
53.9168
53.917
53.9172
53.9174
53.9175
53.9177
53.9178
53.9179
53.9181
53.9182
53.9182
53.9183
53.9184
53.9184
53.9185
53.9185
53.9185
53.9186
53.9186
53.9186
53.9186
53.9186
53.9186
53.9186
53.9185
53.9186
53.9185
53.9185
53.9184
53.9185
53.9184
53.9185
53.9183
53.9185
53.9183
53.9185
53.9182
53.9185
53.9182
53.9185
53.9182
53.9185
53.9183
53.9186
53.9184
53.9187
53.9185
53.9186
53.919
53.9185
53.4082
53.4212
53.4241
53.4274
53.4351
53.4454
53.4491
53.4525
53.4599
53.4715
53.4762
53.4783
53.4839
53.492
53.5055
53.5106
53.5104
53.5146
53.5211
53.5284
53.5409
53.5492
53.5493
53.551
53.5563
53.5622
53.568
53.5738
53.5795
53.5852
53.5908
53.5964
53.6019
53.6074
53.6129
53.6182
53.6236
53.6289
53.6342
53.6394
53.6446
53.6498
53.6549
53.6599
53.6649
53.6699
53.6747
53.6795
53.6843
53.6891
53.6936
53.6983
53.7032
53.7086
53.7183
53.7191
53.7206
53.7246
53.7291
53.7349
53.7384
53.7411
53.7448
53.7487
53.7525
53.7564
53.7601
53.7638
53.7674
53.7711
53.7748
53.7784
53.7819
53.7853
53.7888
53.7925
53.796
53.7994
53.8031
53.8071
53.8108
53.8137
53.8158
53.8185
53.8222
53.8261
53.8297
53.8304
53.8248
53.8232
53.8261
53.8317