/*--------------------------------*- C++ -*----------------------------------*\
| =========                 |                                                 |
| \\      /  F ield         | OpenFOAM: The Open Source CFD Toolbox           |
|  \\    /   O peration     | Version:  3.0.x                                 |
|   \\  /    A nd           | Web:      www.OpenFOAM.org                      |
|    \\/     M anipulation  |                                                 |
\*---------------------------------------------------------------------------*/
FoamFile
{
    version     2.0;
    format      ascii;
    class       volScalarField;
    location    "0.24";
    object      rho;
}
// * * * * * * * * * * * * * * * * * * * * * * * * * * * * * * * * * * * * * //

dimensions      [1 -3 0 0 0 0 0];

internalField   nonuniform List<scalar> 
6900
(
50.8419
50.8422
50.8424
50.8425
50.8426
50.8427
50.8427
50.8428
50.8429
50.8431
50.8433
50.8435
50.8438
50.844
50.8443
50.8446
50.8448
50.845
50.8452
50.8454
50.8456
50.8457
50.8458
50.846
50.8463
50.8466
50.847
50.8474
50.8478
50.8482
50.8486
50.8489
50.8493
50.8496
50.85
50.8503
50.8507
50.851
50.8514
50.8518
50.8521
50.8525
50.8529
50.8533
50.8536
50.854
50.8543
50.8546
50.855
50.8553
50.8556
50.8559
50.8562
50.8565
50.8568
50.8571
50.8573
50.8576
50.8578
50.8581
50.8583
50.8586
50.8588
50.859
50.8592
50.8595
50.8597
50.8599
50.8601
50.8603
50.8604
50.8606
50.8608
50.8609
50.8611
50.8612
50.8613
50.8614
50.8614
50.8615
50.8615
50.8615
50.8615
50.8615
50.8615
50.8615
50.8614
50.8614
50.8613
50.8612
50.8612
50.8611
50.861
50.8609
50.8609
50.8608
50.8607
50.8606
50.8606
50.8605
50.8605
50.8604
50.8604
50.8604
50.8603
50.8603
50.8602
50.8602
50.8601
50.8601
50.86
50.8599
50.8598
50.8596
50.8595
50.8593
50.859
50.8588
50.8585
50.8582
50.8579
50.8575
50.8571
50.8567
50.8563
50.8559
50.8554
50.8549
50.8544
50.8539
50.8534
50.8529
50.8524
50.8519
50.8514
50.851
50.8505
50.85
50.8496
50.8492
50.8488
50.8484
50.848
50.8476
50.8472
50.8469
50.8465
50.8461
50.8458
50.8454
50.845
50.8445
50.8441
50.8436
50.8431
50.8426
50.8421
50.8415
50.841
50.8404
50.8398
50.8391
50.8385
50.8378
50.8372
50.8365
50.8358
50.8351
50.8344
50.8337
50.833
50.8323
50.8316
50.8309
50.8303
50.8296
50.829
50.8284
50.8278
50.8273
50.8268
50.8262
50.8257
50.8252
50.8246
50.8241
50.8235
50.8229
50.8222
50.8215
50.8208
50.8201
50.8193
50.8185
50.8177
50.8169
50.8162
50.8153
50.815
50.8114
50.8421
50.8423
50.8425
50.8426
50.8427
50.8428
50.8429
50.8429
50.843
50.8432
50.8434
50.8436
50.8439
50.8441
50.8444
50.8447
50.8449
50.8451
50.8453
50.8455
50.8457
50.8458
50.8459
50.8461
50.8463
50.8467
50.8471
50.8475
50.8479
50.8483
50.8487
50.849
50.8494
50.8497
50.8501
50.8504
50.8508
50.8511
50.8515
50.8518
50.8522
50.8526
50.853
50.8533
50.8537
50.854
50.8544
50.8547
50.8551
50.8554
50.8557
50.856
50.8563
50.8566
50.8569
50.8571
50.8574
50.8577
50.8579
50.8582
50.8584
50.8586
50.8589
50.8591
50.8593
50.8595
50.8597
50.86
50.8601
50.8603
50.8605
50.8607
50.8608
50.861
50.8611
50.8612
50.8613
50.8614
50.8615
50.8616
50.8616
50.8616
50.8616
50.8616
50.8616
50.8616
50.8615
50.8615
50.8614
50.8613
50.8612
50.8612
50.8611
50.861
50.8609
50.8609
50.8608
50.8607
50.8607
50.8606
50.8606
50.8605
50.8605
50.8604
50.8604
50.8604
50.8603
50.8603
50.8602
50.8601
50.8601
50.86
50.8598
50.8597
50.8595
50.8593
50.8591
50.8589
50.8586
50.8583
50.858
50.8576
50.8572
50.8568
50.8564
50.8559
50.8555
50.855
50.8545
50.854
50.8535
50.853
50.8525
50.852
50.8515
50.851
50.8506
50.8501
50.8497
50.8493
50.8488
50.8484
50.8481
50.8477
50.8473
50.8469
50.8466
50.8462
50.8458
50.8454
50.845
50.8446
50.8442
50.8437
50.8432
50.8427
50.8422
50.8416
50.841
50.8404
50.8398
50.8392
50.8386
50.8379
50.8372
50.8365
50.8359
50.8352
50.8344
50.8337
50.833
50.8323
50.8316
50.831
50.8303
50.8297
50.8291
50.8285
50.8279
50.8274
50.8268
50.8263
50.8258
50.8252
50.8247
50.8242
50.8236
50.823
50.8223
50.8216
50.8209
50.8201
50.8194
50.8186
50.8178
50.817
50.8162
50.8154
50.815
50.8118
50.8421
50.8423
50.8425
50.8426
50.8427
50.8428
50.8428
50.8429
50.843
50.8432
50.8434
50.8436
50.8439
50.8441
50.8444
50.8447
50.8449
50.8451
50.8453
50.8455
50.8457
50.8458
50.8459
50.8461
50.8463
50.8467
50.8471
50.8475
50.8479
50.8483
50.8487
50.849
50.8494
50.8497
50.8501
50.8504
50.8508
50.8511
50.8515
50.8518
50.8522
50.8526
50.853
50.8533
50.8537
50.854
50.8544
50.8547
50.8551
50.8554
50.8557
50.856
50.8563
50.8566
50.8569
50.8571
50.8574
50.8577
50.8579
50.8582
50.8584
50.8586
50.8589
50.8591
50.8593
50.8595
50.8597
50.86
50.8601
50.8603
50.8605
50.8607
50.8608
50.861
50.8611
50.8612
50.8613
50.8614
50.8615
50.8616
50.8616
50.8616
50.8616
50.8616
50.8616
50.8616
50.8615
50.8615
50.8614
50.8613
50.8612
50.8612
50.8611
50.861
50.8609
50.8609
50.8608
50.8607
50.8607
50.8606
50.8606
50.8605
50.8605
50.8604
50.8604
50.8604
50.8603
50.8603
50.8602
50.8601
50.8601
50.86
50.8598
50.8597
50.8595
50.8593
50.8591
50.8589
50.8586
50.8583
50.858
50.8576
50.8572
50.8568
50.8564
50.8559
50.8555
50.855
50.8545
50.854
50.8535
50.853
50.8525
50.852
50.8515
50.851
50.8506
50.8501
50.8497
50.8493
50.8488
50.8484
50.8481
50.8477
50.8473
50.8469
50.8466
50.8462
50.8458
50.8454
50.845
50.8446
50.8442
50.8437
50.8432
50.8427
50.8422
50.8416
50.841
50.8404
50.8398
50.8392
50.8386
50.8379
50.8372
50.8365
50.8359
50.8352
50.8344
50.8337
50.833
50.8323
50.8316
50.831
50.8303
50.8297
50.8291
50.8285
50.8279
50.8274
50.8268
50.8263
50.8258
50.8252
50.8247
50.8242
50.8236
50.823
50.8223
50.8216
50.8209
50.8201
50.8194
50.8186
50.8178
50.817
50.8162
50.8154
50.8147
50.8138
50.8421
50.8423
50.8425
50.8426
50.8427
50.8428
50.8429
50.8429
50.843
50.8432
50.8434
50.8436
50.8439
50.8441
50.8444
50.8447
50.8449
50.8451
50.8453
50.8455
50.8457
50.8458
50.8459
50.8461
50.8463
50.8467
50.8471
50.8475
50.8479
50.8483
50.8487
50.849
50.8494
50.8497
50.8501
50.8504
50.8508
50.8511
50.8515
50.8518
50.8522
50.8526
50.853
50.8533
50.8537
50.854
50.8544
50.8547
50.8551
50.8554
50.8557
50.856
50.8563
50.8566
50.8569
50.8571
50.8574
50.8577
50.8579
50.8582
50.8584
50.8586
50.8589
50.8591
50.8593
50.8595
50.8597
50.86
50.8601
50.8603
50.8605
50.8607
50.8608
50.861
50.8611
50.8612
50.8613
50.8614
50.8615
50.8616
50.8616
50.8616
50.8616
50.8616
50.8616
50.8616
50.8615
50.8615
50.8614
50.8613
50.8612
50.8612
50.8611
50.861
50.8609
50.8609
50.8608
50.8607
50.8607
50.8606
50.8606
50.8605
50.8605
50.8604
50.8604
50.8604
50.8603
50.8603
50.8602
50.8601
50.8601
50.86
50.8598
50.8597
50.8595
50.8593
50.8591
50.8589
50.8586
50.8583
50.858
50.8576
50.8572
50.8568
50.8564
50.8559
50.8555
50.855
50.8545
50.854
50.8535
50.853
50.8525
50.852
50.8515
50.851
50.8506
50.8501
50.8497
50.8493
50.8488
50.8484
50.8481
50.8477
50.8473
50.8469
50.8466
50.8462
50.8458
50.8454
50.845
50.8446
50.8442
50.8437
50.8432
50.8427
50.8422
50.8416
50.841
50.8404
50.8398
50.8392
50.8386
50.8379
50.8372
50.8366
50.8359
50.8352
50.8344
50.8337
50.833
50.8323
50.8316
50.831
50.8303
50.8297
50.8291
50.8285
50.8279
50.8274
50.8268
50.8263
50.8258
50.8253
50.8247
50.8242
50.8236
50.823
50.8223
50.8216
50.8209
50.8202
50.8194
50.8186
50.8178
50.817
50.8162
50.8155
50.8138
50.819
50.8419
50.8422
50.8424
50.8425
50.8426
50.8427
50.8427
50.8428
50.8429
50.8431
50.8433
50.8435
50.8438
50.844
50.8443
50.8446
50.8448
50.845
50.8452
50.8454
50.8456
50.8457
50.8458
50.846
50.8463
50.8466
50.847
50.8474
50.8478
50.8482
50.8486
50.8489
50.8493
50.8496
50.85
50.8503
50.8507
50.851
50.8514
50.8518
50.8521
50.8525
50.8529
50.8533
50.8536
50.854
50.8543
50.8546
50.855
50.8553
50.8556
50.8559
50.8562
50.8565
50.8568
50.8571
50.8573
50.8576
50.8578
50.8581
50.8583
50.8586
50.8588
50.859
50.8592
50.8595
50.8597
50.8599
50.8601
50.8603
50.8604
50.8606
50.8608
50.8609
50.8611
50.8612
50.8613
50.8614
50.8614
50.8615
50.8615
50.8615
50.8615
50.8615
50.8615
50.8615
50.8614
50.8614
50.8613
50.8612
50.8612
50.8611
50.861
50.8609
50.8609
50.8608
50.8607
50.8606
50.8606
50.8605
50.8605
50.8604
50.8604
50.8604
50.8603
50.8603
50.8602
50.8602
50.8601
50.8601
50.86
50.8599
50.8598
50.8596
50.8595
50.8593
50.859
50.8588
50.8585
50.8582
50.8579
50.8575
50.8571
50.8567
50.8563
50.8559
50.8554
50.8549
50.8544
50.8539
50.8534
50.8529
50.8524
50.8519
50.8514
50.851
50.8505
50.85
50.8496
50.8492
50.8488
50.8484
50.848
50.8476
50.8472
50.8469
50.8465
50.8461
50.8458
50.8454
50.845
50.8445
50.8441
50.8436
50.8431
50.8426
50.8421
50.8415
50.841
50.8404
50.8398
50.8391
50.8385
50.8378
50.8372
50.8365
50.8358
50.8351
50.8344
50.8337
50.833
50.8323
50.8316
50.8309
50.8302
50.8296
50.829
50.8284
50.8278
50.8273
50.8268
50.8262
50.8257
50.8252
50.8246
50.8241
50.8235
50.8229
50.8222
50.8216
50.8208
50.8201
50.8193
50.8185
50.8177
50.8169
50.8161
50.8155
50.8132
50.8244
50.8289
50.8353
50.8358
50.834
50.8323
50.8311
50.8303
50.8285
50.8241
50.8174
50.8116
50.8071
50.8042
50.8079
50.8167
50.822
50.8156
50.7984
50.7741
50.7536
50.8254
50.8286
50.8282
50.8265
50.825
50.8238
50.8232
50.8214
50.8165
50.8097
50.8042
50.8
50.7974
50.8012
50.8113
50.8145
50.8053
50.7836
50.7591
50.7404
50.8141
50.8139
50.8127
50.8105
50.8076
50.804
50.7996
50.7946
50.789
50.783
50.7759
50.7675
50.7583
50.7479
50.7365
50.7257
50.7164
50.7085
50.7004
50.6906
50.7917
50.7887
50.7894
50.7906
50.7894
50.7856
50.7803
50.7732
50.7671
50.7597
50.7528
50.7459
50.7397
50.7335
50.7274
50.7218
50.7166
50.7121
50.7088
50.7065
50.7822
50.7702
50.7657
50.7648
50.7625
50.7575
50.751
50.7428
50.7353
50.7265
50.7185
50.7102
50.7025
50.6949
50.6879
50.681
50.675
50.6695
50.6657
50.6638
50.7021
50.7006
50.7059
50.6983
50.6948
50.6936
50.6929
50.6916
50.6906
50.6901
50.6895
50.6888
50.6881
50.6874
50.6868
50.6862
50.6856
50.6851
50.6844
50.6838
50.6832
50.6826
50.6821
50.6816
50.6811
50.6807
50.6802
50.6799
50.6796
50.6793
50.679
50.6785
50.678
50.6776
50.6772
50.6768
50.6766
50.6766
50.6768
50.6766
50.6759
50.675
50.6745
50.6742
50.6741
50.674
50.6739
50.6739
50.6739
50.6737
50.6725
50.6659
50.6489
50.6368
50.6332
50.6345
50.6453
50.6638
50.6748
50.6794
50.6803
50.6796
50.678
50.676
50.6746
50.6735
50.6726
50.6718
50.671
50.6703
50.6697
50.6691
50.6685
50.6679
50.6673
50.6668
50.6663
50.6658
50.6653
50.6648
50.6644
50.664
50.6636
50.6632
50.6628
50.6625
50.6622
50.6618
50.6615
50.6612
50.6609
50.6606
50.6603
50.66
50.6597
50.6594
50.6591
50.6588
50.6584
50.6581
50.6577
50.6573
50.6569
50.6565
50.6561
50.6556
50.6552
50.6547
50.6542
50.6537
50.6532
50.6527
50.6522
50.6517
50.6512
50.6507
50.6501
50.6497
50.6492
50.6487
50.6482
50.6478
50.6474
50.647
50.6467
50.6464
50.6461
50.6458
50.6456
50.6454
50.6453
50.6452
50.6451
50.6451
50.6451
50.6452
50.6452
50.6453
50.6455
50.6456
50.6458
50.6459
50.6461
50.6463
50.6464
50.6466
50.6467
50.6469
50.647
50.6471
50.6471
50.6472
50.6472
50.6471
50.6471
50.647
50.6469
50.6468
50.6466
50.6465
50.6463
50.646
50.6458
50.6455
50.6453
50.645
50.6447
50.6444
50.6441
50.6438
50.6436
50.6433
50.643
50.6428
50.6426
50.6424
50.6423
50.6422
50.6421
50.6421
50.6421
50.6422
50.6423
50.6424
50.6426
50.6428
50.643
50.6433
50.6436
50.6438
50.6441
50.6444
50.6447
50.645
50.6452
50.6454
50.6455
50.6457
50.6446
50.653
50.6989
50.7008
50.7055
50.6978
50.6939
50.6926
50.6917
50.6906
50.6895
50.689
50.6883
50.6876
50.6869
50.6863
50.6856
50.685
50.6844
50.6838
50.6832
50.6826
50.682
50.6815
50.681
50.6805
50.68
50.6795
50.6791
50.6788
50.6784
50.678
50.6776
50.6771
50.6765
50.6761
50.6757
50.6754
50.6752
50.675
50.6748
50.6745
50.6737
50.673
50.6725
50.6723
50.6722
50.6722
50.6722
50.6722
50.6722
50.6718
50.6692
50.6601
50.6507
50.6465
50.6462
50.6489
50.6591
50.6689
50.6744
50.6766
50.6771
50.6766
50.6759
50.6749
50.674
50.6732
50.6724
50.6717
50.671
50.6704
50.6697
50.6691
50.6685
50.668
50.6674
50.6669
50.6664
50.6659
50.6654
50.6649
50.6645
50.6641
50.6637
50.6633
50.6629
50.6626
50.6622
50.6619
50.6616
50.6613
50.661
50.6607
50.6604
50.6601
50.6598
50.6595
50.6592
50.6589
50.6585
50.6582
50.6578
50.6574
50.657
50.6566
50.6562
50.6557
50.6552
50.6548
50.6543
50.6538
50.6533
50.6528
50.6523
50.6517
50.6512
50.6507
50.6502
50.6497
50.6492
50.6488
50.6483
50.6479
50.6475
50.6471
50.6467
50.6464
50.6461
50.6459
50.6457
50.6455
50.6454
50.6453
50.6452
50.6452
50.6452
50.6452
50.6453
50.6454
50.6455
50.6457
50.6458
50.646
50.6462
50.6463
50.6465
50.6467
50.6468
50.6469
50.6471
50.6471
50.6472
50.6472
50.6472
50.6472
50.6472
50.6471
50.647
50.6469
50.6467
50.6465
50.6463
50.6461
50.6459
50.6456
50.6453
50.6451
50.6448
50.6445
50.6442
50.6439
50.6436
50.6434
50.6431
50.6429
50.6427
50.6425
50.6424
50.6423
50.6422
50.6422
50.6422
50.6422
50.6423
50.6425
50.6426
50.6428
50.6431
50.6433
50.6436
50.6439
50.6442
50.6445
50.6448
50.645
50.6452
50.6454
50.6455
50.6457
50.645
50.6485
50.6612
50.6697
50.6768
50.6778
50.6765
50.6754
50.6747
50.6741
50.6735
50.6729
50.6722
50.6715
50.6709
50.6703
50.6697
50.6691
50.6685
50.6679
50.6674
50.6668
50.6662
50.6656
50.665
50.6643
50.6637
50.6631
50.6625
50.662
50.6615
50.6609
50.6603
50.6597
50.6593
50.6589
50.6585
50.6582
50.6583
50.6595
50.6629
50.6665
50.6695
50.6716
50.6731
50.6739
50.6744
50.6746
50.6747
50.6747
50.6747
50.6746
50.6746
50.6746
50.6749
50.6754
50.6759
50.6762
50.6763
50.6763
50.676
50.6756
50.6752
50.6747
50.6742
50.6737
50.6731
50.6725
50.672
50.6714
50.6708
50.6702
50.6696
50.6691
50.6685
50.6679
50.6674
50.6669
50.6663
50.6658
50.6654
50.6649
50.6645
50.6641
50.6637
50.6633
50.6629
50.6626
50.6622
50.6619
50.6616
50.6613
50.661
50.6607
50.6604
50.6601
50.6598
50.6595
50.6592
50.6589
50.6585
50.6582
50.6578
50.6574
50.657
50.6566
50.6562
50.6557
50.6552
50.6548
50.6543
50.6538
50.6533
50.6528
50.6523
50.6517
50.6512
50.6507
50.6502
50.6497
50.6492
50.6488
50.6483
50.6479
50.6475
50.6471
50.6467
50.6464
50.6461
50.6459
50.6457
50.6455
50.6454
50.6453
50.6452
50.6452
50.6452
50.6452
50.6453
50.6454
50.6455
50.6457
50.6458
50.646
50.6462
50.6463
50.6465
50.6467
50.6468
50.6469
50.6471
50.6471
50.6472
50.6472
50.6472
50.6472
50.6472
50.6471
50.647
50.6469
50.6467
50.6465
50.6463
50.6461
50.6459
50.6456
50.6453
50.6451
50.6448
50.6445
50.6442
50.6439
50.6436
50.6434
50.6431
50.6429
50.6427
50.6425
50.6424
50.6423
50.6422
50.6422
50.6422
50.6422
50.6423
50.6425
50.6426
50.6428
50.6431
50.6433
50.6436
50.6439
50.6442
50.6445
50.6448
50.645
50.6452
50.6454
50.6456
50.6457
50.6458
50.6458
50.7012
50.699
50.6966
50.6948
50.6932
50.692
50.6911
50.6905
50.6901
50.6895
50.6889
50.6882
50.6876
50.687
50.6863
50.6857
50.6851
50.6844
50.6838
50.6832
50.6826
50.6821
50.6815
50.681
50.6806
50.6801
50.6797
50.6794
50.679
50.6787
50.6783
50.678
50.6777
50.6774
50.6772
50.677
50.6768
50.6765
50.6761
50.6756
50.675
50.6745
50.6742
50.6739
50.6732
50.6724
50.672
50.6717
50.671
50.6691
50.6658
50.6637
50.663
50.663
50.6644
50.6688
50.673
50.6755
50.6767
50.6769
50.6765
50.676
50.6753
50.6745
50.6737
50.673
50.6723
50.6716
50.6709
50.6703
50.6697
50.6691
50.6685
50.668
50.6674
50.6669
50.6664
50.6658
50.6654
50.6649
50.6645
50.6641
50.6637
50.6633
50.6629
50.6626
50.6622
50.6619
50.6616
50.6613
50.661
50.6607
50.6604
50.6601
50.6598
50.6595
50.6592
50.6589
50.6585
50.6582
50.6578
50.6574
50.657
50.6566
50.6562
50.6557
50.6552
50.6548
50.6543
50.6538
50.6533
50.6528
50.6523
50.6517
50.6512
50.6507
50.6502
50.6497
50.6492
50.6488
50.6483
50.6479
50.6475
50.6471
50.6467
50.6464
50.6461
50.6459
50.6457
50.6455
50.6454
50.6453
50.6452
50.6452
50.6452
50.6452
50.6453
50.6454
50.6455
50.6457
50.6458
50.646
50.6462
50.6463
50.6465
50.6467
50.6468
50.6469
50.6471
50.6471
50.6472
50.6472
50.6472
50.6472
50.6472
50.6471
50.647
50.6469
50.6467
50.6465
50.6463
50.6461
50.6459
50.6456
50.6453
50.6451
50.6448
50.6445
50.6442
50.6439
50.6436
50.6434
50.6431
50.6429
50.6427
50.6425
50.6424
50.6423
50.6422
50.6422
50.6422
50.6422
50.6423
50.6425
50.6426
50.6428
50.6431
50.6433
50.6436
50.6439
50.6442
50.6445
50.6448
50.645
50.6452
50.6454
50.6456
50.6458
50.6462
50.6451
50.686
50.69
50.6883
50.6868
50.6854
50.6842
50.6834
50.683
50.6824
50.6818
50.6813
50.6807
50.6801
50.6794
50.6787
50.6781
50.6775
50.6768
50.6762
50.6756
50.675
50.6744
50.6739
50.6735
50.673
50.6726
50.6723
50.6719
50.6716
50.6712
50.6708
50.6705
50.6702
50.67
50.6697
50.6694
50.6691
50.6687
50.6682
50.6678
50.6674
50.667
50.6664
50.666
50.6659
50.6658
50.6658
50.6653
50.6618
50.6504
50.6401
50.6355
50.6348
50.6365
50.6446
50.6551
50.6627
50.6678
50.6709
50.6727
50.6735
50.6738
50.6737
50.6734
50.673
50.6725
50.6719
50.6713
50.6708
50.6702
50.6696
50.669
50.6684
50.6679
50.6673
50.6668
50.6663
50.6658
50.6653
50.6648
50.6644
50.664
50.6636
50.6632
50.6628
50.6625
50.6622
50.6618
50.6615
50.6612
50.6609
50.6606
50.6603
50.66
50.6597
50.6594
50.6591
50.6588
50.6584
50.6581
50.6577
50.6573
50.6569
50.6565
50.6561
50.6556
50.6552
50.6547
50.6542
50.6537
50.6532
50.6527
50.6522
50.6517
50.6512
50.6507
50.6501
50.6497
50.6492
50.6487
50.6482
50.6478
50.6474
50.647
50.6467
50.6464
50.6461
50.6458
50.6456
50.6454
50.6453
50.6452
50.6451
50.6451
50.6451
50.6452
50.6452
50.6453
50.6455
50.6456
50.6458
50.6459
50.6461
50.6463
50.6464
50.6466
50.6467
50.6469
50.647
50.6471
50.6471
50.6472
50.6472
50.6471
50.6471
50.647
50.6469
50.6468
50.6466
50.6465
50.6463
50.646
50.6458
50.6455
50.6453
50.645
50.6447
50.6444
50.6441
50.6438
50.6436
50.6433
50.643
50.6428
50.6426
50.6424
50.6423
50.6422
50.6421
50.6421
50.6421
50.6422
50.6423
50.6424
50.6426
50.6428
50.643
50.6433
50.6436
50.6438
50.6441
50.6444
50.6447
50.6449
50.6452
50.6454
50.6455
50.6457
50.6462
50.6448
50.6175
50.6051
50.6006
50.5996
50.5974
50.5925
50.5859
50.5791
50.5712
50.5635
50.5557
50.5477
50.5402
50.5325
50.5256
50.5188
50.5133
50.5084
50.505
50.5033
50.626
50.6229
50.6234
50.6245
50.6234
50.6197
50.6139
50.6087
50.6017
50.5957
50.5891
50.5827
50.5758
50.5699
50.5639
50.5586
50.5537
50.5499
50.5472
50.5451
50.6465
50.6465
50.6455
50.6435
50.6408
50.6375
50.6336
50.6289
50.6236
50.6171
50.6096
50.601
50.5917
50.5829
50.5753
50.5681
50.5597
50.5496
50.5391
50.5274
50.6566
50.66
50.66
50.6586
50.6572
50.656
50.6542
50.6504
50.6464
50.6432
50.642
50.6459
50.6524
50.6511
50.6393
50.6204
50.6074
50.5984
50.5899
50.5841
50.6599
50.6665
50.6674
50.6657
50.6643
50.6631
50.6611
50.6576
50.6534
50.65
50.6486
50.6522
50.6581
50.6586
50.6494
50.633
50.6184
50.6086
50.5988
50.5922
50.5241
50.5268
50.5254
50.5245
50.5234
50.5226
50.5223
50.5222
50.5222
50.522
50.5218
50.5217
50.5215
50.5214
50.5212
50.521
50.5209
50.5207
50.5206
50.5205
50.5204
50.5202
50.5201
50.52
50.5199
50.5199
50.5198
50.5197
50.5195
50.5194
50.5193
50.5192
50.5192
50.5191
50.5189
50.5188
50.5185
50.5182
50.5179
50.5175
50.5173
50.517
50.5167
50.5162
50.5159
50.5158
50.5158
50.5158
50.5153
50.5118
50.5005
50.4902
50.4855
50.4847
50.4863
50.494
50.5044
50.5119
50.5169
50.52
50.5218
50.5227
50.523
50.5229
50.5226
50.5222
50.5218
50.5213
50.5208
50.5204
50.5199
50.5194
50.519
50.5186
50.5182
50.5179
50.5176
50.5173
50.517
50.5167
50.5165
50.5163
50.5161
50.516
50.5158
50.5157
50.5156
50.5154
50.5153
50.5152
50.515
50.5148
50.5146
50.5144
50.5141
50.5138
50.5134
50.5131
50.5115
50.5188
50.5389
50.5355
50.5336
50.5323
50.5311
50.5302
50.5299
50.5298
50.5297
50.5295
50.5293
50.5291
50.529
50.5288
50.5286
50.5284
50.5283
50.5281
50.528
50.5279
50.5277
50.5276
50.5275
50.5274
50.5273
50.5272
50.5271
50.527
50.5269
50.5267
50.5266
50.5265
50.5264
50.5263
50.5263
50.5262
50.526
50.5258
50.5255
50.5251
50.5247
50.5244
50.5241
50.5239
50.5236
50.5229
50.5221
50.5217
50.5214
50.5208
50.519
50.5158
50.5136
50.5128
50.5128
50.5139
50.518
50.5221
50.5246
50.5258
50.526
50.5257
50.5251
50.5245
50.5237
50.523
50.5223
50.5217
50.5211
50.5206
50.5201
50.5196
50.5191
50.5187
50.5183
50.518
50.5176
50.5173
50.5171
50.5168
50.5166
50.5164
50.5162
50.516
50.5159
50.5158
50.5156
50.5155
50.5154
50.5152
50.5151
50.5149
50.5147
50.5145
50.5142
50.5139
50.5135
50.5131
50.5119
50.5146
50.4944
50.5059
50.5146
50.5161
50.5151
50.5143
50.5139
50.5139
50.5137
50.5135
50.5133
50.5131
50.5129
50.5127
50.5126
50.5124
50.5123
50.5121
50.512
50.5118
50.5117
50.5115
50.5113
50.5111
50.5108
50.5106
50.5103
50.5101
50.5099
50.5097
50.5095
50.5092
50.5088
50.5084
50.5081
50.5079
50.5077
50.5079
50.5091
50.5125
50.516
50.5189
50.5209
50.5223
50.5232
50.5237
50.5239
50.524
50.5241
50.5241
50.524
50.524
50.524
50.5243
50.5248
50.5252
50.5254
50.5255
50.5254
50.5252
50.5248
50.5243
50.5239
50.5234
50.5229
50.5224
50.5219
50.5214
50.5209
50.5204
50.52
50.5195
50.5191
50.5187
50.5183
50.518
50.5176
50.5173
50.517
50.5168
50.5166
50.5164
50.5162
50.516
50.5159
50.5158
50.5156
50.5155
50.5154
50.5152
50.5151
50.5149
50.5147
50.5145
50.5142
50.5139
50.5136
50.5131
50.5128
50.5123
50.5723
50.5501
50.5372
50.5336
50.533
50.5323
50.5306
50.5296
50.5295
50.5293
50.5288
50.5285
50.5283
50.5282
50.528
50.5278
50.5276
50.5275
50.5273
50.5272
50.5271
50.527
50.5269
50.5267
50.5265
50.5264
50.5264
50.5263
50.5262
50.526
50.5258
50.5255
50.5253
50.525
50.5248
50.5247
50.5246
50.5245
50.5245
50.5241
50.5234
50.5228
50.5226
50.5225
50.5224
50.5223
50.5221
50.522
50.522
50.5218
50.5212
50.5186
50.5099
50.5008
50.4965
50.496
50.4982
50.5075
50.5175
50.5232
50.5257
50.5262
50.5259
50.5252
50.5242
50.5233
50.5225
50.5218
50.5212
50.5206
50.5201
50.5196
50.5192
50.5187
50.5183
50.518
50.5176
50.5173
50.5171
50.5168
50.5166
50.5164
50.5162
50.516
50.5159
50.5158
50.5156
50.5155
50.5154
50.5152
50.5151
50.5149
50.5147
50.5145
50.5142
50.5139
50.5136
50.5132
50.5132
50.5118
50.5738
50.5508
50.5376
50.5343
50.5338
50.5333
50.5316
50.5305
50.5305
50.5303
50.5299
50.5296
50.5294
50.5293
50.5291
50.529
50.5288
50.5286
50.5285
50.5283
50.5282
50.5281
50.528
50.5278
50.5277
50.5275
50.5274
50.5274
50.5274
50.5273
50.5271
50.5269
50.5267
50.5264
50.5262
50.5261
50.5261
50.5262
50.5265
50.5263
50.5255
50.5247
50.5243
50.5242
50.524
50.524
50.5239
50.5238
50.5237
50.5236
50.5234
50.5223
50.5168
50.5012
50.4886
50.4842
50.4848
50.4929
50.5109
50.5226
50.5279
50.5291
50.5287
50.5273
50.5254
50.524
50.5229
50.522
50.5213
50.5207
50.5201
50.5196
50.5191
50.5187
50.5183
50.5179
50.5176
50.5173
50.517
50.5167
50.5165
50.5163
50.5161
50.516
50.5158
50.5157
50.5156
50.5154
50.5153
50.5152
50.515
50.5148
50.5146
50.5144
50.5141
50.5138
50.5135
50.5132
50.5131
50.5115
50.4841
50.4718
50.4672
50.4661
50.4637
50.4588
50.4522
50.4453
50.4375
50.4299
50.4221
50.4141
50.4066
50.3989
50.392
50.3852
50.3797
50.3747
50.3713
50.3695
50.4925
50.4894
50.4897
50.4907
50.4894
50.4856
50.4798
50.4746
50.4676
50.4616
50.455
50.4485
50.4417
50.4358
50.4298
50.4244
50.4194
50.4156
50.4127
50.4106
50.5127
50.5125
50.5114
50.5093
50.5066
50.5032
50.4993
50.4945
50.4892
50.4827
50.4752
50.4666
50.4574
50.4487
50.4412
50.434
50.4255
50.4155
50.4051
50.3934
50.5227
50.5259
50.5257
50.5242
50.5227
50.5214
50.5194
50.5156
50.5116
50.5083
50.5069
50.5113
50.5172
50.5154
50.5032
50.4848
50.4722
50.4634
50.4551
50.4497
50.5259
50.5323
50.5329
50.5312
50.5297
50.5283
50.5263
50.5226
50.5185
50.515
50.5135
50.5173
50.5229
50.5228
50.5134
50.4971
50.483
50.4733
50.4637
50.4577
50.3895
50.3916
50.3901
50.389
50.3874
50.3861
50.3855
50.385
50.3845
50.3839
50.3833
50.3828
50.3823
50.3819
50.3814
50.381
50.3806
50.3802
50.3799
50.3796
50.3792
50.3789
50.3786
50.3783
50.3781
50.3778
50.3775
50.3772
50.377
50.3767
50.3765
50.3762
50.376
50.3757
50.3755
50.3751
50.3747
50.3742
50.3737
50.3733
50.3728
50.3722
50.3716
50.3712
50.3711
50.3711
50.371
50.3693
50.3614
50.3493
50.3426
50.3407
50.3413
50.3463
50.3572
50.3659
50.372
50.376
50.3784
50.3798
50.3806
50.3809
50.381
50.381
50.3809
50.3808
50.3807
50.3807
50.3806
50.3806
50.3806
50.3806
50.3806
50.3807
50.3807
50.3808
50.3809
50.3811
50.3812
50.3813
50.3815
50.3816
50.3818
50.3819
50.3821
50.3822
50.3823
50.3824
50.3825
50.3826
50.3826
50.3827
50.3827
50.3827
50.3826
50.3826
50.3825
50.3824
50.3823
50.3822
50.3821
50.3819
50.3818
50.3816
50.3814
50.3812
50.381
50.3809
50.3807
50.3805
50.3803
50.3801
50.38
50.3798
50.3797
50.3796
50.3795
50.3794
50.3794
50.3793
50.3793
50.3793
50.3794
50.3794
50.3795
50.3796
50.3798
50.3799
50.3801
50.3803
50.3805
50.3807
50.3809
50.3811
50.3813
50.3815
50.3817
50.3819
50.3821
50.3822
50.3823
50.3824
50.3825
50.3825
50.3825
50.3825
50.3825
50.3824
50.3823
50.3822
50.3821
50.3819
50.3818
50.3816
50.3814
50.3812
50.381
50.3808
50.3806
50.3803
50.3801
50.3799
50.3797
50.3795
50.3794
50.3792
50.3791
50.379
50.3789
50.3788
50.3788
50.3788
50.3788
50.3789
50.379
50.3791
50.3793
50.3795
50.3797
50.3799
50.3802
50.3805
50.3807
50.381
50.3813
50.3816
50.3819
50.3821
50.3823
50.3825
50.3827
50.3828
50.3829
50.3829
50.383
50.383
50.383
50.383
50.3834
50.382
50.4037
50.4
50.3981
50.3965
50.3949
50.3936
50.3929
50.3924
50.3919
50.3913
50.3907
50.3902
50.3897
50.3893
50.3888
50.3884
50.388
50.3877
50.3873
50.387
50.3866
50.3863
50.386
50.3857
50.3855
50.3852
50.3849
50.3846
50.3844
50.3841
50.3838
50.3835
50.3833
50.383
50.3828
50.3825
50.3822
50.3818
50.3813
50.3806
50.3801
50.3797
50.3794
50.3789
50.378
50.3773
50.3771
50.3766
50.3754
50.3724
50.3699
50.3689
50.3689
50.3696
50.373
50.3776
50.3808
50.3825
50.3831
50.3832
50.383
50.3827
50.3822
50.3818
50.3815
50.3812
50.381
50.3809
50.3808
50.3807
50.3807
50.3807
50.3807
50.3808
50.3808
50.3809
50.381
50.3811
50.3813
50.3814
50.3816
50.3817
50.3819
50.382
50.3821
50.3823
50.3824
50.3825
50.3826
50.3826
50.3827
50.3827
50.3827
50.3827
50.3827
50.3827
50.3826
50.3825
50.3824
50.3823
50.3821
50.382
50.3818
50.3817
50.3815
50.3813
50.3811
50.3809
50.3807
50.3805
50.3804
50.3802
50.38
50.3799
50.3798
50.3796
50.3795
50.3795
50.3794
50.3794
50.3794
50.3794
50.3794
50.3795
50.3796
50.3797
50.3799
50.38
50.3802
50.3804
50.3806
50.3808
50.381
50.3812
50.3814
50.3816
50.3818
50.382
50.3821
50.3823
50.3824
50.3825
50.3826
50.3826
50.3826
50.3826
50.3825
50.3825
50.3824
50.3823
50.3821
50.382
50.3818
50.3816
50.3814
50.3812
50.381
50.3808
50.3806
50.3804
50.3802
50.38
50.3798
50.3796
50.3794
50.3793
50.3792
50.379
50.3789
50.3789
50.3789
50.3789
50.3789
50.3789
50.379
50.3792
50.3793
50.3795
50.3797
50.38
50.3803
50.3805
50.3808
50.3811
50.3814
50.3817
50.3819
50.3822
50.3824
50.3826
50.3827
50.3829
50.3829
50.383
50.383
50.3831
50.3831
50.3831
50.3834
50.3823
50.3601
50.3716
50.3796
50.3806
50.379
50.3776
50.3768
50.3764
50.3759
50.3753
50.3748
50.3743
50.3738
50.3733
50.3729
50.3725
50.3721
50.3718
50.3714
50.371
50.3707
50.3704
50.3701
50.3697
50.3693
50.3689
50.3685
50.3681
50.3676
50.367
50.3665
50.3658
50.3653
50.3649
50.3646
50.3643
50.3645
50.366
50.3695
50.3727
50.3752
50.377
50.3782
50.3788
50.3792
50.3794
50.3795
50.3795
50.3795
50.3796
50.3797
50.38
50.3805
50.3811
50.3816
50.382
50.3821
50.3821
50.382
50.3819
50.3817
50.3815
50.3813
50.3812
50.381
50.3809
50.3808
50.3807
50.3807
50.3806
50.3806
50.3806
50.3807
50.3807
50.3808
50.3809
50.381
50.3811
50.3813
50.3814
50.3816
50.3817
50.3819
50.382
50.3821
50.3823
50.3824
50.3825
50.3826
50.3826
50.3827
50.3827
50.3827
50.3827
50.3827
50.3827
50.3826
50.3825
50.3824
50.3823
50.3821
50.382
50.3818
50.3817
50.3815
50.3813
50.3811
50.3809
50.3807
50.3805
50.3804
50.3802
50.38
50.3799
50.3798
50.3796
50.3795
50.3795
50.3794
50.3794
50.3794
50.3794
50.3794
50.3795
50.3796
50.3797
50.3799
50.38
50.3802
50.3804
50.3806
50.3808
50.381
50.3812
50.3814
50.3816
50.3818
50.382
50.3821
50.3823
50.3824
50.3825
50.3826
50.3826
50.3826
50.3826
50.3825
50.3825
50.3824
50.3823
50.3821
50.382
50.3818
50.3816
50.3814
50.3812
50.381
50.3808
50.3806
50.3804
50.3802
50.38
50.3798
50.3796
50.3794
50.3793
50.3792
50.379
50.3789
50.3789
50.3789
50.3789
50.3789
50.3789
50.379
50.3792
50.3793
50.3795
50.3797
50.38
50.3803
50.3805
50.3808
50.3811
50.3814
50.3817
50.3819
50.3822
50.3824
50.3826
50.3827
50.3829
50.3829
50.383
50.383
50.3831
50.383
50.383
50.383
50.3829
50.4364
50.4135
50.4012
50.3978
50.3965
50.3953
50.3933
50.3921
50.3916
50.3909
50.3902
50.3896
50.3891
50.3887
50.3883
50.3878
50.3874
50.3871
50.3867
50.3864
50.3861
50.3858
50.3854
50.3851
50.3848
50.3846
50.3843
50.384
50.3837
50.3834
50.383
50.3826
50.3822
50.3818
50.3815
50.3812
50.3809
50.3805
50.3802
50.3794
50.3785
50.378
50.3777
50.3775
50.3774
50.3774
50.3774
50.3774
50.3772
50.3757
50.3692
50.3592
50.3537
50.3525
50.3538
50.3612
50.3722
50.3791
50.3824
50.3836
50.3837
50.3834
50.3828
50.3822
50.3817
50.3814
50.3811
50.381
50.3808
50.3807
50.3807
50.3807
50.3807
50.3808
50.3808
50.3809
50.381
50.3811
50.3813
50.3814
50.3816
50.3817
50.3819
50.382
50.3821
50.3823
50.3824
50.3825
50.3826
50.3826
50.3827
50.3827
50.3827
50.3827
50.3827
50.3827
50.3826
50.3825
50.3824
50.3823
50.3821
50.382
50.3818
50.3817
50.3815
50.3813
50.3811
50.3809
50.3807
50.3805
50.3804
50.3802
50.38
50.3799
50.3798
50.3796
50.3795
50.3795
50.3794
50.3794
50.3794
50.3794
50.3794
50.3795
50.3796
50.3797
50.3799
50.38
50.3802
50.3804
50.3806
50.3808
50.381
50.3812
50.3814
50.3816
50.3818
50.382
50.3821
50.3823
50.3824
50.3825
50.3826
50.3826
50.3826
50.3826
50.3825
50.3825
50.3824
50.3823
50.3821
50.382
50.3818
50.3816
50.3814
50.3812
50.381
50.3808
50.3806
50.3804
50.3802
50.38
50.3798
50.3796
50.3794
50.3793
50.3792
50.379
50.3789
50.3789
50.3789
50.3789
50.3789
50.379
50.379
50.3792
50.3793
50.3795
50.3797
50.38
50.3803
50.3805
50.3808
50.3811
50.3814
50.3817
50.3819
50.3822
50.3824
50.3826
50.3827
50.3829
50.3829
50.383
50.383
50.3831
50.383
50.383
50.3823
50.3856
50.4379
50.4142
50.4016
50.3985
50.3973
50.3964
50.3943
50.393
50.3926
50.392
50.3913
50.3907
50.3902
50.3898
50.3894
50.3889
50.3885
50.3881
50.3878
50.3874
50.3871
50.3868
50.3865
50.3862
50.3859
50.3856
50.3853
50.3851
50.3848
50.3845
50.3842
50.3838
50.3834
50.3831
50.3827
50.3824
50.3823
50.3823
50.3824
50.3818
50.3807
50.3799
50.3795
50.3793
50.3792
50.3791
50.379
50.379
50.3789
50.3784
50.3749
50.3618
50.3472
50.3411
50.341
50.3465
50.3637
50.3775
50.3843
50.3865
50.3865
50.3857
50.3841
50.3829
50.3821
50.3816
50.3812
50.381
50.3808
50.3807
50.3807
50.3806
50.3807
50.3807
50.3808
50.3809
50.381
50.3811
50.3812
50.3813
50.3815
50.3816
50.3818
50.3819
50.3821
50.3822
50.3823
50.3824
50.3825
50.3826
50.3826
50.3827
50.3827