/*--------------------------------*- C++ -*----------------------------------*\
| =========                 |                                                 |
| \\      /  F ield         | OpenFOAM: The Open Source CFD Toolbox           |
|  \\    /   O peration     | Version:  3.0.x                                 |
|   \\  /    A nd           | Web:      www.OpenFOAM.org                      |
|    \\/     M anipulation  |                                                 |
\*---------------------------------------------------------------------------*/
FoamFile
{
    version     2.0;
    format      ascii;
    class       volVectorField;
    location    "0.24";
    object      U;
}
// * * * * * * * * * * * * * * * * * * * * * * * * * * * * * * * * * * * * * //

dimensions      [0 1 -1 0 0 0 0];

internalField   nonuniform List<vector> 
6900
(
(42.6911 0.000101305 0)
(42.6719 9.26715e-05 0)
(42.6502 9.02465e-05 0)
(42.6298 9.10886e-05 0)
(42.6104 9.17898e-05 0)
(42.5912 9.22299e-05 0)
(42.5721 9.25596e-05 0)
(42.5533 9.28438e-05 0)
(42.5349 9.30684e-05 0)
(42.5167 9.32716e-05 0)
(42.499 9.34302e-05 0)
(42.4816 9.35741e-05 0)
(42.4645 9.37007e-05 0)
(42.4479 9.38122e-05 0)
(42.4316 9.39106e-05 0)
(42.4158 9.39966e-05 0)
(42.4002 9.40717e-05 0)
(42.3851 9.41361e-05 0)
(42.3703 9.41914e-05 0)
(42.3558 9.4236e-05 0)
(42.3416 9.42662e-05 0)
(42.3277 9.42634e-05 0)
(42.314 9.42713e-05 0)
(42.3006 9.42181e-05 0)
(42.2874 9.40845e-05 0)
(42.2744 9.38773e-05 0)
(42.2616 9.35233e-05 0)
(42.249 9.2987e-05 0)
(42.2366 9.22043e-05 0)
(42.2243 9.11071e-05 0)
(42.2122 8.96249e-05 0)
(42.2003 8.76858e-05 0)
(42.1885 8.52476e-05 0)
(42.177 8.22495e-05 0)
(42.1657 7.86774e-05 0)
(42.1546 7.45449e-05 0)
(42.1438 6.98893e-05 0)
(42.1332 6.47804e-05 0)
(42.123 5.93156e-05 0)
(42.1131 5.36133e-05 0)
(42.1035 4.78054e-05 0)
(42.0943 4.20274e-05 0)
(42.0854 3.64096e-05 0)
(42.077 3.10684e-05 0)
(42.0689 2.61002e-05 0)
(42.0612 2.15765e-05 0)
(42.0539 1.75426e-05 0)
(42.047 1.40181e-05 0)
(42.0404 1.09996e-05 0)
(42.0343 8.46445e-06 0)
(42.0284 6.37555e-06 0)
(42.0229 4.68636e-06 0)
(42.0178 3.34542e-06 0)
(42.0129 2.3003e-06 0)
(42.0083 1.5003e-06 0)
(42.004 8.97871e-07 0)
(41.9999 4.51207e-07 0)
(41.9961 1.21034e-07 0)
(41.9925 -1.11971e-07 0)
(41.9891 -2.76897e-07 0)
(41.9858 -3.92114e-07 0)
(41.9827 -4.71158e-07 0)
(41.9797 -5.24669e-07 0)
(41.9769 -5.60542e-07 0)
(41.9742 -5.84461e-07 0)
(41.9716 -6.00427e-07 0)
(41.9691 -6.11187e-07 0)
(41.9667 -6.18604e-07 0)
(41.9644 -6.23916e-07 0)
(41.9623 -6.27922e-07 0)
(41.9602 -6.31133e-07 0)
(41.9582 -6.33873e-07 0)
(41.9564 -6.36341e-07 0)
(41.9546 -6.38666e-07 0)
(41.953 -6.40914e-07 0)
(41.9516 -6.4312e-07 0)
(41.9503 -6.45323e-07 0)
(41.9491 -6.47527e-07 0)
(41.9481 -6.49754e-07 0)
(41.9472 -6.5198e-07 0)
(41.9465 -6.54238e-07 0)
(41.9459 -6.56511e-07 0)
(41.9455 -6.58657e-07 0)
(41.9452 -6.60315e-07 0)
(41.945 -6.62619e-07 0)
(41.9449 -6.64053e-07 0)
(41.9449 -6.66822e-07 0)
(41.945 -6.70093e-07 0)
(41.9451 -6.7172e-07 0)
(41.9453 -6.72051e-07 0)
(41.9454 -6.73021e-07 0)
(41.9456 -6.76203e-07 0)
(41.9457 -6.75523e-07 0)
(41.9458 -6.75121e-07 0)
(41.9457 -6.7626e-07 0)
(41.9455 -6.76868e-07 0)
(41.9451 -6.77749e-07 0)
(41.9446 -6.78298e-07 0)
(41.9439 -6.78733e-07 0)
(41.943 -6.79349e-07 0)
(41.9419 -6.8002e-07 0)
(41.9406 -6.8058e-07 0)
(41.939 -6.80887e-07 0)
(41.9373 -6.81108e-07 0)
(41.9352 -6.81544e-07 0)
(41.933 -6.82284e-07 0)
(41.9306 -6.83283e-07 0)
(41.928 -6.84493e-07 0)
(41.9252 -6.8589e-07 0)
(41.9223 -6.87438e-07 0)
(41.9193 -6.89171e-07 0)
(41.9162 -6.91043e-07 0)
(41.913 -6.93035e-07 0)
(41.9097 -6.95118e-07 0)
(41.9064 -6.97275e-07 0)
(41.903 -6.99474e-07 0)
(41.8996 -7.01695e-07 0)
(41.8962 -7.03911e-07 0)
(41.8928 -7.06101e-07 0)
(41.8893 -7.08254e-07 0)
(41.8858 -7.10343e-07 0)
(41.8823 -7.12351e-07 0)
(41.8787 -7.14259e-07 0)
(41.8751 -7.16055e-07 0)
(41.8714 -7.17702e-07 0)
(41.8677 -7.19128e-07 0)
(41.8638 -7.20254e-07 0)
(41.8598 -7.21059e-07 0)
(41.8557 -7.21593e-07 0)
(41.8515 -7.21913e-07 0)
(41.8471 -7.22023e-07 0)
(41.8425 -7.21896e-07 0)
(41.8377 -7.21468e-07 0)
(41.8326 -7.20703e-07 0)
(41.8274 -7.19629e-07 0)
(41.8218 -7.18324e-07 0)
(41.816 -7.16914e-07 0)
(41.81 -7.15475e-07 0)
(41.8037 -7.14057e-07 0)
(41.7971 -7.12665e-07 0)
(41.7902 -7.11289e-07 0)
(41.7832 -7.0993e-07 0)
(41.7759 -7.08614e-07 0)
(41.7685 -7.07424e-07 0)
(41.761 -7.06475e-07 0)
(41.7534 -7.05876e-07 0)
(41.7458 -7.05635e-07 0)
(41.7383 -7.0567e-07 0)
(41.7308 -7.05887e-07 0)
(41.7234 -7.06265e-07 0)
(41.7162 -7.06836e-07 0)
(41.7091 -7.0767e-07 0)
(41.7022 -7.08657e-07 0)
(41.6955 -7.09762e-07 0)
(41.689 -7.10661e-07 0)
(41.6827 -7.11578e-07 0)
(41.6765 -7.12218e-07 0)
(41.6705 -7.13157e-07 0)
(41.6645 -7.13859e-07 0)
(41.6586 -7.14996e-07 0)
(41.6527 -7.15731e-07 0)
(41.6469 -7.16756e-07 0)
(41.641 -7.17338e-07 0)
(41.6351 -7.17982e-07 0)
(41.6291 -7.18346e-07 0)
(41.6231 -7.18539e-07 0)
(41.617 -7.18518e-07 0)
(41.6107 -7.1829e-07 0)
(41.6042 -7.17668e-07 0)
(41.5975 -7.16984e-07 0)
(41.5906 -7.15727e-07 0)
(41.5833 -7.14345e-07 0)
(41.5757 -7.12593e-07 0)
(41.5676 -7.10513e-07 0)
(41.5591 -7.08236e-07 0)
(41.5501 -7.05832e-07 0)
(41.5407 -7.03128e-07 0)
(41.5308 -7.00587e-07 0)
(41.5205 -6.97918e-07 0)
(41.5098 -6.95601e-07 0)
(41.4988 -6.93161e-07 0)
(41.4876 -6.91344e-07 0)
(41.4762 -6.89518e-07 0)
(41.4648 -6.88559e-07 0)
(41.4535 -6.87994e-07 0)
(41.4424 -6.8821e-07 0)
(41.4315 -6.88768e-07 0)
(41.4211 -6.90083e-07 0)
(41.4112 -6.91083e-07 0)
(41.4017 -6.92817e-07 0)
(41.3927 -6.91173e-07 0)
(41.3841 -6.77132e-07 0)
(41.3758 -6.01735e-07 0)
(41.3678 1.53492e-09 0)
(41.3598 4.39929e-06 0)
(41.3512 3.53957e-05 0)
(41.3379 0.000252498 0)
(41.2913 0.00178702 0)
(41.1083 0.0162042 0)
(38.6309 0.0838044 0)
(42.6929 0.000128458 0)
(42.6755 9.88394e-05 0)
(42.6555 8.65294e-05 0)
(42.637 8.57434e-05 0)
(42.6193 8.56076e-05 0)
(42.6019 8.52283e-05 0)
(42.5847 8.49455e-05 0)
(42.5677 8.47991e-05 0)
(42.551 8.46936e-05 0)
(42.5347 8.46519e-05 0)
(42.5187 8.46149e-05 0)
(42.5031 8.46089e-05 0)
(42.4879 8.46177e-05 0)
(42.473 8.4637e-05 0)
(42.4586 8.46636e-05 0)
(42.4445 8.46938e-05 0)
(42.4308 8.47258e-05 0)
(42.4174 8.47573e-05 0)
(42.4044 8.47881e-05 0)
(42.3917 8.48145e-05 0)
(42.3793 8.48318e-05 0)
(42.3672 8.48135e-05 0)
(42.3554 8.48374e-05 0)
(42.3438 8.47941e-05 0)
(42.3324 8.4664e-05 0)
(42.3212 8.44876e-05 0)
(42.3102 8.41764e-05 0)
(42.2994 8.37061e-05 0)
(42.2887 8.30149e-05 0)
(42.2782 8.20419e-05 0)
(42.2678 8.07233e-05 0)
(42.2576 7.89923e-05 0)
(42.2475 7.68167e-05 0)
(42.2376 7.4136e-05 0)
(42.2278 7.09329e-05 0)
(42.2182 6.72252e-05 0)
(42.2088 6.30438e-05 0)
(42.1995 5.84511e-05 0)
(42.1905 5.35346e-05 0)
(42.1816 4.84008e-05 0)
(42.173 4.31686e-05 0)
(42.1647 3.79606e-05 0)
(42.1566 3.28945e-05 0)
(42.1488 2.80758e-05 0)
(42.1412 2.35917e-05 0)
(42.134 1.95074e-05 0)
(42.1271 1.58641e-05 0)
(42.1205 1.26799e-05 0)
(42.1141 9.95218e-06 0)
(42.1081 7.66064e-06 0)
(42.1024 5.77192e-06 0)
(42.0971 4.24395e-06 0)
(42.092 3.03003e-06 0)
(42.0871 2.08249e-06 0)
(42.0826 1.35548e-06 0)
(42.0783 8.06855e-07 0)
(42.0742 3.99954e-07 0)
(42.0704 1.00822e-07 0)
(42.0668 -1.07506e-07 0)
(42.0634 -2.54733e-07 0)
(42.0601 -3.57521e-07 0)
(42.057 -4.2804e-07 0)
(42.054 -4.75847e-07 0)
(42.0512 -5.07947e-07 0)
(42.0485 -5.29375e-07 0)
(42.0458 -5.43699e-07 0)
(42.0433 -5.53377e-07 0)
(42.0409 -5.60078e-07 0)
(42.0386 -5.64911e-07 0)
(42.0364 -5.68614e-07 0)
(42.0343 -5.71646e-07 0)
(42.0324 -5.74302e-07 0)
(42.0305 -5.76763e-07 0)
(42.0288 -5.79136e-07 0)
(42.0272 -5.81494e-07 0)
(42.0257 -5.83865e-07 0)
(42.0243 -5.86271e-07 0)
(42.0232 -5.88718e-07 0)
(42.0221 -5.91196e-07 0)
(42.0213 -5.93696e-07 0)
(42.0205 -5.96214e-07 0)
(42.0199 -5.98712e-07 0)
(42.0195 -6.00937e-07 0)
(42.0192 -6.02218e-07 0)
(42.019 -6.04728e-07 0)
(42.0189 -6.06159e-07 0)
(42.0188 -6.09696e-07 0)
(42.0189 -6.13402e-07 0)
(42.019 -6.14064e-07 0)
(42.0192 -6.13088e-07 0)
(42.0193 -6.13726e-07 0)
(42.0195 -6.17781e-07 0)
(42.0196 -6.14873e-07 0)
(42.0196 -6.12844e-07 0)
(42.0195 -6.13551e-07 0)
(42.0193 -6.13116e-07 0)
(42.0189 -6.13038e-07 0)
(42.0184 -6.12402e-07 0)
(42.0177 -6.11622e-07 0)
(42.0168 -6.1112e-07 0)
(42.0157 -6.1065e-07 0)
(42.0143 -6.10018e-07 0)
(42.0127 -6.09129e-07 0)
(42.0109 -6.08298e-07 0)
(42.0089 -6.07885e-07 0)
(42.0067 -6.0797e-07 0)
(42.0043 -6.08481e-07 0)
(42.0016 -6.0937e-07 0)
(41.9989 -6.10639e-07 0)
(41.9959 -6.12282e-07 0)
(41.9929 -6.1429e-07 0)
(41.9897 -6.16626e-07 0)
(41.9865 -6.19264e-07 0)
(41.9832 -6.22165e-07 0)
(41.9799 -6.25277e-07 0)
(41.9765 -6.28551e-07 0)
(41.9731 -6.31927e-07 0)
(41.9697 -6.35356e-07 0)
(41.9662 -6.38774e-07 0)
(41.9628 -6.42146e-07 0)
(41.9593 -6.45419e-07 0)
(41.9557 -6.48546e-07 0)
(41.9521 -6.51487e-07 0)
(41.9485 -6.54212e-07 0)
(41.9448 -6.56661e-07 0)
(41.941 -6.58737e-07 0)
(41.9372 -6.60341e-07 0)
(41.9332 -6.61469e-07 0)
(41.9291 -6.62173e-07 0)
(41.9248 -6.62502e-07 0)
(41.9204 -6.62453e-07 0)
(41.9157 -6.61968e-07 0)
(41.9109 -6.6099e-07 0)
(41.9059 -6.595e-07 0)
(41.9006 -6.57543e-07 0)
(41.8951 -6.55228e-07 0)
(41.8893 -6.52688e-07 0)
(41.8832 -6.50033e-07 0)
(41.8768 -6.47347e-07 0)
(41.8702 -6.44669e-07 0)
(41.8634 -6.42047e-07 0)
(41.8563 -6.39529e-07 0)
(41.8491 -6.37192e-07 0)
(41.8416 -6.35164e-07 0)
(41.8341 -6.33616e-07 0)
(41.8265 -6.32666e-07 0)
(41.8189 -6.32315e-07 0)
(41.8113 -6.32474e-07 0)
(41.8038 -6.33058e-07 0)
(41.7964 -6.34066e-07 0)
(41.7892 -6.35494e-07 0)
(41.7821 -6.374e-07 0)
(41.7752 -6.3956e-07 0)
(41.7685 -6.41938e-07 0)
(41.762 -6.44073e-07 0)
(41.7556 -6.46375e-07 0)
(41.7494 -6.4825e-07 0)
(41.7434 -6.50624e-07 0)
(41.7374 -6.52406e-07 0)
(41.7315 -6.5489e-07 0)
(41.7256 -6.56494e-07 0)
(41.7197 -6.5875e-07 0)
(41.7138 -6.60058e-07 0)
(41.7079 -6.618e-07 0)
(41.7019 -6.62783e-07 0)
(41.6959 -6.63883e-07 0)
(41.6897 -6.64236e-07 0)
(41.6834 -6.64663e-07 0)
(41.677 -6.64006e-07 0)
(41.6703 -6.63572e-07 0)
(41.6633 -6.61846e-07 0)
(41.656 -6.60043e-07 0)
(41.6483 -6.57535e-07 0)
(41.6403 -6.54377e-07 0)
(41.6317 -6.50861e-07 0)
(41.6228 -6.4727e-07 0)
(41.6133 -6.42867e-07 0)
(41.6034 -6.39225e-07 0)
(41.5931 -6.34994e-07 0)
(41.5824 -6.32018e-07 0)
(41.5714 -6.28312e-07 0)
(41.5601 -6.26609e-07 0)
(41.5488 -6.24293e-07 0)
(41.5373 -6.24284e-07 0)
(41.526 -6.2458e-07 0)
(41.5149 -6.26598e-07 0)
(41.504 -6.28713e-07 0)
(41.4936 -6.32971e-07 0)
(41.4836 -6.35214e-07 0)
(41.4741 -6.39988e-07 0)
(41.4651 -6.30336e-07 0)
(41.4565 -5.54852e-07 0)
(41.4482 1.99538e-08 0)
(41.4402 3.83031e-06 0)
(41.4322 3.05497e-05 0)
(41.4236 0.000217548 0)
(41.4104 0.00152152 0)
(41.3649 0.010578 0)
(41.1869 0.0764388 0)
(39.266 0.361895 0)
(42.6929 8.92811e-13 0)
(42.6754 1.03052e-12 0)
(42.6555 2.28656e-12 0)
(42.6369 1.27678e-12 0)
(42.6193 -7.81332e-13 0)
(42.6019 -3.67422e-12 0)
(42.5846 -5.95537e-12 0)
(42.5676 -6.72242e-12 0)
(42.551 -4.63226e-12 0)
(42.5346 -3.709e-12 0)
(42.5187 -3.78635e-12 0)
(42.5031 -5.96089e-12 0)
(42.4878 -7.6683e-12 0)
(42.473 -9.00528e-12 0)
(42.4585 -9.5262e-12 0)
(42.4445 -1.11597e-11 0)
(42.4307 -1.32866e-11 0)
(42.4174 -1.56283e-11 0)
(42.4044 -1.56803e-11 0)
(42.3917 -1.62315e-11 0)
(42.3793 -1.46955e-11 0)
(42.3672 -1.39202e-11 0)
(42.3554 -1.36972e-11 0)
(42.3437 -1.43895e-11 0)
(42.3324 -1.67888e-11 0)
(42.3212 -1.93399e-11 0)
(42.3102 -2.07932e-11 0)
(42.2994 -2.02106e-11 0)
(42.2887 -2.01745e-11 0)
(42.2782 -1.87531e-11 0)
(42.2678 -1.93238e-11 0)
(42.2576 -1.83297e-11 0)
(42.2475 -1.80198e-11 0)
(42.2376 -1.59574e-11 0)
(42.2278 -1.62854e-11 0)
(42.2182 -1.55854e-11 0)
(42.2088 -1.41704e-11 0)
(42.1995 -1.3083e-11 0)
(42.1905 -1.32214e-11 0)
(42.1816 -1.42925e-11 0)
(42.173 -1.55242e-11 0)
(42.1647 -1.59821e-11 0)
(42.1566 -1.53979e-11 0)
(42.1488 -1.48777e-11 0)
(42.1412 -1.46566e-11 0)
(42.134 -1.30968e-11 0)
(42.1271 -1.23109e-11 0)
(42.1205 -1.24751e-11 0)
(42.1141 -1.22733e-11 0)
(42.1081 -1.29641e-11 0)
(42.1025 -1.33788e-11 0)
(42.0971 -1.38314e-11 0)
(42.092 -1.32191e-11 0)
(42.0871 -1.04821e-11 0)
(42.0826 -5.33634e-12 0)
(42.0783 -7.33147e-13 0)
(42.0743 1.2137e-12 0)
(42.0704 4.41329e-13 0)
(42.0668 8.63612e-13 0)
(42.0634 1.54642e-13 0)
(42.0601 -1.1482e-12 0)
(42.057 -1.49553e-12 0)
(42.054 -8.80494e-13 0)
(42.0512 7.49627e-13 0)
(42.0485 2.1377e-12 0)
(42.0459 3.64609e-12 0)
(42.0434 4.71173e-12 0)
(42.0409 5.82216e-12 0)
(42.0386 6.87514e-12 0)
(42.0364 6.87963e-12 0)
(42.0344 7.23489e-12 0)
(42.0324 5.53265e-12 0)
(42.0305 2.82339e-12 0)
(42.0288 1.4928e-12 0)
(42.0272 1.61856e-12 0)
(42.0257 3.96355e-12 0)
(42.0244 3.60949e-12 0)
(42.0232 2.99282e-12 0)
(42.0221 2.14399e-12 0)
(42.0213 -1.41534e-14 0)
(42.0205 -5.42086e-12 0)
(42.02 -1.05444e-11 0)
(42.0195 -1.45514e-11 0)
(42.0192 -1.69282e-11 0)
(42.019 -1.86761e-11 0)
(42.0189 -1.87029e-11 0)
(42.0189 -1.99374e-11 0)
(42.0189 -1.78398e-11 0)
(42.0191 -1.6763e-11 0)
(42.0192 -1.58489e-11 0)
(42.0193 -1.46745e-11 0)
(42.0195 -1.44339e-11 0)
(42.0196 -1.43451e-11 0)
(42.0196 -1.53423e-11 0)
(42.0195 -1.68766e-11 0)
(42.0193 -1.73413e-11 0)
(42.0189 -1.62018e-11 0)
(42.0184 -1.72417e-11 0)
(42.0177 -1.68113e-11 0)
(42.0168 -1.75988e-11 0)
(42.0157 -1.96399e-11 0)
(42.0143 -2.06797e-11 0)
(42.0128 -2.09564e-11 0)
(42.011 -2.13458e-11 0)
(42.0089 -2.08645e-11 0)
(42.0067 -2.00387e-11 0)
(42.0043 -1.95096e-11 0)
(42.0016 -1.82794e-11 0)
(41.9989 -1.80528e-11 0)
(41.9959 -1.77626e-11 0)
(41.9929 -1.38399e-11 0)
(41.9898 -9.78936e-12 0)
(41.9865 -5.74975e-12 0)
(41.9832 -1.59733e-13 0)
(41.9799 3.37708e-12 0)
(41.9765 6.09798e-12 0)
(41.9731 8.02785e-12 0)
(41.9697 9.31521e-12 0)
(41.9662 9.77765e-12 0)
(41.9628 7.41383e-12 0)
(41.9593 5.40324e-12 0)
(41.9557 4.21779e-12 0)
(41.9522 3.88532e-12 0)
(41.9485 5.62122e-12 0)
(41.9448 6.10467e-12 0)
(41.941 8.12966e-12 0)
(41.9372 1.00409e-11 0)
(41.9332 1.10723e-11 0)
(41.9291 1.26094e-11 0)
(41.9248 1.3389e-11 0)
(41.9204 1.27515e-11 0)
(41.9158 1.05197e-11 0)
(41.9109 8.81918e-12 0)
(41.9059 8.04952e-12 0)
(41.9006 8.55103e-12 0)
(41.8951 9.65977e-12 0)
(41.8893 9.77263e-12 0)
(41.8832 1.08628e-11 0)
(41.8769 1.08965e-11 0)
(41.8702 9.3195e-12 0)
(41.8634 6.67767e-12 0)
(41.8563 5.24293e-12 0)
(41.8491 4.38668e-12 0)
(41.8416 1.66283e-12 0)
(41.8341 -1.13386e-12 0)
(41.8265 -1.96058e-12 0)
(41.8189 -2.99241e-12 0)
(41.8113 -4.55982e-12 0)
(41.8038 -2.34462e-12 0)
(41.7964 -3.56825e-12 0)
(41.7892 2.33521e-12 0)
(41.7821 -7.13472e-12 0)
(41.7752 1.23093e-11 0)
(41.7685 -1.62131e-11 0)
(41.762 3.37825e-11 0)
(41.7556 -3.75671e-11 0)
(41.7494 7.25863e-11 0)
(41.7434 -8.19253e-11 0)
(41.7374 1.28483e-10 0)
(41.7315 -1.49412e-10 0)
(41.7256 2.02367e-10 0)
(41.7197 -2.38658e-10 0)
(41.7138 2.86648e-10 0)
(41.7079 -3.56548e-10 0)
(41.702 4.16933e-10 0)
(41.6959 -5.1067e-10 0)
(41.6898 5.7907e-10 0)
(41.6835 -6.29625e-10 0)
(41.677 6.19211e-10 0)
(41.6703 -5.35917e-10 0)
(41.6633 4.02009e-10 0)
(41.656 -2.20314e-10 0)
(41.6483 7.51281e-11 0)
(41.6403 -1.61466e-10 0)
(41.6318 1.96712e-10 0)
(41.6228 -6.41333e-10 0)
(41.6133 4.82521e-10 0)
(41.6034 -1.00833e-09 0)
(41.5931 3.68723e-10 0)
(41.5824 -1.18689e-09 0)
(41.5714 4.12378e-10 0)
(41.5602 -1.64861e-09 0)
(41.5488 4.8307e-10 0)
(41.5373 -1.59922e-09 0)
(41.526 2.37524e-10 0)
(41.5149 -1.89076e-09 0)
(41.504 9.75108e-10 0)
(41.4936 -2.72273e-09 0)
(41.4836 2.06955e-09 0)
(41.4741 -1.44452e-09 0)
(41.4651 2.20772e-08 0)
(41.4565 1.53435e-07 0)
(41.4482 1.25013e-06 0)
(41.4402 8.78903e-06 0)
(41.4323 6.22368e-05 0)
(41.4245 0.000441003 0)
(41.4165 0.00312107 0)
(41.4066 0.0219802 0)
(41.3822 0.156697 0)
(41.2274 0.716841 0)
(42.6929 -0.000128458 0)
(42.6755 -9.88394e-05 0)
(42.6555 -8.65294e-05 0)
(42.637 -8.57434e-05 0)
(42.6193 -8.56076e-05 0)
(42.6019 -8.52283e-05 0)
(42.5847 -8.49455e-05 0)
(42.5677 -8.47991e-05 0)
(42.551 -8.46936e-05 0)
(42.5347 -8.4652e-05 0)
(42.5187 -8.46149e-05 0)
(42.5031 -8.46089e-05 0)
(42.4879 -8.46177e-05 0)
(42.473 -8.4637e-05 0)
(42.4586 -8.46636e-05 0)
(42.4445 -8.46938e-05 0)
(42.4308 -8.47258e-05 0)
(42.4174 -8.47573e-05 0)
(42.4044 -8.47881e-05 0)
(42.3917 -8.48145e-05 0)
(42.3793 -8.48317e-05 0)
(42.3672 -8.48135e-05 0)
(42.3554 -8.48374e-05 0)
(42.3438 -8.47941e-05 0)
(42.3324 -8.4664e-05 0)
(42.3212 -8.44876e-05 0)
(42.3102 -8.41764e-05 0)
(42.2994 -8.37061e-05 0)
(42.2887 -8.30149e-05 0)
(42.2782 -8.20418e-05 0)
(42.2678 -8.07233e-05 0)
(42.2576 -7.89923e-05 0)
(42.2475 -7.68167e-05 0)
(42.2376 -7.4136e-05 0)
(42.2278 -7.09329e-05 0)
(42.2182 -6.72252e-05 0)
(42.2088 -6.30438e-05 0)
(42.1995 -5.84511e-05 0)
(42.1905 -5.35346e-05 0)
(42.1816 -4.84008e-05 0)
(42.173 -4.31686e-05 0)
(42.1647 -3.79606e-05 0)
(42.1566 -3.28945e-05 0)
(42.1488 -2.80758e-05 0)
(42.1412 -2.35917e-05 0)
(42.134 -1.95074e-05 0)
(42.1271 -1.58641e-05 0)
(42.1205 -1.26799e-05 0)
(42.1141 -9.95218e-06 0)
(42.1081 -7.66063e-06 0)
(42.1024 -5.77192e-06 0)
(42.0971 -4.24395e-06 0)
(42.092 -3.03002e-06 0)
(42.0871 -2.08249e-06 0)
(42.0826 -1.35548e-06 0)
(42.0783 -8.06855e-07 0)
(42.0742 -3.99954e-07 0)
(42.0704 -1.00818e-07 0)
(42.0668 1.07508e-07 0)
(42.0634 2.54735e-07 0)
(42.0601 3.57526e-07 0)
(42.057 4.28043e-07 0)
(42.054 4.75849e-07 0)
(42.0512 5.0795e-07 0)
(42.0485 5.29377e-07 0)
(42.0458 5.43701e-07 0)
(42.0433 5.53378e-07 0)
(42.0409 5.60076e-07 0)
(42.0386 5.6491e-07 0)
(42.0364 5.68608e-07 0)
(42.0343 5.71646e-07 0)
(42.0324 5.74304e-07 0)
(42.0305 5.76765e-07 0)
(42.0288 5.7914e-07 0)
(42.0272 5.81492e-07 0)
(42.0257 5.83866e-07 0)
(42.0243 5.86271e-07 0)
(42.0232 5.88716e-07 0)
(42.0221 5.91195e-07 0)
(42.0213 5.93703e-07 0)
(42.0205 5.96224e-07 0)
(42.0199 5.98722e-07 0)
(42.0195 6.00945e-07 0)
(42.0192 6.02223e-07 0)
(42.019 6.04732e-07 0)
(42.0189 6.06166e-07 0)
(42.0188 6.09698e-07 0)
(42.0189 6.13407e-07 0)
(42.019 6.14068e-07 0)
(42.0192 6.13092e-07 0)
(42.0193 6.13728e-07 0)
(42.0195 6.17784e-07 0)
(42.0196 6.14873e-07 0)
(42.0196 6.12846e-07 0)
(42.0195 6.13554e-07 0)
(42.0193 6.13115e-07 0)
(42.0189 6.13039e-07 0)
(42.0184 6.12401e-07 0)
(42.0177 6.11623e-07 0)
(42.0168 6.11127e-07 0)
(42.0157 6.10657e-07 0)
(42.0143 6.10021e-07 0)
(42.0127 6.09134e-07 0)
(42.0109 6.083e-07 0)
(42.0089 6.07887e-07 0)
(42.0067 6.07973e-07 0)
(42.0043 6.08483e-07 0)
(42.0016 6.09375e-07 0)
(41.9989 6.10645e-07 0)
(41.9959 6.12285e-07 0)
(41.9929 6.14288e-07 0)
(41.9897 6.16623e-07 0)
(41.9865 6.19262e-07 0)
(41.9832 6.22163e-07 0)
(41.9799 6.25275e-07 0)
(41.9765 6.28549e-07 0)
(41.9731 6.31927e-07 0)
(41.9697 6.35351e-07 0)
(41.9662 6.38773e-07 0)
(41.9628 6.42146e-07 0)
(41.9593 6.45423e-07 0)
(41.9557 6.48545e-07 0)
(41.9521 6.51486e-07 0)
(41.9485 6.54211e-07 0)
(41.9448 6.56663e-07 0)
(41.941 6.58737e-07 0)
(41.9372 6.60344e-07 0)
(41.9332 6.61466e-07 0)
(41.9291 6.6217e-07 0)
(41.9248 6.62498e-07 0)
(41.9204 6.62449e-07 0)
(41.9157 6.61968e-07 0)
(41.9109 6.60991e-07 0)
(41.9059 6.59498e-07 0)
(41.9006 6.5754e-07 0)
(41.8951 6.55226e-07 0)
(41.8893 6.52686e-07 0)
(41.8832 6.50033e-07 0)
(41.8768 6.47344e-07 0)
(41.8702 6.44668e-07 0)
(41.8634 6.42045e-07 0)
(41.8563 6.39524e-07 0)
(41.8491 6.37191e-07 0)
(41.8416 6.35166e-07 0)
(41.8341 6.33615e-07 0)
(41.8265 6.32663e-07 0)
(41.8189 6.32316e-07 0)
(41.8113 6.32475e-07 0)
(41.8038 6.33062e-07 0)
(41.7964 6.34062e-07 0)
(41.7892 6.35502e-07 0)
(41.7821 6.37381e-07 0)
(41.7752 6.39584e-07 0)
(41.7685 6.41894e-07 0)
(41.762 6.44136e-07 0)
(41.7556 6.46274e-07 0)
(41.7494 6.4838e-07 0)
(41.7434 6.50446e-07 0)
(41.7374 6.52627e-07 0)
(41.7315 6.54617e-07 0)
(41.7256 6.56815e-07 0)
(41.7197 6.58387e-07 0)
(41.7138 6.60467e-07 0)
(41.7079 6.61335e-07 0)
(41.7019 6.63323e-07 0)
(41.6959 6.63235e-07 0)
(41.6897 6.65001e-07 0)
(41.6834 6.63815e-07 0)
(41.677 6.64868e-07 0)
(41.6703 6.62792e-07 0)
(41.6633 6.62416e-07 0)
(41.656 6.59728e-07 0)
(41.6483 6.57636e-07 0)
(41.6403 6.54224e-07 0)
(41.6317 6.51183e-07 0)
(41.6228 6.46518e-07 0)
(41.6133 6.43709e-07 0)
(41.6034 6.381e-07 0)
(41.5931 6.35831e-07 0)
(41.5824 6.30839e-07 0)
(41.5714 6.29353e-07 0)
(41.5601 6.24923e-07 0)
(41.5488 6.25574e-07 0)
(41.5373 6.22742e-07 0)
(41.526 6.25539e-07 0)
(41.5149 6.24735e-07 0)
(41.504 6.30713e-07 0)
(41.4936 6.29984e-07 0)
(41.4836 6.38752e-07 0)
(41.4741 6.38549e-07 0)
(41.4651 6.59727e-07 0)
(41.4565 7.48327e-07 0)
(41.4482 1.47817e-06 0)
(41.4402 6.62166e-06 0)
(41.4325 4.3421e-05 0)
(41.4258 0.000306877 0)
(41.4255 0.00219768 0)
(41.4725 0.0158965 0)
(41.6668 0.132322 0)
(44.7269 0.557524 0)
(42.6911 -0.000101305 0)
(42.6719 -9.26715e-05 0)
(42.6502 -9.02465e-05 0)
(42.6298 -9.10886e-05 0)
(42.6104 -9.17898e-05 0)
(42.5912 -9.22299e-05 0)
(42.5721 -9.25596e-05 0)
(42.5533 -9.28438e-05 0)
(42.5349 -9.30684e-05 0)
(42.5167 -9.32717e-05 0)
(42.499 -9.34303e-05 0)
(42.4816 -9.35741e-05 0)
(42.4645 -9.37008e-05 0)
(42.4479 -9.38123e-05 0)
(42.4316 -9.39106e-05 0)
(42.4158 -9.39966e-05 0)
(42.4002 -9.40717e-05 0)
(42.3851 -9.41361e-05 0)
(42.3703 -9.41914e-05 0)
(42.3558 -9.4236e-05 0)
(42.3416 -9.42662e-05 0)
(42.3277 -9.42634e-05 0)
(42.314 -9.42713e-05 0)
(42.3006 -9.42181e-05 0)
(42.2874 -9.40845e-05 0)
(42.2744 -9.38773e-05 0)
(42.2616 -9.35233e-05 0)
(42.249 -9.2987e-05 0)
(42.2366 -9.22043e-05 0)
(42.2243 -9.11071e-05 0)
(42.2122 -8.96249e-05 0)
(42.2003 -8.76858e-05 0)
(42.1885 -8.52476e-05 0)
(42.177 -8.22495e-05 0)
(42.1657 -7.86774e-05 0)
(42.1546 -7.45449e-05 0)
(42.1438 -6.98893e-05 0)
(42.1332 -6.47804e-05 0)
(42.123 -5.93156e-05 0)
(42.1131 -5.36133e-05 0)
(42.1035 -4.78054e-05 0)
(42.0943 -4.20274e-05 0)
(42.0854 -3.64096e-05 0)
(42.077 -3.10684e-05 0)
(42.0689 -2.61002e-05 0)
(42.0612 -2.15765e-05 0)
(42.0539 -1.75426e-05 0)
(42.047 -1.40181e-05 0)
(42.0404 -1.09996e-05 0)
(42.0343 -8.46445e-06 0)
(42.0284 -6.37556e-06 0)
(42.0229 -4.68636e-06 0)
(42.0178 -3.34542e-06 0)
(42.0129 -2.3003e-06 0)
(42.0083 -1.5003e-06 0)
(42.004 -8.97871e-07 0)
(41.9999 -4.51207e-07 0)
(41.9961 -1.21039e-07 0)
(41.9925 1.11971e-07 0)
(41.9891 2.76895e-07 0)
(41.9858 3.92109e-07 0)
(41.9827 4.71155e-07 0)
(41.9797 5.24666e-07 0)
(41.9769 5.60541e-07 0)
(41.9742 5.84457e-07 0)
(41.9716 6.00422e-07 0)
(41.9691 6.11186e-07 0)
(41.9667 6.18606e-07 0)
(41.9644 6.23918e-07 0)
(41.9623 6.27923e-07 0)
(41.9602 6.31133e-07 0)
(41.9582 6.33869e-07 0)
(41.9564 6.3634e-07 0)
(41.9546 6.38663e-07 0)
(41.953 6.40909e-07 0)
(41.9516 6.43123e-07 0)
(41.9503 6.45326e-07 0)
(41.9491 6.47529e-07 0)
(41.9481 6.49738e-07 0)
(41.9472 6.51968e-07 0)
(41.9465 6.54226e-07 0)
(41.9459 6.56501e-07 0)
(41.9455 6.58651e-07 0)
(41.9452 6.60311e-07 0)
(41.945 6.62615e-07 0)
(41.9449 6.64051e-07 0)
(41.9449 6.66822e-07 0)
(41.945 6.70088e-07 0)
(41.9451 6.71718e-07 0)
(41.9453 6.72054e-07 0)
(41.9454 6.7302e-07 0)
(41.9456 6.76203e-07 0)
(41.9457 6.75524e-07 0)
(41.9458 6.75121e-07 0)
(41.9457 6.7626e-07 0)
(41.9455 6.76867e-07 0)
(41.9451 6.77753e-07 0)
(41.9446 6.78298e-07 0)
(41.9439 6.78731e-07 0)
(41.943 6.79347e-07 0)
(41.9419 6.80015e-07 0)
(41.9406 6.80582e-07 0)
(41.939 6.80882e-07 0)
(41.9373 6.81108e-07 0)
(41.9352 6.81544e-07 0)
(41.933 6.8228e-07 0)
(41.9306 6.8328e-07 0)
(41.928 6.84492e-07 0)
(41.9252 6.85887e-07 0)
(41.9223 6.87452e-07 0)
(41.9193 6.89179e-07 0)
(41.9162 6.91048e-07 0)
(41.913 6.93034e-07 0)
(41.9097 6.95121e-07 0)
(41.9064 6.97273e-07 0)
(41.903 6.99474e-07 0)
(41.8996 7.01695e-07 0)
(41.8962 7.03913e-07 0)
(41.8928 7.061e-07 0)
(41.8893 7.08251e-07 0)
(41.8858 7.1034e-07 0)
(41.8823 7.12348e-07 0)
(41.8787 7.14257e-07 0)
(41.8751 7.16052e-07 0)
(41.8714 7.17703e-07 0)
(41.8677 7.19127e-07 0)
(41.8638 7.20255e-07 0)
(41.8598 7.21065e-07 0)
(41.8557 7.21597e-07 0)
(41.8515 7.21913e-07 0)
(41.8471 7.22025e-07 0)
(41.8425 7.21893e-07 0)
(41.8377 7.21463e-07 0)
(41.8326 7.20702e-07 0)
(41.8274 7.19629e-07 0)
(41.8218 7.1833e-07 0)
(41.816 7.16915e-07 0)
(41.81 7.15472e-07 0)
(41.8037 7.14057e-07 0)
(41.7971 7.12668e-07 0)
(41.7902 7.1129e-07 0)
(41.7832 7.09933e-07 0)
(41.7759 7.08614e-07 0)
(41.7685 7.0742e-07 0)
(41.761 7.06474e-07 0)
(41.7534 7.05874e-07 0)
(41.7458 7.05635e-07 0)
(41.7383 7.05663e-07 0)
(41.7308 7.05884e-07 0)
(41.7234 7.06264e-07 0)
(41.7162 7.06845e-07 0)
(41.7091 7.07662e-07 0)
(41.7022 7.08675e-07 0)
(41.6955 7.09744e-07 0)
(41.689 7.10703e-07 0)
(41.6827 7.11528e-07 0)
(41.6765 7.12284e-07 0)
(41.6705 7.13072e-07 0)
(41.6645 7.13965e-07 0)
(41.6586 7.14881e-07 0)
(41.6527 7.1586e-07 0)
(41.6469 7.16631e-07 0)
(41.641 7.17452e-07 0)
(41.6351 7.17865e-07 0)
(41.6291 7.18462e-07 0)
(41.6231 7.18394e-07 0)
(41.617 7.18698e-07 0)
(41.6107 7.18058e-07 0)
(41.6042 7.1791e-07 0)
(41.5975 7.16738e-07 0)
(41.5906 7.15895e-07 0)
(41.5833 7.14254e-07 0)
(41.5757 7.12629e-07 0)
(41.5676 7.10529e-07 0)
(41.5591 7.08378e-07 0)
(41.5501 7.05743e-07 0)
(41.5407 7.03506e-07 0)
(41.5308 7.00489e-07 0)
(41.5205 6.984e-07 0)
(41.5098 6.95613e-07 0)
(41.4988 6.93799e-07 0)
(41.4876 6.91315e-07 0)
(41.4762 6.90323e-07 0)
(41.4648 6.88613e-07 0)
(41.4535 6.88715e-07 0)
(41.4424 6.88231e-07 0)
(41.4315 6.89787e-07 0)
(41.4211 6.89807e-07 0)
(41.4112 6.92548e-07 0)
(41.4017 6.92817e-07 0)
(41.3927 6.98493e-07 0)
(41.3841 7.17225e-07 0)
(41.3758 8.50143e-07 0)
(41.3678 1.66409e-06 0)
(41.3601 7.35436e-06 0)
(41.3534 4.81715e-05 0)
(41.3534 0.000347011 0)
(41.4036 0.00273755 0)
(41.615 0.0386642 0)
(46.7544 0.157898 0)
(37.243 1.26654 -3.16925e-15)
(36.1791 3.63391 6.35707e-15)
(35.7552 6.32614 -1.19183e-14)
(35.3321 9.04727 2.46287e-14)
(34.6673 11.7381 -2.54112e-14)
(33.8049 14.3977 -1.58689e-15)
(32.9358 17.0972 5.21215e-20)
(32.134 19.9489 -2.21054e-14)
(31.0887 22.7824 -1.02461e-13)
(29.4447 25.2185 1.0088e-13)
(27.1922 27.0913 -2.5233e-14)
(24.5517 28.4516 -5.21526e-14)
(21.7733 29.5423 2.69485e-14)
(19.4352 31.3068 0)
(17.8629 34.7301 2.50281e-14)
(16.4967 39.7445 2.4656e-14)
(14.5394 45.0958 -2.43488e-14)
(11.6322 48.9717 2.42181e-14)
(8.12763 50.3488 1.89167e-16)
(4.54061 50.5823 -1.88692e-16)
(38.4037 1.99848 0)
(37.7667 4.87479 0)
(37.3439 8.04219 -1.61399e-15)
(36.8084 11.1891 -3.22507e-15)
(36.0054 14.2753 8.05369e-15)
(34.9772 17.2804 1.60842e-14)
(33.9638 20.2019 0)
(32.9878 23.2985 9.57928e-15)
(31.5598 26.6683 1.59428e-14)
(29.3255 29.7939 -3.82738e-14)
(26.4235 32.2283 2.54887e-14)
(23.1063 33.9572 1.27568e-14)
(19.8814 34.8966 -1.2794e-14)
(17.9646 35.5251 1.27911e-14)
(17.1756 37.4471 0)
(16.1012 41.3709 -1.55541e-15)
(13.5571 46.6395 1.536e-15)
(9.07678 51.6058 -5.34857e-15)
(3.69581 54.2751 -7.64409e-16)
(-0.584079 54.5168 0)
(41.1783 1.57936 -4.11699e-17)
(41.1777 2.60685 -2.09228e-14)
(41.2779 3.65314 2.12499e-14)
(41.4611 4.69859 -2.04242e-14)
(41.678 5.8144 -2.24025e-14)
(41.8869 7.07446 8.33848e-14)
(42.0377 8.51373 -4.22107e-14)
(42.1175 10.0921 4.09196e-14)
(42.1804 11.7662 -8.32431e-14)
(42.2244 13.6232 1.32909e-15)
(42.1246 15.782 4.10051e-14)
(41.7347 18.2585 0)
(40.9186 21.0156 -4.09982e-14)
(39.455 23.9354 4.10236e-14)
(37.3841 26.6979 -3.3097e-16)
(35.2505 28.9845 0)
(33.7077 30.7965 3.32492e-16)
(32.9655 32.5019 0)
(32.5331 34.5322 0)
(31.8195 36.9671 0)
(45.2494 2.56324 6.30575e-16)
(44.9806 5.89505 -6.32639e-15)
(43.9933 9.85747 -1.26784e-15)
(42.8299 13.9197 2.53252e-15)
(41.7698 17.927 -2.52178e-15)
(40.7432 21.8706 -4.66174e-19)
(39.5883 25.745 -9.97201e-15)
(38.1581 29.5082 0)
(36.4137 33.1448 0)
(34.3575 36.6472 -4.9074e-15)
(31.9659 39.9629 4.88348e-15)
(29.2625 43.0851 0)
(26.2468 45.9644 -4.83843e-15)
(22.9473 48.5685 4.82204e-15)
(19.3971 50.8773 -4.80517e-15)
(15.6201 52.8727 9.57808e-15)
(11.6336 54.5236 -4.77828e-15)
(7.47431 55.7854 0)
(3.23609 56.6471 -2.37826e-15)
(-0.639676 57.0579 0)
(48.1797 1.77278 -9.6227e-16)
(49.1251 4.54404 7.37645e-15)
(48.8387 7.87233 5.13153e-15)
(48.0466 11.3611 1.0254e-14)
(47.2397 14.9777 0)
(46.4348 18.7194 0)
(45.4954 22.5422 1.01528e-14)
(44.3001 26.362 2.5269e-15)
(42.7824 30.1604 -5.03102e-15)
(40.9478 33.8676 2.50531e-15)
(38.7556 37.4493 1.99592e-14)
(36.2267 40.8554 -1.24286e-14)
(33.3596 44.0412 1.23908e-14)
(30.1706 46.9718 -2.47026e-15)
(26.6906 49.6119 -9.857e-15)
(22.9593 51.9089 -1.72209e-14)
(19.0237 53.7843 -8.60165e-15)
(14.9309 55.1343 -1.22893e-15)
(10.7501 55.8129 7.07217e-15)
(6.7371 55.4928 3.0842e-16)
(1.61974 52.1855 0)
(1.02273 54.1413 0)
(0.924513 56.7017 0)
(1.02741 57.7127 0)
(1.0499 57.367 0)
(1.05248 56.9862 0)
(1.0326 57.0218 0)
(1.02792 57.2192 0)
(1.03547 57.2918 0)
(1.03703 57.2576 0)
(1.0361 57.2241 0)
(1.03352 57.2231 0)
(1.03262 57.2379 0)
(1.0329 57.2435 0)
(1.03285 57.2383 0)
(1.03206 57.2363 0)
(1.03068 57.2445 0)
(1.02985 57.2593 0)
(1.03028 57.2722 0)
(1.03108 57.2735 0)
(1.03134 57.2626 0)
(1.0311 57.247 0)
(1.03047 57.2297 0)
(1.0296 57.2104 0)
(1.02858 57.1891 0)
(1.02749 57.1664 0)
(1.02637 57.1434 0)
(1.02516 57.1224 0)
(1.02357 57.1081 0)
(1.02073 57.1104 0)
(1.018 57.1347 0)
(1.01641 57.1594 0)
(1.01353 57.166 0)
(1.00877 57.1578 0)
(1.00149 57.1369 0)
(0.991152 57.1048 0)
(0.976921 57.0677 0)
(0.957432 57.043 0)
(0.930051 57.0723 0)
(0.901246 57.1669 0)
(0.874408 57.2445 0)
(0.843893 57.2331 0)
(0.808203 57.1426 0)
(0.766858 56.9888 0)
(0.720985 56.7717 0)
(0.671731 56.4917 0)
(0.620256 56.1489 0)
(0.567639 55.7411 0)
(0.514804 55.2628 0)
(0.462492 54.7056 0)
(0.411204 54.0594 0)
(0.361543 53.3133 0)
(0.313898 52.4606 0)
(0.268653 51.503 0)
(0.226661 50.4526 0)
(0.18853 49.3337 0)
(0.154426 48.1845 0)
(0.125131 47.0489 0)
(0.100309 45.9707 0)
(0.0797353 44.9886 0)
(0.0629912 44.1288 0)
(0.0495086 43.4034 0)
(0.0387363 42.8114 0)
(0.0301 42.3419 0)
(0.023212 41.9787 0)
(0.0177312 41.7036 0)
(0.0133965 41.4986 0)
(0.00999981 41.3479 0)
(0.00736963 41.2383 0)
(0.00535965 41.1591 0)
(0.00384597 41.1022 0)
(0.0027232 41.0613 0)
(0.00190269 41.0317 0)
(0.00131202 41.0101 0)
(0.00089307 40.994 0)
(0.000600213 40.9816 0)
(0.000398389 40.9719 0)
(0.000261224 40.9638 0)
(0.000169262 40.9568 0)
(0.000108421 40.9505 0)
(6.86894e-05 40.9446 0)
(4.30711e-05 40.9389 0)
(2.67573e-05 40.9332 0)
(1.6495e-05 40.9274 0)
(1.01164e-05 40.9216 0)
(6.1978e-06 40.9156 0)
(3.81852e-06 40.9094 0)
(2.39149e-06 40.903 0)
(1.54752e-06 40.8964 0)
(1.05067e-06 40.8896 0)
(7.58903e-07 40.8827 0)
(5.90562e-07 40.8755 0)
(4.93522e-07 40.8682 0)
(4.38126e-07 40.8608 0)
(4.06887e-07 40.8532 0)