/*--------------------------------*- C++ -*----------------------------------*\
| =========                 |                                                 |
| \\      /  F ield         | OpenFOAM: The Open Source CFD Toolbox           |
|  \\    /   O peration     | Version:  3.0.x                                 |
|   \\  /    A nd           | Web:      www.OpenFOAM.org                      |
|    \\/     M anipulation  |                                                 |
\*---------------------------------------------------------------------------*/
FoamFile
{
    version     2.0;
    format      ascii;
    class       surfaceScalarField;
    location    "0.22";
    object      phi;
}
// * * * * * * * * * * * * * * * * * * * * * * * * * * * * * * * * * * * * * //

dimensions      [1 0 -1 0 0 0 0];

internalField   nonuniform List<scalar> 
52430
(
3.90592
0.000243645
3.90573
0.000176306
3.90555
0.000168941
3.90537
0.00017032
3.90519
0.000170718
3.905
0.000170683
3.90482
0.000170639
3.90464
0.000170633
3.90445
0.000170623
3.90426
0.000170609
3.90407
0.000170603
3.90388
0.000170584
3.90369
0.000170574
3.9035
0.000170565
3.90331
0.000170548
3.90312
0.000170554
3.90293
0.000170593
3.90275
0.000170535
3.90256
0.000170558
3.90236
0.000170559
3.90217
0.000170546
3.90197
0.000170552
3.90176
0.000170584
3.90156
0.00017056
3.90135
0.000170559
3.90115
0.000170559
3.90094
0.000170516
3.90073
0.000170614
3.90053
0.000170561
3.90032
0.00017057
3.90011
0.000170576
3.89989
0.00017058
3.89967
0.000170583
3.89945
0.000170578
3.89922
0.000170595
3.89899
0.000170587
3.89876
0.000170586
3.89852
0.000170584
3.89828
0.000170581
3.89804
0.000170577
3.8978
0.000170571
3.89754
0.000170588
3.89729
0.000170541
3.89703
0.00017055
3.89676
0.000170538
3.8965
0.000170522
3.89623
0.000170499
3.89596
0.000170465
3.89569
0.000170378
3.89542
0.000170366
3.89514
0.00017027
3.89486
0.000170103
3.89458
0.0001699
3.89429
0.000169617
3.894
0.000169219
3.89371
0.000168732
3.89341
0.000168048
3.89311
0.00016713
3.8928
0.000166021
3.8925
0.000164607
3.89219
0.00016286
3.89188
0.000160736
3.89157
0.000158191
3.89125
0.000155188
3.89094
0.000151696
3.89063
0.000147692
3.89032
0.000143167
3.89002
0.000138122
3.88971
0.000132575
3.88941
0.000126557
3.88912
0.000120114
3.88883
0.000113305
3.88854
0.000106201
3.88826
9.88819e-05
3.88798
9.14352e-05
3.88772
8.3951e-05
3.88745
7.65194e-05
3.8872
6.92275e-05
3.88695
6.21563e-05
3.8867
5.53783e-05
3.88647
4.89551e-05
3.88623
4.29365e-05
3.88601
3.73593e-05
3.88579
3.22477e-05
3.88557
2.76132e-05
3.88537
2.34561e-05
3.88516
1.97663e-05
3.88496
1.65253e-05
3.88477
1.37075e-05
3.88458
1.12824e-05
3.8844
9.21619e-06
3.88422
7.47297e-06
3.88405
6.01655e-06
3.88388
4.81138e-06
3.88371
3.82349e-06
3.88355
3.02121e-06
3.8834
2.37559e-06
3.88325
1.86067e-06
3.88311
1.45356e-06
3.88298
1.13442e-06
3.88285
8.8627e-07
3.88272
6.94823e-07
3.88261
5.48192e-07
3.8825
4.36621e-07
3.88239
3.52204e-07
3.8823
2.88604e-07
3.88221
2.4082e-07
3.88213
2.04933e-07
3.88206
1.77904e-07
3.88199
1.57428e-07
3.88194
1.41741e-07
3.88189
1.29532e-07
3.88185
1.1983e-07
3.88182
1.11922e-07
3.8818
1.05292e-07
3.88179
9.9566e-08
3.88179
9.44856e-08
3.88179
8.98654e-08
3.88181
8.55543e-08
3.88184
8.15708e-08
3.88187
7.77054e-08
3.88192
7.40165e-08
3.88197
7.0484e-08
3.88203
6.82066e-08
3.88211
6.28424e-08
3.88219
6.10908e-08
3.88228
5.66488e-08
3.88238
5.49844e-08
3.88249
5.17648e-08
3.88261
4.87926e-08
3.88274
4.67044e-08
3.88288
4.37631e-08
3.88302
4.2035e-08
3.88317
3.94848e-08
3.88334
3.78623e-08
3.88351
3.59505e-08
3.88368
3.42498e-08
3.88387
3.31511e-08
3.88406
3.13612e-08
3.88426
3.07828e-08
3.88447
2.9564e-08
3.88468
2.88255e-08
3.88491
2.86309e-08
3.88513
2.77687e-08
3.88537
2.77905e-08
3.8856
2.80197e-08
3.88585
2.77541e-08
3.8861
2.82744e-08
3.88635
2.89583e-08
3.88661
2.94021e-08
3.88688
3.02589e-08
3.88714
3.13848e-08
3.88742
3.25545e-08
3.88769
3.3675e-08
3.88797
3.52593e-08
3.88825
3.69673e-08
3.88854
3.84898e-08
3.88883
4.03925e-08
3.88912
4.24643e-08
3.88941
4.44634e-08
3.8897
4.66116e-08
3.89
4.90199e-08
3.8903
5.12409e-08
3.89059
5.37893e-08
3.89089
5.62104e-08
3.89119
5.88443e-08
3.8915
6.14291e-08
3.8918
6.40248e-08
3.8921
6.67551e-08
3.8924
6.95691e-08
3.8927
7.25868e-08
3.893
7.53516e-08
3.8933
7.78018e-08
3.8936
7.98154e-08
3.8939
8.16653e-08
3.8942
8.63984e-08
3.8945
8.87576e-08
3.89479
9.10422e-08
3.89508
9.36034e-08
3.89538
9.60717e-08
3.89566
9.85692e-08
3.89595
1.00812e-07
3.89624
1.03155e-07
3.89652
1.05196e-07
3.8968
1.07209e-07
3.89708
1.09105e-07
3.89735
1.10998e-07
3.89762
1.12683e-07
3.89789
1.14245e-07
3.89816
1.1572e-07
3.89842
1.17072e-07
3.89868
1.18293e-07
3.89893
1.19378e-07
3.89918
1.20328e-07
3.89943
1.21136e-07
3.89967
1.21812e-07
3.89991
1.22362e-07
3.90014
1.22785e-07
3.90037
1.22933e-07
3.90059
1.2308e-07
3.90081
1.23036e-07
3.90102
1.22851e-07
3.90123
1.22582e-07
3.90143
1.21949e-07
3.90163
1.21683e-07
3.90182
1.20484e-07
3.90201
1.19837e-07
3.90219
1.18887e-07
3.90236
1.17805e-07
3.90253
1.16253e-07
3.90269
1.15053e-07
3.90284
1.13816e-07
3.90299
1.11764e-07
3.90313
1.10273e-07
3.90327
1.08728e-07
3.90339
1.06269e-07
3.90351
1.04797e-07
3.90363
1.02375e-07
3.90373
1.00368e-07
3.90383
9.81236e-08
3.90392
9.57243e-08
3.904
9.34706e-08
3.90408
9.09586e-08
3.90415
8.84374e-08
3.90421
8.61255e-08
3.90426
8.31387e-08
3.90431
8.12688e-08
3.90435
7.76508e-08
3.90438
7.6483e-08
3.9044
7.16464e-08
3.90441
7.01202e-08
3.90442
6.747e-08
3.90442
6.48251e-08
3.90441
6.20894e-08
3.9044
5.95101e-08
3.90437
5.68743e-08
3.90434
5.42786e-08
3.90431
5.17157e-08
3.90426
4.91909e-08
3.90421
4.67116e-08
3.90415
4.42724e-08
3.90408
4.18877e-08
3.90401
3.95612e-08
3.90393
3.72929e-08
3.90385
3.50865e-08
3.90376
3.29528e-08
3.90366
3.08955e-08
3.90355
2.89183e-08
3.90345
2.70229e-08
3.90333
2.5213e-08
3.90321
2.34904e-08
3.90308
2.18552e-08
3.90295
2.03163e-08
3.90282
1.8872e-08
3.90268
1.75314e-08
3.90254
1.63018e-08
3.90239
1.51904e-08
3.90224
1.41845e-08
3.90208
1.32586e-08
3.90192
1.23709e-08
3.90176
1.14414e-08
3.90159
1.04774e-08
3.90143
9.63882e-09
3.90126
9.12951e-09
3.90109
9.05675e-09
3.90091
9.1768e-09
3.90074
9.26229e-09
3.90056
9.26957e-09
3.90038
9.27321e-09
3.9002
9.34233e-09
3.90002
9.51513e-09
3.89984
9.80071e-09
3.89966
1.01863e-08
3.89948
1.06702e-08
3.8993
1.12395e-08
3.89912
1.18998e-08
3.89894
1.26511e-08
3.89876
1.34823e-08
3.89858
1.43937e-08
3.8984
1.53977e-08
3.89823
1.64819e-08
3.89806
1.76369e-08
3.89788
1.88502e-08
3.89771
2.01289e-08
3.89754
2.14932e-08
3.89738
2.29047e-08
3.89722
2.43672e-08
3.89705
2.58842e-08
3.8969
2.74813e-08
3.89674
2.91056e-08
3.89659
3.07646e-08
3.89644
3.2489e-08
3.8963
3.42843e-08
3.89615
3.60869e-08
3.89601
3.79077e-08
3.89588
3.97977e-08
3.89575
4.17331e-08
3.89562
4.36612e-08
3.8955
4.55966e-08
3.89538
4.76211e-08
3.89526
4.96584e-08
3.89515
5.16775e-08
3.89504
5.36947e-08
3.89494
5.58412e-08
3.89484
5.79439e-08
3.89475
6.00303e-08
3.89466
6.20912e-08
3.89457
6.43577e-08
3.89449
6.64677e-08
3.89442
6.85959e-08
3.89435
7.07223e-08
3.89428
7.30324e-08
3.89422
7.51406e-08
3.89416
7.72616e-08
3.89411
7.94789e-08
3.89407
8.17654e-08
3.89402
8.38681e-08
3.89399
8.59582e-08
3.89396
8.8281e-08
3.89393
9.04729e-08
3.89391
9.25611e-08
3.89389
9.45893e-08
3.89388
9.70722e-08
3.89387
9.90658e-08
3.89387
1.01136e-07
3.89388
1.0318e-07
3.89389
1.05476e-07
3.8939
1.07841e-07
3.89392
1.10031e-07
3.89394
1.11804e-07
3.89397
1.1388e-07
3.89401
1.15933e-07
3.89405
1.17961e-07
3.89409
1.19973e-07
3.89414
1.21961e-07
3.8942
1.23928e-07
3.89426
1.25872e-07
3.89432
1.27789e-07
3.89439
1.29679e-07
3.89446
1.31538e-07
3.89454
1.3337e-07
3.89463
1.35173e-07
3.89472
1.36932e-07
3.89481
1.38663e-07
3.89491
1.4035e-07
3.89501
1.41994e-07
3.89511
1.436e-07
3.89522
1.45161e-07
3.89534
1.46674e-07
3.89546
1.48137e-07
3.89558
1.49548e-07
3.89571
1.50905e-07
3.89584
1.52202e-07
3.89597
1.53443e-07
3.89611
1.5464e-07
3.89625
1.5574e-07
3.8964
1.56791e-07
3.89654
1.5777e-07
3.89669
1.58683e-07
3.89685
1.59531e-07
3.897
1.60288e-07
3.89716
1.60962e-07
3.89732
1.61555e-07
3.89748
1.62087e-07
3.89765
1.62539e-07
3.89781
1.6285e-07
3.89798
1.63127e-07
3.89815
1.6332e-07
3.89832
1.63373e-07
3.89849
1.63362e-07
3.89866
1.63232e-07
3.89883
1.63081e-07
3.899
1.62736e-07
3.89917
1.62412e-07
3.89934
1.61992e-07
3.89951
1.61519e-07
3.89968
1.61121e-07
3.89985
1.61346e-07
3.90002
1.62656e-07
3.90018
1.66761e-07
3.90034
1.78286e-07
3.9005
2.06986e-07
3.90066
2.76965e-07
3.90082
4.46449e-07
3.90097
8.5361e-07
3.90112
1.8288e-06
3.90126
4.16341e-06
3.90139
9.74809e-06
3.9015
2.31059e-05
3.90158
5.50352e-05
3.90158
0.000131335
3.90139
0.00031359
3.90076
0.000748383
3.8991
0.00178363
3.89496
0.00424082
3.88502
0.0100522
3.86132
0.0237895
3.80479
0.0566303
3.66365
0.141226
0.381338
3.28239
5.5242
0.000213077
5.52419
0.000170768
5.52419
0.000155855
5.52418
0.000158359
5.52418
0.000159409
5.52417
0.000159318
5.52417
0.000159241
5.52416
0.000159254
5.52415
0.000159265
5.52414
0.000159263
5.52412
0.000159269
5.5241
0.000159263
5.52408
0.000159264
5.52406
0.000159266
5.52405
0.000159264
5.52403
0.000159279
5.52402
0.000159318
5.52401
0.000159286
5.52399
0.000159312
5.52397
0.000159325
5.52394
0.000159326
5.52391
0.000159341
5.52388
0.000159376
5.52384
0.000159369
5.5238
0.000159377
5.52376
0.000159388
5.52372
0.000159366
5.52368
0.000159452
5.52364
0.000159424
5.5236
0.000159439
5.52355
0.000159457
5.52349
0.00015947
5.52344
0.000159484
5.52337
0.000159492
5.5233
0.000159513
5.52323
0.000159519
5.52315
0.000159528
5.52307
0.000159536
5.52299
0.000159544
5.5229
0.000159551
5.5228
0.000159556
5.5227
0.000159578
5.52259
0.000159552
5.52247
0.000159567
5.52235
0.000159567
5.52223
0.000159561
5.5221
0.00015955
5.52197
0.000159528
5.52184
0.000159462
5.5217
0.000159451
5.52157
0.000159371
5.52142
0.000159223
5.52127
0.000159042
5.52112
0.000158783
5.52096
0.000158418
5.52079
0.000157955
5.52061
0.000157316
5.52043
0.000156464
5.52025
0.000155414
5.52006
0.000154082
5.51986
0.000152434
5.51966
0.000150429
5.51945
0.000148027
5.51924
0.000145192
5.51903
0.000141896
5.51881
0.000138119
5.51858
0.000133851
5.51835
0.000129095
5.51812
0.000123869
5.51788
0.000118203
5.51764
0.00011214
5.5174
0.000105738
5.51715
9.90633e-05
5.5169
9.21923e-05
5.51664
8.5207e-05
5.51639
7.81921e-05
5.51613
7.12323e-05
5.51587
6.4409e-05
5.51561
5.77979e-05
5.51534
5.14661e-05
5.51508
4.54708e-05
5.51482
3.98578e-05
5.51455
3.46607e-05
5.51429
2.99014e-05
5.51403
2.55897e-05
5.51377
2.17251e-05
5.51351
1.82976e-05
5.51325
1.52891e-05
5.513
1.26755e-05
5.51275
1.04277e-05
5.5125
8.51386e-06
5.51226
6.90028e-06
5.51203
5.55305e-06
5.51179
4.43893e-06
5.51157
3.52624e-06
5.51135
2.78547e-06
5.51113
2.18968e-06
5.51093
1.71477e-06
5.51073
1.3395e-06
5.51054
1.04545e-06
5.51035
8.16933e-07
5.51018
6.40706e-07
5.51002
5.05789e-07
5.50986
4.03168e-07
5.50972
3.25541e-07
5.50958
2.67072e-07
5.50946
2.23145e-07
5.50934
1.90155e-07
5.50924
1.65302e-07
5.50915
1.46465e-07
5.50907
1.32027e-07
5.50901
1.20775e-07
5.50895
1.11828e-07
5.50891
1.04515e-07
5.50888
9.8381e-08
5.50886
9.30713e-08
5.50886
8.83538e-08
5.50887
8.40591e-08
5.50889
8.00519e-08
5.50893
7.63293e-08
5.50898
7.27305e-08
5.50904
6.92908e-08
5.50912
6.60175e-08
5.50921
6.37237e-08
5.50931
5.90089e-08
5.50943
5.71436e-08
5.50956
5.31618e-08
5.5097
5.14665e-08
5.50986
4.84633e-08
5.51002
4.57694e-08
5.5102
4.37285e-08
5.5104
4.10782e-08
5.5106
3.93638e-08
5.51082
3.70692e-08
5.51105
3.54794e-08
5.51129
3.37332e-08
5.51154
3.21388e-08
5.5118
3.10756e-08
5.51208
2.94722e-08
5.51236
2.88455e-08
5.51265
2.7776e-08
5.51295
2.70575e-08
5.51327
2.68392e-08
5.51359
2.61043e-08
5.51392
2.60743e-08
5.51425
2.62771e-08
5.5146
2.60825e-08
5.51495
2.65154e-08
5.51531
2.71557e-08
5.51568
2.75959e-08
5.51605
2.83735e-08
5.51643
2.94212e-08
5.51682
3.05135e-08
5.5172
3.1574e-08
5.5176
3.30347e-08
5.518
3.46245e-08
5.5184
3.60706e-08
5.51881
3.78268e-08
5.51922
3.97558e-08
5.51963
4.16385e-08
5.52005
4.36376e-08
5.52047
4.58731e-08
5.52089
4.79768e-08
5.52131
5.03214e-08
5.52173
5.26097e-08
5.52216
5.50544e-08
5.52258
5.74819e-08
5.52301
5.99084e-08
5.52344
6.24577e-08
5.52386
6.50916e-08
5.52429
6.78938e-08
5.52471
7.04867e-08
5.52514
7.27605e-08
5.52556
7.46168e-08
5.52598
7.64876e-08
5.52641
8.0694e-08
5.52682
8.29932e-08
5.52724
8.51496e-08
5.52766
8.75289e-08
5.52807
8.98435e-08
5.52848
9.21782e-08
5.52888
9.42964e-08
5.52929
9.64619e-08
5.52969
9.83928e-08
5.53008
1.00266e-07
5.53047
1.02044e-07
5.53086
1.03806e-07
5.53125
1.05389e-07
5.53163
1.06843e-07
5.532
1.08224e-07
5.53237
1.09484e-07
5.53274
1.10623e-07
5.53309
1.11638e-07
5.53345
1.12524e-07
5.5338
1.13273e-07
5.53414
1.13909e-07
5.53447
1.1442e-07
5.5348
1.14806e-07
5.53513
1.14958e-07
5.53544
1.15084e-07
5.53575
1.15046e-07
5.53605
1.14869e-07
5.53635
1.14694e-07
5.53663
1.13843e-07
5.53691
1.14018e-07
5.53718
1.12531e-07
5.53745
1.12074e-07
5.5377
1.11189e-07
5.53795
1.10143e-07
5.53818
1.08734e-07
5.53841
1.07588e-07
5.53863
1.06408e-07
5.53884
1.04553e-07
5.53904
1.03125e-07
5.53923
1.01653e-07
5.53941
9.94414e-08
5.53958
9.79717e-08
5.53973
9.57798e-08
5.53988
9.38726e-08
5.54002
9.17753e-08
5.54015
8.95561e-08
5.54027
8.74206e-08
5.54038
8.5096e-08
5.54047
8.27358e-08
5.54056
8.05612e-08
5.54064
7.78182e-08
5.5407
7.59856e-08
5.54075
7.27214e-08
5.5408
7.14117e-08
5.54083
6.71953e-08
5.54085
6.559e-08
5.54086
6.31453e-08
5.54086
6.06688e-08
5.54085
5.81294e-08
5.54082
5.57102e-08
5.54079
5.32509e-08
5.54075
5.08217e-08
5.54069
4.84297e-08
5.54063
4.60732e-08
5.54056
4.37594e-08
5.54047
4.14839e-08
5.54038
3.92647e-08
5.54028
3.7101e-08
5.54017
3.49901e-08
5.54005
3.29319e-08
5.53992
3.0941e-08
5.53978
2.90211e-08
5.53963
2.71721e-08
5.53948
2.54049e-08
5.53931
2.37187e-08
5.53914
2.2108e-08
5.53896
2.05837e-08
5.53878
1.91476e-08
5.53859
1.78006e-08
5.53839
1.6551e-08
5.53819
1.54023e-08
5.53798
1.43655e-08
5.53776
1.34251e-08
5.53754
1.25592e-08
5.53732
1.17252e-08
5.53709
1.08594e-08
5.53686
9.9626e-09
5.53662
9.18953e-09
5.53638
8.72933e-09
5.53613
8.65293e-09
5.53589
8.75571e-09
5.53564
8.83483e-09
5.53539
8.84211e-09
5.53514
8.85029e-09
5.53488
8.91941e-09
5.53463
9.08676e-09
5.53437
9.35688e-09
5.53412
9.71795e-09
5.53386
1.01727e-08
5.53361
1.07038e-08
5.53335
1.13223e-08
5.5331
1.20272e-08
5.53284
1.28048e-08
5.53259
1.36561e-08
5.53234
1.45874e-08
5.53209
1.5606e-08
5.53185
1.66801e-08
5.5316
1.78143e-08
5.53136
1.90075e-08
5.53112
2.02772e-08
5.53089
2.1595e-08
5.53066
2.29602e-08
5.53043
2.43763e-08
5.53021
2.58615e-08
5.52999
2.73812e-08
5.52977
2.89265e-08
5.52956
3.05372e-08
5.52936
3.22107e-08
5.52915
3.3896e-08
5.52896
3.55949e-08
5.52877
3.73548e-08
5.52858
3.91601e-08
5.5284
4.09582e-08
5.52822
4.27663e-08
5.52805
4.46516e-08
5.52789
4.65543e-08
5.52773
4.8436e-08
5.52758
5.03233e-08
5.52744
5.23114e-08
5.5273
5.42786e-08
5.52716
5.62186e-08
5.52704
5.81495e-08
5.52692
6.02486e-08
5.5268
6.22267e-08
5.5267
6.42021e-08
5.5266
6.6193e-08
5.5265
6.83276e-08
5.52642
7.03058e-08
5.52634
7.22848e-08
5.52627
7.43485e-08
5.5262
7.64703e-08
5.52614
7.84448e-08
5.52609
8.03975e-08
5.52604
8.25494e-08
5.52601
8.46003e-08
5.52598
8.65411e-08
5.52595
8.84529e-08
5.52594
9.07276e-08
5.52593
9.26129e-08
5.52593
9.45238e-08
5.52593
9.64628e-08
5.52594
9.86201e-08
5.52596
1.00778e-07
5.52599
1.02813e-07
5.52603
1.04501e-07
5.52607
1.06435e-07
5.52612
1.08355e-07
5.52617
1.10253e-07
5.52624
1.12132e-07
5.52631
1.13991e-07
5.52638
1.15831e-07
5.52647
1.17646e-07
5.52656
1.19436e-07
5.52666
1.21206e-07
5.52676
1.22943e-07
5.52687
1.2465e-07
5.52699
1.26336e-07
5.52712
1.27984e-07
5.52725
1.296e-07
5.52739
1.31176e-07
5.52753
1.3271e-07
5.52768
1.3421e-07
5.52784
1.35668e-07
5.528
1.37083e-07
5.52817
1.38449e-07
5.52834
1.39768e-07
5.52852
1.41031e-07
5.52871
1.42242e-07
5.5289
1.434e-07
5.52909
1.44515e-07
5.52929
1.45554e-07
5.52949
1.46528e-07
5.5297
1.4743e-07
5.52992
1.48303e-07
5.53013
1.49113e-07
5.53035
1.49799e-07
5.53058
1.50414e-07
5.5308
1.50978e-07
5.53103
1.51485e-07
5.53126
1.51892e-07
5.5315
1.52181e-07
5.53173
1.52453e-07
5.53197
1.52636e-07
5.53221
1.52683e-07
5.53245
1.52676e-07
5.53269
1.52509e-07
5.53294
1.52447e-07
5.53318
1.52105e-07
5.53342
1.51907e-07
5.53366
1.51566e-07
5.5339
1.51404e-07
5.53414
1.51442e-07
5.53438
1.53063e-07
5.53461
1.57633e-07
5.53485
1.68963e-07
5.53508
1.98247e-07
5.5353
2.69083e-07
5.53553
4.39509e-07
5.53575
8.49426e-07
5.53596
1.83163e-06
5.53617
4.18164e-06
5.53637
9.80392e-06
5.53656
2.325e-05
5.53672
5.54084e-05
5.53683
0.000132273
5.53683
0.00031595
5.53656
0.000754695
5.53568
0.00180141
5.53333
0.0042938
5.52752
0.0102102
5.51351
0.024206
5.48014
0.0573019
5.40049
0.136404
5.20299
0.33885
0.874376
4.71007
7.81239
0.000176192
7.81238
0.000159245
7.81238
0.00013845
7.81237
0.00014138
7.81236
0.000143214
7.81236
0.000143104
7.81235
0.000142984
7.81234
0.00014301
7.81232
0.000143036
7.81231
0.00014304
7.81228
0.000143048
7.81225
0.000143045
7.81222
0.000143048
7.8122
0.000143052
7.81218
0.000143053
7.81216
0.000143067
7.81214
0.000143095
7.81213
0.000143077
7.8121
0.000143097
7.81207
0.00014311
7.81204
0.000143114
7.81199
0.000143126
7.81194
0.000143152
7.81189
0.000143152
7.81183
0.000143159
7.81178
0.000143168
7.81172
0.000143158
7.81166
0.000143217
7.81161
0.000143204
7.81155
0.000143214
7.81148
0.000143232
7.81141
0.000143244
7.81132
0.000143256
7.81123
0.000143265
7.81114
0.000143279
7.81103
0.000143289
7.81093
0.000143296
7.81081
0.000143304
7.81069
0.000143311
7.81057
0.000143317
7.81043
0.000143322
7.81029
0.000143338
7.81013
0.000143323
7.80996
0.000143332
7.80979
0.000143332
7.80962
0.000143328
7.80944
0.000143318
7.80926
0.000143297
7.80908
0.000143247
7.80888
0.000143229
7.80869
0.000143161
7.80849
0.000143031
7.80828
0.000142873
7.80806
0.000142645
7.80783
0.000142328
7.8076
0.000141911
7.80735
0.000141348
7.8071
0.000140605
7.80684
0.000139672
7.80657
0.000138494
7.80629
0.000137036
7.806
0.00013526
7.80571
0.00013313
7.80541
0.000130615
7.80511
0.000127687
7.8048
0.00012433
7.80448
0.000120532
7.80416
0.000116297
7.80383
0.000111639
7.80349
0.000106584
7.80315
0.00010117
7.8028
9.54474e-05
7.80245
8.94754e-05
7.8021
8.33218e-05
7.80174
7.70596e-05
7.80137
7.07645e-05
7.80101
6.45125e-05
7.80064
5.8377e-05
7.80027
5.24259e-05
7.7999
4.67204e-05
7.79952
4.13124e-05
7.79915
3.62437e-05
7.79878
3.15456e-05
7.7984
2.72384e-05
7.79803
2.33321e-05
7.79766
1.9827e-05
7.7973
1.67147e-05
7.79693
1.39799e-05
7.79658
1.16013e-05
7.79622
9.55323e-06
7.79587
7.8074e-06
7.79553
6.33376e-06
7.7952
5.10192e-06
7.79487
4.08201e-06
7.79455
3.24551e-06
7.79424
2.56575e-06
7.79393
2.01839e-06
7.79364
1.58155e-06
7.79336
1.23595e-06
7.79309
9.64834e-07
7.79283
7.53887e-07
7.79259
5.91025e-07
7.79235
4.66201e-07
7.79213
3.7116e-07
7.79193
2.992e-07
7.79174
2.44958e-07
7.79156
2.04184e-07
7.7914
1.73553e-07
7.79126
1.5048e-07
7.79113
1.33003e-07
7.79102
1.19622e-07
7.79092
1.09219e-07
7.79085
1.00965e-07
7.79079
9.42437e-08
7.79075
8.86207e-08
7.79072
8.37731e-08
7.79072
7.94821e-08
7.79073
7.55872e-08
7.79077
7.1966e-08
7.79082
6.85936e-08
7.79089
6.53577e-08
7.79098
6.22626e-08
7.79108
5.93413e-08
7.79121
5.71013e-08
7.79136
5.31759e-08
7.79152
5.1255e-08
7.79171
4.78617e-08
7.79191
4.618e-08
7.79213
4.34907e-08
7.79236
4.1156e-08
7.79262
3.92333e-08
7.79289
3.6956e-08
7.79318
3.53093e-08
7.79349
3.33466e-08
7.79381
3.1841e-08
7.79415
3.03166e-08
7.79451
2.88824e-08
7.79488
2.78819e-08
7.79527
2.6525e-08
7.79567
2.58651e-08
7.79608
2.49802e-08
7.79651
2.43163e-08
7.79695
2.40743e-08
7.7974
2.34977e-08
7.79787
2.34149e-08
7.79835
2.35796e-08
7.79884
2.34763e-08
7.79933
2.38097e-08
7.79984
2.43817e-08
7.80036
2.48142e-08
7.80089
2.54904e-08
7.80143
2.64249e-08
7.80197
2.74081e-08
7.80252
2.83794e-08
7.80308
2.96704e-08
7.80364
3.10902e-08
7.80421
3.24203e-08
7.80479
3.39737e-08
7.80537
3.57027e-08
7.80595
3.74098e-08
7.80654
3.92038e-08
7.80713
4.11919e-08
7.80773
4.31128e-08
7.80832
4.51873e-08
7.80892
4.72701e-08
7.80952
4.9447e-08
7.81013
5.16343e-08
7.81073
5.38198e-08
7.81133
5.61085e-08
7.81193
5.84778e-08
7.81254
6.09666e-08
7.81314
6.33054e-08
7.81374
6.53281e-08
7.81434
6.69925e-08
7.81494
6.88256e-08
7.81553
7.23653e-08
7.81612
7.45181e-08
7.81671
7.64885e-08
7.8173
7.86167e-08
7.81788
8.0714e-08
7.81846
8.28168e-08
7.81904
8.47417e-08
7.81961
8.66507e-08
7.82017
8.83979e-08
7.82073
9.00686e-08
7.82129
9.1663e-08
7.82184
9.32405e-08
7.82238
9.46684e-08
7.82291
9.59717e-08
7.82344
9.7215e-08
7.82397
9.83423e-08
7.82448
9.93646e-08
7.82499
1.0028e-07
7.82549
1.01075e-07
7.82598
1.01746e-07
7.82647
1.02323e-07
7.82694
1.02775e-07
7.82741
1.03116e-07
7.82786
1.03269e-07
7.82831
1.03371e-07
7.82875
1.0334e-07
7.82918
1.03184e-07
7.82959
1.0308e-07
7.83
1.02075e-07
7.83039
1.02653e-07
7.83077
1.00958e-07
7.83115
1.00675e-07
7.8315
9.98934e-08
7.83185
9.89157e-08
7.83219
9.76947e-08
7.83251
9.66406e-08
7.83282
9.55547e-08
7.83311
9.39508e-08
7.83339
9.26289e-08
7.83366
9.12746e-08
7.83392
8.93779e-08
7.83416
8.79604e-08
7.83438
8.60578e-08
7.83459
8.43156e-08
7.83479
8.2428e-08
7.83497
8.04571e-08
7.83514
7.85121e-08
7.83529
7.64512e-08
7.83543
7.43175e-08
7.83555
7.23494e-08
7.83566
6.99415e-08
7.83575
6.82007e-08
7.83582
6.53936e-08
7.83588
6.39798e-08
7.83593
6.05155e-08
7.83596
5.88866e-08
7.83597
5.67202e-08
7.83597
5.44901e-08
7.83595
5.22218e-08
7.83592
5.00372e-08
7.83588
4.78299e-08
7.83582
4.56489e-08
7.83574
4.34989e-08
7.83565
4.13861e-08
7.83555
3.93084e-08
7.83543
3.72679e-08
7.8353
3.52848e-08
7.83515
3.33507e-08
7.83499
3.14499e-08
7.83482
2.95954e-08
7.83464
2.7796e-08
7.83444
2.60625e-08
7.83423
2.44004e-08
7.83402
2.28124e-08
7.83379
2.12981e-08
7.83354
1.98511e-08
7.83329
1.84855e-08
7.83303
1.7194e-08
7.83276
1.5988e-08
7.83248
1.48648e-08
7.83219
1.38343e-08
7.8319
1.2903e-08
7.83159
1.20558e-08
7.83128
1.12714e-08
7.83096
1.05151e-08
7.83064
9.73978e-09
7.83031
8.95216e-09
7.82998
8.27504e-09
7.82964
7.86986e-09
7.82929
7.77845e-09
7.82894
7.85167e-09
7.82859
7.91806e-09
7.82824
7.93079e-09
7.82788
7.94489e-09
7.82752
8.01174e-09
7.82716
8.16681e-09
7.8268
8.40873e-09
7.82644
8.73342e-09
7.82608
9.13951e-09
7.82571
9.617e-09
7.82535
1.01718e-08
7.82499
1.08034e-08
7.82463
1.1501e-08
7.82428
1.22677e-08
7.82392
1.3104e-08
7.82357
1.40162e-08
7.82323
1.49821e-08
7.82288
1.60003e-08
7.82254
1.70726e-08
7.8222
1.82113e-08
7.82187
1.93977e-08
7.82155
2.06237e-08
7.82122
2.18952e-08
7.82091
2.3228e-08
7.8206
2.45941e-08
7.82029
2.59838e-08
7.81999
2.74295e-08
7.8197
2.8931e-08
7.81942
3.04467e-08
7.81914
3.19728e-08
7.81887
3.35522e-08
7.81861
3.51733e-08
7.81835
3.679e-08
7.8181
3.8418e-08
7.81786
4.01069e-08
7.81763
4.1819e-08
7.81741
4.3508e-08
7.8172
4.52069e-08
7.81699
4.6984e-08
7.81679
4.87544e-08
7.8166
5.04965e-08
7.81643
5.22414e-08
7.81626
5.41067e-08
7.8161
5.58971e-08
7.81594
5.76701e-08
7.8158
5.94646e-08
7.81567
6.13654e-08
7.81555
6.31553e-08
7.81544
6.49352e-08
7.81533
6.67842e-08
7.81524
6.86782e-08
7.81516
7.0469e-08
7.81508
7.22243e-08
7.81502
7.41397e-08
7.81497
7.59906e-08
7.81492
7.77368e-08
7.81489
7.9473e-08
7.81487
8.1473e-08
7.81486
8.31928e-08
7.81485
8.48904e-08
7.81486
8.6668e-08
7.81488
8.86189e-08
7.81491
9.05297e-08
7.81495
9.23055e-08
7.815
9.3868e-08
7.81505
9.5607e-08
7.81512
9.73305e-08
7.8152
9.90367e-08
7.81529
1.00722e-07
7.81539
1.0239e-07
7.8155
1.04044e-07
7.81562
1.05677e-07
7.81575
1.07285e-07
7.81589
1.08873e-07
7.81604
1.10435e-07
7.81619
1.11968e-07
7.81636
1.13482e-07
7.81654
1.14963e-07
7.81672
1.16415e-07
7.81692
1.17824e-07
7.81712
1.19206e-07
7.81734
1.20554e-07
7.81756
1.21862e-07
7.81779
1.23136e-07
7.81802
1.24362e-07
7.81827
1.25548e-07
7.81852
1.2668e-07
7.81879
1.2777e-07
7.81905
1.28807e-07
7.81933
1.29804e-07
7.81961
1.30752e-07
7.8199
1.31611e-07
7.82019
1.32412e-07
7.8205
1.33215e-07
7.8208
1.33975e-07
7.82111
1.34556e-07
7.82143
1.351e-07
7.82175
1.35609e-07
7.82207
1.36095e-07
7.8224
1.36421e-07
7.82273
1.36688e-07
7.82307
1.36955e-07
7.82341
1.3711e-07
7.82374
1.37154e-07
7.82408
1.37177e-07
7.82443
1.36914e-07
7.82477
1.36994e-07
7.82511
1.36646e-07
7.82545
1.36639e-07
7.82579
1.36401e-07
7.82613
1.36658e-07
7.82647
1.37324e-07
7.82681
1.40853e-07
7.82714
1.49954e-07
7.82747
1.71203e-07
7.82779
2.25099e-07
7.82811
3.54039e-07
7.82843
6.63213e-07
7.82874
1.40513e-06
7.82904
3.18138e-06
7.82934
7.42982e-06
7.82962
1.75919e-05
7.82989
4.18935e-05
7.83012
0.000100013
7.83028
0.00023893
7.83028
0.000570891
7.82992
0.00136386
7.82871
0.00325577
7.82547
0.00776118
7.81744
0.0184579
7.79809
0.0437667
7.75197
0.103613
7.6422
0.24636
7.37371
0.607514
1.50514
6.74311
34.4855
7.16782e-05
34.4855
8.20051e-05
34.4855
6.91973e-05
34.4854
6.96295e-05
34.4854
7.15694e-05
34.4854
7.18013e-05
34.4853
7.16428e-05
34.4853
7.16159e-05
34.4852
7.16239e-05
34.4851
7.16136e-05
34.485
7.16016e-05
34.4849
7.15879e-05
34.4848
7.15789e-05
34.4847
7.15728e-05
34.4846
7.1569e-05
34.4845
7.15687e-05
34.4844
7.15712e-05
34.4843
7.15679e-05
34.4842
7.15707e-05
34.4841
7.15748e-05
34.4839
7.15777e-05
34.4838
7.15801e-05
34.4835
7.15853e-05
34.4833
7.15883e-05
34.4831
7.15904e-05
34.4828
7.15933e-05
34.4826
7.15948e-05
34.4823
7.16077e-05
34.4821
7.16103e-05
34.4818
7.16126e-05
34.4815
7.16209e-05
34.4812
7.16264e-05
34.4808
7.16319e-05
34.4804
7.1638e-05
34.48
7.16402e-05
34.4795
7.16473e-05
34.4791
7.1651e-05
34.4785
7.16541e-05
34.478
7.16572e-05
34.4775
7.166e-05
34.4769
7.16628e-05
34.4762
7.16672e-05
34.4755
7.1666e-05
34.4748
7.1668e-05
34.4741
7.16677e-05
34.4733
7.16662e-05
34.4725
7.16619e-05
34.4717
7.16526e-05
34.4709
7.16349e-05
34.47
7.162e-05
34.4692
7.15895e-05
34.4683
7.1531e-05
34.4674
7.14585e-05
34.4664
7.13521e-05
34.4654
7.12062e-05
34.4644
7.10016e-05
34.4633
7.07356e-05
34.4621
7.03929e-05
34.461
6.99432e-05
34.4598
6.93791e-05
34.4586
6.86791e-05
34.4573
6.78237e-05
34.456
6.67947e-05
34.4547
6.55757e-05
34.4534
6.41527e-05
34.452
6.25158e-05
34.4506
6.06595e-05
34.4492
5.85836e-05
34.4477
5.6294e-05
34.4462
5.38027e-05
34.4447
5.11278e-05
34.4432
4.82932e-05
34.4417
4.53277e-05
34.4401
4.22646e-05
34.4385
3.91399e-05
34.4369
3.59914e-05
34.4353
3.28573e-05
34.4337
2.97745e-05
34.432
2.67778e-05
34.4304
2.38983e-05
34.4287
2.11631e-05
34.4271
1.8594e-05
34.4254
1.62078e-05
34.4238
1.40156e-05
34.4222
1.20234e-05
34.4205
1.02322e-05
34.4189
8.63863e-06
34.4173
7.23563e-06
34.4157
6.01303e-06
34.4142
4.9584e-06
34.4126
4.05772e-06
34.4111
3.2961e-06
34.4097
2.65831e-06
34.4082
2.12933e-06
34.4068
1.69473e-06
34.4054
1.34098e-06
34.4041
1.05566e-06
34.4028
8.27595e-07
34.4016
6.46881e-07
34.4004
5.04905e-07
34.3992
3.9428e-07
34.3981
3.0876e-07
34.3971
2.43136e-07
34.3961
1.93118e-07
34.3952
1.55216e-07
34.3944
1.26629e-07
34.3936
1.05136e-07
34.3929
8.89916e-08
34.3923
7.68403e-08
34.3917
6.76478e-08
34.3912
6.06258e-08
34.3908
5.51838e-08
34.3905
5.08837e-08
34.3902
4.74004e-08
34.39
4.45007e-08
34.3899
4.20166e-08
34.3899
3.98284e-08
34.39
3.7852e-08
34.3901
3.60246e-08
34.3903
3.43198e-08
34.3906
3.26977e-08
34.391
3.11497e-08
34.3915
2.96977e-08
34.3921
2.84267e-08
34.3927
2.67339e-08
34.3934
2.55716e-08
34.3943
2.40382e-08
34.3951
2.30282e-08
34.3961
2.17171e-08
34.3972
2.06016e-08
34.3983
1.95871e-08
34.3995
1.85169e-08
34.4008
1.7624e-08
34.4021
1.6704e-08
34.4036
1.59055e-08
34.4051
1.51636e-08
34.4066
1.44537e-08
34.4083
1.39148e-08
34.41
1.33002e-08
34.4117
1.29037e-08
34.4136
1.25062e-08
34.4155
1.21688e-08
34.4174
1.20078e-08
34.4194
1.17807e-08
34.4215
1.17036e-08
34.4236
1.17643e-08
34.4257
1.17686e-08
34.4279
1.19014e-08
34.4302
1.21729e-08
34.4325
1.24219e-08
34.4348
1.27491e-08
34.4372
1.3204e-08
34.4396
1.37013e-08
34.442
1.42049e-08
34.4445
1.48309e-08
34.4469
1.55339e-08
34.4495
1.62254e-08
34.452
1.69875e-08
34.4546
1.78434e-08
34.4571
1.87097e-08
34.4597
1.96064e-08
34.4623
2.05848e-08
34.465
2.15655e-08
34.4676
2.25837e-08
34.4703
2.36369e-08
34.4729
2.47144e-08
34.4756
2.5811e-08
34.4782
2.69094e-08
34.4809
2.80497e-08
34.4835
2.92293e-08
34.4862
3.04544e-08
34.4889
3.16397e-08
34.4915
3.26718e-08
34.4942
3.35608e-08
34.4968
3.46172e-08
34.4994
3.61795e-08
34.502
3.73559e-08
34.5046
3.83529e-08
34.5072
3.93545e-08
34.5098
4.03284e-08
34.5124
4.13149e-08
34.5149
4.22815e-08
34.5174
4.3244e-08
34.5199
4.41589e-08
34.5224
4.50084e-08
34.5248
4.58253e-08
34.5273
4.66048e-08
34.5296
4.73328e-08
34.532
4.79872e-08
34.5344
4.86034e-08
34.5367
4.91643e-08
34.5389
4.96805e-08
34.5412
5.014e-08
34.5434
5.05347e-08
34.5456
5.08712e-08
34.5477
5.11554e-08
34.5498
5.13828e-08
34.5519
5.15483e-08
34.5539
5.16407e-08
34.5558
5.16827e-08
34.5578
5.16688e-08
34.5597
5.16068e-08
34.5615
5.15467e-08
34.5633
5.09215e-08
34.565
5.14563e-08
34.5667
5.04363e-08
34.5683
5.03028e-08
34.5699
4.99645e-08
34.5715
4.9444e-08
34.5729
4.88669e-08
34.5744
4.83169e-08
34.5757
4.77457e-08
34.577
4.70002e-08
34.5783
4.63046e-08
34.5795
4.55957e-08
34.5806
4.47321e-08
34.5816
4.39425e-08
34.5826
4.30491e-08
34.5836
4.21533e-08
34.5844
4.12074e-08
34.5852
4.02372e-08
34.586
3.92411e-08
34.5866
3.82256e-08
34.5873
3.71556e-08
34.5878
3.61565e-08
34.5883
3.50062e-08
34.5887
3.40403e-08
34.589
3.27607e-08
34.5893
3.18432e-08
34.5895
3.03958e-08
34.5896
2.94274e-08
34.5896
2.83528e-08
34.5896
2.72403e-08
34.5896
2.61184e-08
34.5894
2.50209e-08
34.5892
2.39222e-08
34.589
2.28333e-08
34.5886
2.17558e-08
34.5882
2.06887e-08
34.5878
1.9633e-08
34.5873
1.85901e-08
34.5867
1.75708e-08
34.586
1.65821e-08
34.5853
1.56494e-08
34.5846
1.47559e-08
34.5838
1.38898e-08
34.5829
1.30487e-08
34.582
1.22302e-08
34.581
1.1436e-08
34.58
1.06761e-08
34.5789
9.94919e-09
34.5778
9.26184e-09
34.5767
8.61269e-09
34.5755
8.00651e-09
34.5742
7.44285e-09
34.573
6.9258e-09
34.5717
6.45946e-09
34.5703
6.03973e-09
34.569
5.65342e-09
34.5676
5.28053e-09
34.5661
4.89217e-09
34.5647
4.48063e-09
34.5632
4.11956e-09
34.5617
3.91492e-09
34.5602
3.88854e-09
34.5586
3.94584e-09
34.5571
3.98677e-09
34.5555
3.98768e-09
34.5539
3.98609e-09
34.5523
4.01292e-09
34.5508
4.08431e-09
34.5492
4.20232e-09
34.5476
4.36171e-09
34.546
4.56362e-09
34.5444
4.80304e-09
34.5428
5.08135e-09
34.5412
5.39694e-09