/*--------------------------------*- C++ -*----------------------------------*\
| =========                 |                                                 |
| \\      /  F ield         | OpenFOAM: The Open Source CFD Toolbox           |
|  \\    /   O peration     | Version:  3.0.x                                 |
|   \\  /    A nd           | Web:      www.OpenFOAM.org                      |
|    \\/     M anipulation  |                                                 |
\*---------------------------------------------------------------------------*/
FoamFile
{
    version     2.0;
    format      ascii;
    class       surfaceScalarField;
    location    "0.15";
    object      phi;
}
// * * * * * * * * * * * * * * * * * * * * * * * * * * * * * * * * * * * * * //

dimensions      [1 0 -1 0 0 0 0];

internalField   nonuniform List<scalar> 
53800
(
1.97753
0.00102727
1.97749
0.000696253
1.97744
0.000688446
1.97736
0.000690737
1.97723
0.000690733
1.97705
0.00069052
1.97681
0.000690371
1.97651
0.000690202
1.97613
0.000689996
1.97568
0.000689722
1.97515
0.000689296
1.97455
0.000688558
1.97387
0.000687218
1.97311
0.000684846
1.9723
0.000680682
1.97142
0.000674016
1.97049
0.000663746
1.96952
0.000648808
1.96852
0.000628203
1.96751
0.000601187
1.9665
0.000567435
1.9655
0.000527172
1.96453
0.000481217
1.96359
0.000430936
1.96271
0.000378106
1.96187
0.000324716
1.9611
0.000272738
1.96038
0.00022392
1.95971
0.000179633
1.9591
0.000140775
1.95854
0.000107763
1.95802
8.05787e-05
1.95755
5.88603e-05
1.95711
4.20105e-05
1.9567
2.93055e-05
1.95632
1.9989e-05
1.95597
1.33411e-05
1.95563
8.7231e-06
1.95531
5.6001e-06
1.95499
3.53859e-06
1.95469
2.22353e-06
1.95439
1.38867e-06
1.95409
8.62659e-07
1.95378
7.54208e-07
1.95347
4.97777e-07
1.95315
4.24025e-07
1.95282
4.09022e-07
1.95247
4.16483e-07
1.95211
4.3738e-07
1.95172
4.65669e-07
1.95132
4.96904e-07
1.95089
5.28176e-07
1.95045
5.57695e-07
1.94999
5.84529e-07
1.9495
6.07881e-07
1.94901
6.2658e-07
1.9485
6.39109e-07
1.94798
6.44428e-07
1.94746
6.4218e-07
1.94694
6.32121e-07
1.94643
6.14251e-07
1.94593
5.88432e-07
1.94546
5.54523e-07
1.94501
5.12468e-07
1.94459
4.62529e-07
1.94422
4.05213e-07
1.94389
3.41235e-07
1.94361
2.71539e-07
1.94339
1.97258e-07
1.94322
1.19791e-07
1.94312
4.06108e-08
1.94307
-3.85699e-08
1.94309
-8.31969e-08
1.94315
-1.65259e-07
1.94327
-2.52327e-07
1.94345
-3.18123e-07
1.94367
-3.75374e-07
1.94394
-4.24039e-07
1.94424
-4.66454e-07
1.94458
-4.97155e-07
1.94493
-5.18408e-07
1.9453
-5.30345e-07
1.94568
-5.34113e-07
1.94607
-5.27401e-07
1.94644
-5.12391e-07
1.94681
-4.90752e-07
1.94716
-4.64694e-07
1.94749
-4.3086e-07
1.94779
-3.92873e-07
1.94807
-3.49573e-07
1.94833
-3.04204e-07
1.94855
-2.64405e-07
1.94875
-2.27272e-07
1.94891
-1.87283e-07
1.94905
-1.45777e-07
1.94917
-1.07e-07
1.94926
-7.10643e-08
1.94933
-3.94248e-08
1.94938
-1.28566e-08
1.94942
1.06593e-08
1.94944
3.07518e-08
1.94945
4.77521e-08
1.94945
6.14891e-08
1.94944
6.90852e-08
1.94943
7.80565e-08
1.94941
8.47213e-08
1.94939
8.9487e-08
1.94937
9.16298e-08
1.94935
9.22992e-08
1.94932
9.19536e-08
1.9493
9.11859e-08
1.94928
8.95197e-08
1.94926
8.81191e-08
1.94924
8.61546e-08
1.94923
8.4332e-08
1.94922
8.24402e-08
1.94921
8.07049e-08
1.9492
7.86313e-08
1.94919
7.68887e-08
1.94919
7.47532e-08
1.94918
7.26177e-08
1.94918
7.07259e-08
1.94918
6.86268e-08
1.94918
6.62076e-08
1.94919
6.4847e-08
1.94919
6.38684e-08
1.9492
6.19257e-08
1.9492
6.23768e-08
1.94921
6.31735e-08
1.94922
3.19997e-08
1.94922
9.02292e-08
1.94923
6.30898e-08
1.94924
4.51691e-08
1.94924
3.85407e-08
1.94925
4.70282e-08
1.94925
5.66142e-08
1.94926
5.95319e-08
1.94926
5.83059e-08
1.94926
5.68289e-08
1.94925
5.53591e-08
1.94925
5.58539e-08
1.94924
5.57338e-08
1.94923
5.59994e-08
1.94922
5.64105e-08
1.9492
5.64978e-08
1.94918
5.66906e-08
1.94916
5.62177e-08
1.94914
5.62723e-08
1.94911
5.64869e-08
1.94909
5.65524e-08
1.94906
5.73891e-08
1.94903
5.88589e-08
1.949
6.08015e-08
1.94898
6.38283e-08
1.94895
6.72298e-08
1.94893
7.14499e-08
1.94891
7.5961e-08
1.9489
8.75152e-08
1.9489
9.13897e-08
1.94891
9.91386e-08
1.94893
1.10944e-07
1.94896
1.22676e-07
1.94901
1.36803e-07
1.94907
1.52268e-07
1.94915
1.68777e-07
1.94926
1.86836e-07
1.94938
2.06957e-07
1.94953
2.27396e-07
1.94971
2.50009e-07
1.94991
2.72794e-07
1.95013
2.94604e-07
1.95038
3.14674e-07
1.95066
3.35149e-07
1.95095
3.54063e-07
1.95127
3.69469e-07
1.95161
3.84673e-07
1.95196
3.94466e-07
1.95232
4.01586e-07
1.95269
4.04867e-07
1.95307
4.01418e-07
1.95344
3.96198e-07
1.95381
3.81908e-07
1.95416
3.66119e-07
1.95449
3.42963e-07
1.95481
3.13848e-07
1.95509
2.83562e-07
1.95534
2.43221e-07
1.95554
2.07427e-07
1.95571
1.69282e-07
1.95583
1.52213e-07
1.95589
2.78695e-07
1.95591
1.07973e-06
1.95586
5.23469e-06
1.95573
2.61122e-05
1.95543
0.000129783
1.95456
0.000643762
1.95113
0.0031493
1.93566
0.0151228
1.8607
0.0745624
0.258897
1.60136
2.27282
0.000991612
2.27359
0.000684296
2.27435
0.00066875
2.27506
0.000673691
2.27572
0.00067418
2.27633
0.000674218
2.27686
0.000674422
2.27732
0.000674615
2.27769
0.000674763
2.27798
0.00067484
2.27818
0.00067476
2.27828
0.000674356
2.27831
0.000673331
2.27824
0.00067124
2.27809
0.000667324
2.27787
0.000660835
2.27758
0.000650684
2.27722
0.000635798
2.27681
0.000615194
2.27635
0.000588156
2.27585
0.000554405
2.27532
0.000514222
2.27477
0.00046848
2.27421
0.000418593
2.27363
0.000366364
2.27306
0.000313783
2.27249
0.000262798
2.27192
0.00021511
2.27137
0.000172028
2.27084
0.000134386
2.27032
0.000102538
2.26983
7.64218e-05
2.26935
5.56408e-05
2.2689
3.95825e-05
2.26847
2.75216e-05
2.26805
1.87116e-05
2.26766
1.2449e-05
2.26728
8.11518e-06
2.26692
5.19537e-06
2.26656
3.27527e-06
2.26621
2.0555e-06
2.26587
1.284e-06
2.26552
8.00654e-07
2.26517
7.09973e-07
2.26482
4.73297e-07
2.26445
4.0721e-07
2.26407
3.96481e-07
2.26367
4.05995e-07
2.26325
4.27612e-07
2.26281
4.5589e-07
2.26234
4.86718e-07
2.26185
5.17404e-07
2.26134
5.46315e-07
2.26081
5.7256e-07
2.26026
5.95388e-07
2.25969
6.13632e-07
2.2591
6.25841e-07
2.25851
6.31011e-07
2.25791
6.28814e-07
2.25731
6.19002e-07
2.25673
6.0158e-07
2.25615
5.76405e-07
2.25561
5.43318e-07
2.25509
5.02299e-07
2.25462
4.53569e-07
2.25419
3.9766e-07
2.25381
3.35229e-07
2.25349
2.67239e-07
2.25323
1.94781e-07
2.25304
1.19206e-07
2.25292
4.1975e-08
2.25287
-3.51283e-08
2.25288
-7.91333e-08
2.25296
-1.58241e-07
2.2531
-2.43748e-07
2.2533
-3.07693e-07
2.25355
-3.63565e-07
2.25386
-4.11063e-07
2.2542
-4.52379e-07
2.25459
-4.82429e-07
2.25499
-5.03202e-07
2.25542
-5.1489e-07
2.25585
-5.18605e-07
2.25629
-5.1214e-07
2.25672
-4.97537e-07
2.25714
-4.76513e-07
2.25754
-4.51153e-07
2.25792
-4.18222e-07
2.25827
-3.80827e-07
2.25859
-3.38317e-07
2.25888
-2.94091e-07
2.25914
-2.55219e-07
2.25936
-2.18904e-07
2.25955
-1.79876e-07
2.25971
-1.39404e-07
2.25985
-1.01641e-07
2.25995
-6.6706e-08
2.26003
-3.59432e-08
2.26009
-1.00663e-08
2.26013
1.27693e-08
2.26015
3.23198e-08
2.26016
4.88435e-08
2.26016
6.21658e-08
2.26015
6.95145e-08
2.26014
7.81401e-08
2.26012
8.46085e-08
2.26009
8.91887e-08
2.26007
9.12332e-08
2.26004
9.18444e-08
2.26001
9.14879e-08
2.25999
9.07166e-08
2.25996
8.90832e-08
2.25994
8.76935e-08
2.25992
8.5769e-08
2.2599
8.39791e-08
2.25989
8.21419e-08
2.25987
8.04612e-08
2.25986
7.84348e-08
2.25985
7.67322e-08
2.25985
7.46113e-08
2.25985
7.25304e-08
2.25984
7.06204e-08
2.25984
6.85322e-08
2.25984
6.61166e-08
2.25985
6.47742e-08
2.25985
6.37592e-08
2.25986
6.1922e-08
2.25986
6.2555e-08
2.25987
6.27224e-08
2.25988
3.35858e-08
2.25989
8.91669e-08
2.25989
6.50325e-08
2.2599
4.68026e-08
2.25991
4.0367e-08
2.25991
4.86725e-08
2.25992
5.7953e-08
2.25992
6.06888e-08
2.25992
5.94482e-08
2.25992
5.79821e-08
2.25991
5.65378e-08
2.25991
5.69489e-08
2.2599
5.67597e-08
2.25989
5.6938e-08
2.25987
5.72581e-08
2.25985
5.72763e-08
2.25983
5.73855e-08
2.25981
5.68616e-08
2.25978
5.6858e-08
2.25975
5.7029e-08
2.25972
5.70471e-08
2.25969
5.78366e-08
2.25965
5.92663e-08
2.25962
6.11435e-08
2.25959
6.40939e-08
2.25956
6.74045e-08
2.25953
7.1479e-08
2.25951
7.59319e-08
2.2595
8.71078e-08
2.2595
9.09204e-08
2.2595
9.84946e-08
2.25953
1.10016e-07
2.25956
1.2149e-07
2.25962
1.35293e-07
2.25969
1.50409e-07
2.25979
1.66507e-07
2.2599
1.84129e-07
2.26005
2.03763e-07
2.26022
2.2375e-07
2.26042
2.45793e-07
2.26065
2.68017e-07
2.26091
2.89267e-07
2.26119
3.0885e-07
2.26151
3.28819e-07
2.26185
3.47256e-07
2.26221
3.6231e-07
2.2626
3.77127e-07
2.263
3.86663e-07
2.26342
3.93684e-07
2.26385
3.96747e-07
2.26428
3.93706e-07
2.26471
3.88052e-07
2.26513
3.7457e-07
2.26553
3.59189e-07
2.26592
3.36793e-07
2.26627
3.07853e-07
2.2666
2.78458e-07
2.26688
2.39324e-07
2.26712
2.08376e-07
2.26731
1.77602e-07
2.26744
1.9807e-07
2.26752
5.26383e-07
2.26753
2.319e-06
2.26748
1.13798e-05
2.26732
5.65993e-05
2.26698
0.000281093
2.26597
0.00139327
2.26197
0.00681929
2.24396
0.0327411
2.15788
0.160188
0.545683
1.87058
2.61079
0.00095065
2.61167
0.000668712
2.61254
0.000645001
2.61336
0.000652177
2.61413
0.000652853
2.61482
0.00065277
2.61544
0.000652964
2.61597
0.00065316
2.6164
0.000653305
2.61673
0.000653381
2.61697
0.000653307
2.6171
0.000652921
2.61713
0.000651935
2.61706
0.00064992
2.61689
0.000646145
2.61664
0.000639883
2.61631
0.000630084
2.61591
0.000615708
2.61544
0.000595803
2.61491
0.000569673
2.61434
0.000537047
2.61374
0.000498191
2.6131
0.000453946
2.61245
0.000405678
2.61179
0.000355129
2.61113
0.000304225
2.61047
0.000254851
2.60982
0.000208656
2.60919
0.000166909
2.60857
0.000130422
2.60797
9.9542e-05
2.6074
7.42103e-05
2.60685
5.4047e-05
2.60633
3.84607e-05
2.60583
2.67503e-05
2.60536
1.81931e-05
2.6049
1.21082e-05
2.60447
7.89563e-06
2.60405
5.05636e-06
2.60364
3.18856e-06
2.60324
2.00126e-06
2.60284
1.25022e-06
2.60245
7.80994e-07
2.60205
6.88528e-07
2.60164
4.60896e-07
2.60121
3.95248e-07
2.60077
3.84443e-07
2.60032
3.93426e-07
2.59983
4.14209e-07
2.59933
4.41505e-07
2.59879
4.71307e-07
2.59823
5.00982e-07
2.59765
5.28958e-07
2.59703
5.54344e-07
2.5964
5.76434e-07
2.59574
5.94075e-07
2.59507
6.0588e-07
2.59439
6.10864e-07
2.5937
6.08714e-07
2.59302
5.99219e-07
2.59234
5.82339e-07
2.59169
5.57946e-07
2.59106
5.25906e-07
2.59047
4.86176e-07
2.58992
4.38991e-07
2.58943
3.84862e-07
2.58899
3.24413e-07
2.58862
2.5858e-07
2.58833
1.88436e-07
2.58811
1.15277e-07
2.58797
4.05234e-08
2.58791
-3.39533e-08
2.58793
-7.7107e-08
2.58802
-1.52722e-07
2.58817
-2.36145e-07
2.5884
-2.97794e-07
2.5887
-3.51894e-07
2.58905
-3.97897e-07
2.58945
-4.37791e-07
2.58988
-4.66924e-07
2.59035
-4.87027e-07
2.59084
-4.98312e-07
2.59134
-5.01885e-07
2.59184
-4.95642e-07
2.59234
-4.81501e-07
2.59282
-4.61176e-07
2.59328
-4.36637e-07
2.59371
-4.04878e-07
2.59412
-3.68498e-07
2.59449
-3.27247e-07
2.59482
-2.84585e-07
2.59511
-2.46986e-07
2.59537
-2.11832e-07
2.59559
-1.74081e-07
2.59577
-1.34914e-07
2.59593
-9.83528e-08
2.59605
-6.45741e-08
2.59614
-3.48082e-08
2.59621
-9.74251e-09
2.59625
1.23182e-08
2.59628
3.12721e-08
2.59629
4.72464e-08
2.59629
6.01322e-08
2.59628
6.7259e-08
2.59626
7.55572e-08
2.59624
8.18618e-08
2.59621
8.62674e-08
2.59618
8.82355e-08
2.59615
8.88431e-08
2.59612
8.84938e-08
2.59609
8.7748e-08
2.59606
8.61728e-08
2.59603
8.48158e-08
2.59601
8.29714e-08
2.59599
8.12397e-08
2.59597
7.94644e-08
2.59596
7.78527e-08
2.59595
7.58992e-08
2.59594
7.42621e-08
2.59593
7.22102e-08
2.59593
7.02166e-08
2.59592
6.83613e-08
2.59592
6.63676e-08
2.59593
6.40102e-08
2.59593
6.27406e-08
2.59593
6.17401e-08
2.59594
6.00085e-08
2.59595
6.0707e-08
2.59596
6.03213e-08
2.59596
3.30256e-08
2.59597
8.48813e-08
2.59598
6.39156e-08
2.59599
4.54929e-08
2.596
3.91483e-08
2.596
4.71191e-08
2.59601
5.60976e-08
2.59601
5.87352e-08
2.59601
5.75528e-08
2.59601
5.61449e-08
2.596
5.47552e-08
2.596
5.51372e-08
2.59599
5.49626e-08
2.59597
5.51336e-08
2.59595
5.54537e-08
2.59593
5.54755e-08
2.59591
5.55701e-08
2.59588
5.50681e-08
2.59585
5.50535e-08
2.59582
5.521e-08
2.59578
5.52282e-08
2.59574
5.59849e-08
2.5957
5.73782e-08
2.59567
5.91936e-08
2.59563
6.20494e-08
2.5956
6.52471e-08
2.59557
6.9158e-08
2.59554
7.35454e-08
2.59553
8.42665e-08
2.59553
8.80136e-08
2.59553
9.53478e-08
2.59556
1.06491e-07
2.5956
1.17623e-07
2.59566
1.30971e-07
2.59575
1.45621e-07
2.59586
1.61213e-07
2.59599
1.78283e-07
2.59616
1.97309e-07
2.59636
2.16714e-07
2.59659
2.38033e-07
2.59685
2.59581e-07
2.59715
2.80146e-07
2.59747
2.99129e-07
2.59784
3.18469e-07
2.59823
3.36317e-07
2.59865
3.50905e-07
2.59909
3.65239e-07
2.59955
3.7445e-07
2.60003
3.81344e-07
2.60052
3.84138e-07
2.60102
3.81551e-07
2.60151
3.75374e-07
2.60199
3.62848e-07
2.60246
3.47933e-07
2.6029
3.26447e-07
2.60331
2.97721e-07
2.60368
2.69425e-07
2.60401
2.31707e-07
2.60428
2.06383e-07
2.6045
1.84034e-07
2.60465
2.47204e-07
2.60474
8.02582e-07
2.60476
3.70488e-06
2.60469
1.82549e-05
2.60452
9.06899e-05
2.60413
0.000450414
2.60299
0.00223252
2.59849
0.0109382
2.57827
0.0525108
2.48104
0.256896
0.865249
2.16089
2.99901
0.000904788
3.00002
0.000649938
3.00102
0.000618128
3.00197
0.000627433
3.00284
0.000628349
3.00364
0.000628133
3.00435
0.000628312
3.00496
0.000628509
3.00545
0.000628649
3.00584
0.000628722
3.0061
0.000628652
3.00625
0.000628284
3.00629
0.00062734
3.00621
0.000625411
3.00602
0.000621794
3.00573
0.000615792
3.00535
0.000606394
3.00489
0.000592602
3.00435
0.000573497
3.00374
0.00054841
3.00309
0.000517073
3.0024
0.000479739
3.00167
0.000437214
3.00092
0.000390805
3.00016
0.000342186
2.9994
0.000293208
2.99864
0.000245685
2.9979
0.000201206
2.99717
0.000160996
2.99646
0.000125839
2.99577
9.60739e-05
2.99512
7.16477e-05
2.99449
5.2198e-05
2.99389
3.71576e-05
2.99332
2.58528e-05
2.99277
1.75891e-05
2.99225
1.17104e-05
2.99175
7.63896e-06
2.99127
4.89359e-06
2.9908
3.08689e-06
2.99034
1.93759e-06
2.98988
1.21058e-06
2.98943
7.57642e-07
2.98897
6.63691e-07
2.98849
4.46256e-07
2.98801
3.81377e-07
2.98751
3.70521e-07
2.98698
3.78921e-07
2.98642
3.98777e-07
2.98584
4.24963e-07
2.98523
4.5358e-07
2.98459
4.82109e-07
2.98391
5.09008e-07
2.98321
5.33426e-07
2.98248
5.54664e-07
2.98172
5.71614e-07
2.98095
5.82953e-07
2.98017
5.87737e-07
2.97938
5.8566e-07
2.97859
5.76521e-07
2.97782
5.60256e-07
2.97707
5.36769e-07
2.97634
5.0593e-07
2.97567
4.67688e-07
2.97504
4.22289e-07
2.97447
3.70186e-07
2.97397
3.12026e-07
2.97355
2.48681e-07
2.97321
1.81193e-07
2.97296
1.10806e-07
2.9728
3.88864e-08
2.97273
-3.25817e-08
2.97275
-7.47204e-08
2.97285
-1.46454e-07
2.97303
-2.2741e-07
2.97329
-2.86462e-07
2.97363
-3.38539e-07
2.97403
-3.82814e-07
2.97449
-4.21089e-07
2.975
-4.4917e-07
2.97553
-4.68513e-07
2.9761
-4.79336e-07
2.97667
-4.82745e-07
2.97725
-4.76764e-07
2.97782
-4.63155e-07
2.97837
-4.43615e-07
2.9789
-4.20008e-07
2.97939
-3.89573e-07
2.97986
-3.54405e-07
2.98028
-3.14616e-07
2.98066
-2.73732e-07
2.981
-2.37578e-07
2.9813
-2.0373e-07
2.98155
-1.67449e-07
2.98176
-1.29778e-07
2.98194
-9.45984e-08
2.98207
-6.2144e-08
2.98218
-3.35058e-08
2.98226
-9.37871e-09
2.98231
1.18162e-08
2.98234
3.00533e-08
2.98235
4.54129e-08
2.98235
5.78075e-08
2.98234
6.46869e-08
2.98232
7.26177e-08
2.98229
7.87113e-08
2.98226
8.29496e-08
2.98223
8.4834e-08
2.98219
8.54088e-08
2.98216
8.50741e-08
2.98212
8.43611e-08
2.98209
8.2855e-08
2.98206
8.15307e-08
2.98203
7.977e-08
2.98201
7.81001e-08
2.98199
7.64121e-08
2.98197
7.48587e-08
2.98196
7.29924e-08
2.98195
7.14244e-08
2.98194
6.9449e-08
2.98194
6.75682e-08
2.98193
6.57674e-08
2.98193
6.38756e-08
2.98194
6.15946e-08
2.98194
6.03832e-08
2.98195
5.93973e-08
2.98195
5.78002e-08
2.98196
5.85242e-08
2.98197
5.76583e-08
2.98198
3.23889e-08
2.98199
8.01883e-08
2.982
6.24168e-08
2.98201
4.39286e-08
2.98202
3.77258e-08
2.98202
4.53401e-08
2.98203
5.39621e-08
2.98203
5.64905e-08
2.98203
5.53628e-08
2.98203
5.40276e-08
2.98203
5.26961e-08
2.98202
5.30599e-08
2.982
5.28926e-08
2.98199
5.30636e-08
2.98197
5.33619e-08
2.98194
5.34092e-08
2.98191
5.34856e-08
2.98188
5.30054e-08
2.98185
5.29762e-08
2.98181
5.31181e-08
2.98177
5.31327e-08
2.98172
5.38603e-08
2.98168
5.51954e-08
2.98164
5.69526e-08
2.9816
5.97029e-08
2.98156
6.27733e-08
2.98152
6.65168e-08
2.9815
7.07987e-08
2.98148
8.10178e-08
2.98148
8.46812e-08
2.98149
9.17389e-08
2.98151
1.02445e-07
2.98156
1.13181e-07
2.98163
1.26005e-07
2.98173
1.4012e-07
2.98186
1.55138e-07
2.98201
1.71556e-07
2.9822
1.89877e-07
2.98243
2.08609e-07
2.98269
2.29094e-07
2.983
2.49842e-07
2.98334
2.6964e-07
2.98371
2.87917e-07
2.98413
3.06525e-07
2.98458
3.23715e-07
2.98506
3.37768e-07
2.98557
3.51538e-07
2.9861
3.60393e-07
2.98665
3.67101e-07
2.98722
3.69608e-07
2.98778
3.67549e-07
2.98835
3.60778e-07
2.9889
3.49315e-07
2.98944
3.34967e-07
2.98995
3.14532e-07
2.99042
2.86062e-07
2.99084
2.5902e-07
2.99122
2.22946e-07
2.99153
2.04051e-07
2.99178
1.91369e-07
2.99196
3.03251e-07
2.99206
1.11781e-06
2.99208
5.28659e-06
2.99201
2.61008e-05
2.99181
0.0001296
2.99136
0.00064368
2.99005
0.00319076
2.98492
0.0156456
2.96185
0.0750592
2.85157
0.36658
1.2204
2.49574
3.44496
0.00085366
3.44612
0.000627279
3.44727
0.000587741
3.44835
0.000598981
3.44936
0.000600188
3.45028
0.000599831
3.45109
0.000599993
3.45179
0.000600191
3.45236
0.000600325
3.4528
0.000600395
3.45311
0.000600329
3.45328
0.000599981
3.45332
0.000599086
3.45323
0.000597253
3.45301
0.000593815
3.45268
0.000588107
3.45224
0.000579165
3.45171
0.000566036
3.45109
0.000547844
3.4504
0.000523945
3.44964
0.000494082
3.44885
0.000458489
3.44801
0.000417931
3.44715
0.000373653
3.44628
0.000327249
3.44541
0.000280483
3.44454
0.00023509
3.44368
0.000192588
3.44284
0.000154149
3.44203
0.000120527
3.44124
9.20505e-05
3.44049
6.86719e-05
3.43976
5.00486e-05
3.43907
3.56412e-05
3.43842
2.48075e-05
3.43779
1.68847e-05
3.43719
1.1246e-05
3.43662
7.33903e-06
3.43606
4.70324e-06
3.43552
2.96789e-06
3.43499
1.86312e-06
3.43447
1.16418e-06
3.43395
7.30053e-07
3.43342
6.35075e-07
3.43288
4.29063e-07
3.43232
3.65322e-07
3.43174
3.54457e-07
3.43114
3.62226e-07
3.4305
3.81024e-07
3.42983
4.05935e-07
3.42913
4.33207e-07
3.42839
4.60421e-07
3.42762
4.86098e-07
3.42681
5.0939e-07
3.42597
5.29653e-07
3.4251
5.45828e-07
3.42422
5.56634e-07
3.42331
5.61196e-07
3.42241
5.59201e-07
3.4215
5.50468e-07
3.42062
5.34927e-07
3.41975
5.12489e-07
3.41892
4.83025e-07
3.41814
4.46496e-07
3.41742
4.03135e-07
3.41677
3.53379e-07
3.41619
2.97841e-07
3.41571
2.37353e-07
3.41532
1.72911e-07
3.41503
1.05705e-07
3.41485
3.70492e-08
3.41477
-3.10483e-08
3.41479
-7.18792e-08
3.41491
-1.39322e-07
3.41511
-2.17373e-07
3.41542
-2.73461e-07
3.4158
-3.23214e-07
3.41627
-3.6552e-07
3.41679
-4.01958e-07
3.41737
-4.28819e-07
3.41799
-4.47288e-07
3.41864
-4.57589e-07
3.4193
-4.60825e-07
3.41996
-4.55128e-07
3.42061
-4.42136e-07
3.42125
-4.2349e-07
3.42185
-4.00934e-07
3.42243
-3.72011e-07
3.42296
-3.38279e-07
3.42344
-3.00184e-07
3.42388
-2.61307e-07
3.42427
-2.26801e-07
3.42461
-1.94463e-07
3.4249
-1.59842e-07
3.42514
-1.23893e-07
3.42534
-9.02965e-08
3.4255
-5.93463e-08
3.42563
-3.20069e-08
3.42571
-8.9567e-09
3.42577
1.12359e-08
3.42581
2.86691e-08
3.42583
4.33283e-08
3.42582
5.51499e-08
3.42581
6.17565e-08
3.42579
6.92617e-08
3.42575
7.5117e-08
3.42572
7.91533e-08
3.42568
8.09487e-08
3.42564
8.14944e-08
3.4256
8.11724e-08
3.42556
8.04939e-08
3.42552
7.90642e-08
3.42549
7.77891e-08
3.42546
7.61138e-08
3.42543
7.45204e-08
3.42541
7.29196e-08
3.42539
7.14481e-08
3.42537
6.96782e-08
3.42536
6.81757e-08
3.42535
6.6284e-08
3.42534
6.4525e-08
3.42534
6.27933e-08
3.42534
6.09925e-08
3.42534
5.88061e-08
3.42535
5.76765e-08
3.42536
5.67234e-08
3.42536
5.525e-08
3.42537
5.59758e-08
3.42538
5.4677e-08
3.4254
3.16177e-08
3.42541
7.50824e-08
3.42542
6.04778e-08
3.42543
4.20932e-08
3.42544
3.6076e-08
3.42545
4.32938e-08
3.42545
5.1512e-08
3.42546
5.39148e-08
3.42546
5.2858e-08
3.42545
5.15938e-08
3.42545
5.03314e-08
3.42544
5.06643e-08
3.42542
5.05152e-08
3.42541
5.06789e-08
3.42538
5.0959e-08
3.42535
5.10154e-08
3.42532
5.10699e-08
3.42528
5.06298e-08
3.42524
5.05916e-08
3.4252
5.07225e-08
3.42515
5.07334e-08
3.4251
5.14283e-08
3.42505
5.27034e-08
3.425
5.43769e-08
3.42495
5.69999e-08
3.42491
5.99375e-08
3.42487
6.34773e-08
3.42484
6.765e-08
3.42482
7.73016e-08
3.42482
8.08541e-08
3.42483
8.75971e-08
3.42486
9.78071e-08
3.42492
1.08079e-07
3.425
1.20317e-07
3.42511
1.33814e-07
3.42525
1.48144e-07
3.42543
1.63836e-07
3.42565
1.81328e-07
3.42591
1.99268e-07
3.42622
2.18821e-07
3.42656
2.38639e-07
3.42695
2.5754e-07
3.42739
2.7502e-07
3.42786
2.92781e-07
3.42838
3.09197e-07
3.42893
3.22649e-07
3.42952
3.35778e-07
3.43013
3.44204e-07
3.43077
3.50725e-07
3.43141
3.52897e-07
3.43206
3.51429e-07
3.43271
3.43991e-07
3.43335
3.33748e-07
3.43396
3.2008e-07
3.43455
3.00806e-07
3.43509
2.72677e-07
3.43558
2.4707e-07
3.43601
2.12896e-07
3.43637
2.01302e-07
3.43666
1.99652e-07
3.43686
3.66912e-07
3.43698
1.47609e-06
3.437
7.08449e-06
3.43691
3.50177e-05
3.43668
0.000173832
3.43617
0.000863383
3.43468
0.00428047
3.42883
0.0210041
3.4026
0.100695
3.27806
0.49043
1.61386
2.88383
3.95721
0.000796812
3.95855
0.000599924
3.95987
0.000553391
3.96112
0.000566279
3.96227
0.000567817
3.96333
0.000567322
3.96426
0.000567464
3.96506
0.000567662
3.96572
0.00056779
3.96623
0.000567856
3.96658
0.000567796
3.96677
0.00056747
3.96682
0.000566629
3.96671
0.000564906
3.96647
0.000561671
3.96609
0.000556297
3.96558
0.000547874
3.96497
0.000535501
3.96426
0.000518348
3.96346
0.000495805
3.9626
0.000467623
3.96168
0.00043402
3.96072
0.000395713
3.95974
0.000353875
3.95874
0.000310009
3.95773
0.000265783
3.95673
0.000222837
3.95575
0.000182609
3.95479
0.000146211
3.95385
0.000114361
3.95295
8.73731e-05
3.95208
6.52071e-05
3.95125
4.75419e-05
3.95046
3.38696e-05
3.9497
2.3584e-05
3.94898
1.60586e-05
3.9483
1.07003e-05
3.94764
6.98582e-06
3.947
4.4786e-06
3.94638
2.8272e-06
3.94577
1.77501e-06
3.94517
1.10927e-06
3.94457
6.97001e-07
3.94396
6.01824e-07
3.94334
4.08662e-07
3.9427
3.46632e-07
3.94204
3.35858e-07
3.94134
3.4295e-07
3.94061
3.60574e-07
3.93984
3.84042e-07
3.93904
4.09786e-07
3.93819
4.35503e-07
3.9373
4.59765e-07
3.93637
4.81791e-07
3.9354
5.00941e-07
3.93441
5.16223e-07
3.93339
5.26434e-07
3.93236
5.30743e-07
3.93131
5.28846e-07
3.93028
5.20577e-07
3.92926
5.05879e-07
3.92826
4.84652e-07
3.92731
4.56776e-07
3.92641
4.22226e-07
3.92558
3.81207e-07
3.92483
3.34144e-07
3.92418
2.81621e-07
3.92362
2.24415e-07
3.92317
1.63467e-07
3.92284
9.99071e-08
3.92263
3.49846e-08
3.92254
-2.92212e-08
3.92257
-6.85141e-08
3.9227
-1.31236e-07
3.92294
-2.05811e-07
3.92328
-2.58571e-07
3.92373
-3.05657e-07
3.92426
-3.45693e-07
3.92487
-3.80051e-07
3.92553
-4.05515e-07
3.92624
-4.22983e-07
3.92698
-4.32693e-07
3.92774
-4.35735e-07
3.9285
-4.30366e-07
3.92925
-4.18084e-07
3.92998
-4.00459e-07
3.93068
-3.79089e-07
3.93133
-3.51862e-07
3.93195
-3.19842e-07
3.9325
-2.83738e-07
3.93301
-2.47111e-07
3.93346
-2.14471e-07
3.93384
-1.83855e-07
3.93418
-1.51135e-07
3.93446
-1.17156e-07
3.93469
-8.53679e-08
3.93487
-5.61367e-08
3.93501
-3.0288e-08
3.93511
-8.46831e-09
3.93518
1.0582e-08
3.93522
2.71002e-08
3.93524
4.09545e-08
3.93524
5.21277e-08
3.93522
5.84141e-08
3.93519
6.54427e-08
3.93516
7.1027e-08
3.93512
7.48259e-08
3.93507
7.65249e-08
3.93503
7.70342e-08
3.93498
7.67341e-08
3.93493
7.60847e-08
3.93489
7.47395e-08
3.93485
7.35236e-08
3.93482
7.19547e-08
3.93479
7.04458e-08
3.93476
6.89361e-08
3.93474
6.75427e-08
3.93472
6.58847e-08
3.9347
6.44568e-08
3.93469
6.26687e-08
3.93469
6.10298e-08
3.93468
5.93818e-08
3.93468
5.7692e-08
3.93469
5.56165e-08
3.93469
5.45633e-08
3.9347
5.36465e-08
3.93471
5.22914e-08
3.93472
5.29853e-08
3.93473
5.13664e-08
3.93475
3.07682e-08
3.93476
6.95609e-08
3.93477
5.79494e-08
3.93479
3.99086e-08
3.9348
3.41561e-08
3.93481
4.09455e-08
3.93481
4.86934e-08
3.93482
5.09644e-08
3.93482
4.99795e-08
3.93481
4.87998e-08
3.93481
4.7612e-08
3.9348
4.79195e-08
3.93478
4.77803e-08
3.93476
4.7934e-08
3.93473
4.81905e-08
3.9347
4.82578e-08
3.93466
4.8296e-08
3.93462
4.78967e-08
3.93457
4.78467e-08
3.93452
4.79749e-08
3.93447
4.79777e-08
3.93441
4.86316e-08
3.93435
4.98439e-08
3.93429
5.14283e-08
3.93424
5.39012e-08
3.93419
5.66879e-08
3.93415
6.00066e-08
3.93411
6.40293e-08
3.93409
7.30533e-08
3.93408
7.64712e-08
3.93409
8.28513e-08
3.93413
9.24838e-08
3.93419
1.0222e-07
3.93429
1.13787e-07
3.93442
1.26563e-07
3.93458
1.40116e-07
3.93479
1.54969e-07
3.93504
1.71505e-07
3.93534
1.88511e-07
3.93569
2.06989e-07
3.93609
2.25742e-07
3.93654
2.4361e-07
3.93704
2.60168e-07
3.93758
2.7696e-07
3.93818
2.92483e-07
3.93881
3.05227e-07
3.93948
3.17632e-07
3.94019
3.25554e-07
3.94091
3.31866e-07
3.94166
3.33664e-07
3.94241
3.32856e-07
3.94315
3.24681e-07
3.94388
3.15807e-07
3.94459
3.02949e-07
3.94526
2.85007e-07
3.94588
2.57294e-07
3.94644
2.33344e-07
3.94694
2.01347e-07
3.94735
1.98044e-07
3.94768
2.08909e-07
3.94792
4.38742e-07
3.94805
1.88093e-06
3.94807
9.11607e-06
3.94798
4.50919e-05
3.94771
0.000223816
3.94713
0.00111167
3.94544
0.0055124
3.93881
0.0270676
3.90916
0.129666
3.76948
0.629318
2.04766
3.33478
17.2634
0.000570516
17.2692
0.000465866
17.275
0.000409684
17.2804
0.000423686
17.2855
0.00042638
17.29
0.000425545
17.2941
0.000425581
17.2976
0.000425758
17.3005
0.000425851
17.3027
0.000425898
17.3042
0.000425853
17.3051
0.000425615
17.3053
0.000424997
17.3048
0.000423728
17.3038
0.000421343
17.3021
0.00041737
17.2999
0.000411137
17.2972
0.000401966
17.2941
0.000389236
17.2906
0.000372483
17.2869
0.000351511
17.2829
0.00032647
17.2787
0.000297885
17.2744
0.000266621
17.27
0.000233795
17.2656
0.000200652
17.2613
0.00016842
17.257
0.000138181
17.2528
0.00011078
17.2487
8.67651e-05
17.2448
6.63828e-05
17.241
4.96149e-05
17.2374
3.62292e-05
17.2339
2.58513e-05
17.2306
1.80304e-05
17.2275
1.22978e-05
17.2245
8.20859e-06
17.2216
5.36843e-06
17.2188
3.44743e-06
17.2161
2.17989e-06
17.2135
1.36966e-06
17.2109
8.56646e-07
17.2082
5.41534e-07
17.2056
4.55555e-07
17.2029
3.14368e-07
17.2001
2.63375e-07
17.1972
2.53757e-07
17.1941
2.58277e-07
17.191
2.71017e-07
17.1876
2.88346e-07
17.1841
3.07505e-07
17.1804
3.26717e-07
17.1765
3.44867e-07
17.1725
3.61367e-07
17.1682
3.75715e-07
17.1639
3.8716e-07
17.1595
3.94808e-07
17.1549
3.98048e-07
17.1504
3.9662e-07
17.1459
3.90424e-07
17.1414
3.79403e-07
17.1371
3.63486e-07
17.1329
3.42573e-07
17.129
3.1666e-07
17.1254
2.85897e-07
17.1221
2.50596e-07
17.1193
2.11209e-07
17.1168
1.68304e-07
17.1149
1.22597e-07
17.1134
7.49292e-08
17.1125
2.62798e-08
17.1121
-2.16028e-08
17.1122
-5.26957e-08
17.1128
-9.70208e-08
17.1139
-1.55e-07
17.1154
-1.93813e-07
17.1173
-2.29233e-07
17.1196
-2.59346e-07
17.1223
-2.84888e-07
17.1252
-3.04155e-07
17.1283
-3.1727e-07
17.1315
-3.24497e-07
17.1348
-3.26734e-07
17.1381
-3.22757e-07
17.1414
-3.1358e-07
17.1446
-3.00347e-07
17.1476
-2.84158e-07
17.1505
-2.64026e-07
17.1532
-2.399e-07
17.1556
-2.12687e-07
17.1578
-1.8548e-07
17.1597
-1.60908e-07
17.1614
-1.37798e-07
17.1629
-1.13309e-07
17.1641
-8.7869e-08
17.1651
-6.39729e-08
17.1659
-4.21246e-08
17.1665
-2.27415e-08
17.167
-6.2887e-09
17.1673
7.85622e-09
17.1675
2.03336e-08
17.1675
3.07118e-08
17.1675
3.90769e-08
17.1674
4.39095e-08
17.1673
4.89672e-08
17.1672
5.33296e-08
17.167
5.61176e-08
17.1668
5.73887e-08
17.1666
5.77747e-08
17.1664
5.75569e-08
17.1662
5.7044e-08
17.166
5.6069e-08
17.1658
5.51236e-08
17.1657
5.39753e-08
17.1656
5.28271e-08
17.1654
5.1697e-08
17.1653
5.06525e-08
17.1653
4.94197e-08
17.1652
4.83237e-08
17.1652
4.69709e-08
17.1651
4.57949e-08
17.1651
4.45298e-08
17.1651
4.32801e-08
17.1651
4.17326e-08
17.1651
4.09559e-08
17.1652
4.02406e-08
17.1652
3.92311e-08
17.1653
3.96285e-08
17.1653
3.79368e-08
17.1654
2.54245e-08
17.1654
4.90591e-08
17.1655
4.47094e-08
17.1655
3.00615e-08
17.1656
2.56314e-08
17.1656
3.07455e-08
17.1657
3.64957e-08
17.1657
3.81847e-08
17.1657
3.74675e-08
17.1657
3.66022e-08
17.1656
3.57354e-08
17.1656
3.59246e-08
17.1655
3.58364e-08
17.1654
3.59555e-08
17.1653
3.61315e-08
17.1652
3.62015e-08
17.165
3.62061e-08
17.1648
3.59323e-08
17.1646
3.588e-08
17.1644
3.59737e-08
17.1642
3.59928e-08
17.1639
3.64762e-08
17.1637
3.73939e-08
17.1634
3.85767e-08
17.1632
4.04152e-08
17.1629
4.25234e-08
17.1628
4.49231e-08
17.1626
4.81764e-08
17.1625
5.46656e-08
17.1625
5.73837e-08
17.1625
6.21721e-08
17.1627
6.93385e-08
17.163
7.6684e-08
17.1634
8.53233e-08
17.1639
9.49203e-08
17.1647
1.05091e-07
17.1656
1.16248e-07
17.1667
1.28608e-07
17.168
1.41432e-07
17.1695
1.55221e-07
17.1712
1.69304e-07
17.1732
1.82699e-07
17.1754
1.95151e-07
17.1778
2.07722e-07
17.1803
2.19363e-07
17.1831
2.28937e-07
17.186
2.38272e-07
17.1891
2.43946e-07
17.1923
2.49335e-07
17.1955
2.49597e-07
17.1988
2.51549e-07
17.202
2.40377e-07
17.2052
2.37132e-07
17.2083
2.28193e-07
17.2112
2.15831e-07
17.2139
1.90224e-07
17.2164
1.73561e-07
17.2186
1.50978e-07
17.2204
1.82041e-07
17.2218
2.45095e-07
17.2228
7.31064e-07
17.2234
3.53837e-06
17.2235
1.74364e-05
17.2231
8.633e-05
17.222
0.000428522
17.2195
0.00212848
17.2125
0.0105535
17.1853
0.0517674
17.0646
0.247401
16.5448
1.14562
3.74044
14.8481
17.2633
0.000368098
17.2692
0.000317236
17.2749
0.000271191
17.2804
0.000281753
17.2854
0.00028449
17.29
0.000283704
17.2941
0.000283684
17.2976
0.000283823
17.3005
0.000283891
17.3027
0.000283925
17.3042
0.0002839
17.3051
0.000283749
17.3053
0.000283346
17.3048
0.000282514
17.3037
0.000280947
17.3021
0.000278331
17.2999
0.000274219
17.2972
0.000268161
17.2941
0.000259742
17.2906
0.000248648
17.2869
0.000234745
17.2829
0.000218126
17.2787
0.000199134
17.2744
0.000178339
17.27
0.000156483
17.2656
0.000134391
17.2613
0.000112885
17.257
9.26875e-05
17.2528
7.43662e-05
17.2487
5.82921e-05
17.2448
4.46356e-05
17.241
3.33892e-05
17.2374
2.44021e-05
17.2339
1.74274e-05
17.2306
1.21657e-05
17.2275
8.30514e-06
17.2245
5.54844e-06
17.2216
3.63183e-06
17.2188
2.33408e-06
17.2161
1.47699e-06
17.2135
9.28282e-07
17.2109
5.8076e-07
17.2082
3.68509e-07
17.2056
3.04998e-07
17.2029
2.12692e-07
17.2001
1.76889e-07
17.1972
1.69846e-07
17.1941
1.72565e-07
17.191
1.80888e-07
17.1876
1.92339e-07
17.1841
2.05059e-07
17.1804
2.17845e-07
17.1765
2.29929e-07
17.1725
2.4092e-07
17.1682
2.50478e-07
17.1639
2.58102e-07
17.1595
2.63197e-07
17.1549
2.65361e-07
17.1504
2.64409e-07
17.1459
2.60282e-07
17.1414
2.52935e-07
17.1371
2.42325e-07
17.1329
2.28382e-07
17.129
2.11106e-07
17.1254
1.90597e-07
17.1221
1.67061e-07
17.1193