/*--------------------------------*- C++ -*----------------------------------*\
| =========                 |                                                 |
| \\      /  F ield         | OpenFOAM: The Open Source CFD Toolbox           |
|  \\    /   O peration     | Version:  3.0.x                                 |
|   \\  /    A nd           | Web:      www.OpenFOAM.org                      |
|    \\/     M anipulation  |                                                 |
\*---------------------------------------------------------------------------*/
FoamFile
{
    version     2.0;
    format      ascii;
    class       volVectorField;
    location    "0.13995";
    object      U;
}
// * * * * * * * * * * * * * * * * * * * * * * * * * * * * * * * * * * * * * //

dimensions      [0 1 -1 0 0 0 0];

internalField   nonuniform List<vector> 
27600
(
(42.6765 0.000288362 0)
(42.6415 0.000241765 0)
(42.6042 0.000238529 0)
(42.5685 0.000240858 0)
(42.5337 0.000243131 0)
(42.4994 0.000245151 0)
(42.4658 0.000246921 0)
(42.433 0.000248445 0)
(42.4014 0.000249745 0)
(42.3709 0.000250817 0)
(42.3418 0.000251616 0)
(42.3142 0.000252021 0)
(42.2883 0.000251856 0)
(42.2642 0.00025084 0)
(42.2419 0.000248544 0)
(42.2217 0.000244635 0)
(42.2037 0.000238537 0)
(42.1878 0.00022999 0)
(42.1742 0.0002187 0)
(42.1629 0.000204653 0)
(42.1542 0.000188058 0)
(42.1479 0.000169401 0)
(42.1441 0.000149363 0)
(42.1426 0.000128755 0)
(42.1433 0.000108409 0)
(42.1458 8.90935e-05 0)
(42.15 7.14494e-05 0)
(42.1554 5.58898e-05 0)
(42.1618 4.26418e-05 0)
(42.1688 3.17332e-05 0)
(42.1763 2.3036e-05 0)
(42.1838 1.6317e-05 0)
(42.1911 1.12809e-05 0)
(42.1982 7.61479e-06 0)
(42.2048 5.01948e-06 0)
(42.2108 3.23184e-06 0)
(42.2163 2.03263e-06 0)
(42.221 1.24843e-06 0)
(42.2251 7.48634e-07 0)
(42.2286 4.36922e-07 0)
(42.2314 2.50411e-07 0)
(42.2337 1.48683e-07 0)
(42.2354 9.67946e-08 0)
(42.2366 7.16568e-08 0)
(42.2375 6.03302e-08 0)
(42.238 5.65088e-08 0)
(42.2382 5.64235e-08 0)
(42.2381 5.6887e-08 0)
(42.2379 5.92427e-08 0)
(42.2376 6.16868e-08 0)
(42.2371 6.36885e-08 0)
(42.2365 6.52506e-08 0)
(42.2358 6.65961e-08 0)
(42.2351 6.8053e-08 0)
(42.2343 6.94487e-08 0)
(42.2335 7.05893e-08 0)
(42.2326 7.12339e-08 0)
(42.2316 7.16118e-08 0)
(42.2306 7.22953e-08 0)
(42.2294 7.33324e-08 0)
(42.2282 7.48225e-08 0)
(42.2268 7.66265e-08 0)
(42.2252 7.87538e-08 0)
(42.2233 8.121e-08 0)
(42.2212 8.40872e-08 0)
(42.2188 8.74569e-08 0)
(42.2161 9.12783e-08 0)
(42.2129 9.55796e-08 0)
(42.2093 1.00376e-07 0)
(42.2051 1.05741e-07 0)
(42.2004 1.11542e-07 0)
(42.1951 1.17861e-07 0)
(42.1892 1.24579e-07 0)
(42.1826 1.31656e-07 0)
(42.1752 1.38987e-07 0)
(42.1672 1.46374e-07 0)
(42.1585 1.53664e-07 0)
(42.149 1.60557e-07 0)
(42.1388 1.66854e-07 0)
(42.1281 1.72403e-07 0)
(42.1167 1.76926e-07 0)
(42.1049 1.80186e-07 0)
(42.0927 1.82002e-07 0)
(42.0803 1.8219e-07 0)
(42.0677 1.80612e-07 0)
(42.0552 1.78373e-07 0)
(42.0429 1.68779e-07 0)
(42.031 1.64816e-07 0)
(42.0196 1.58262e-07 0)
(42.009 1.44035e-07 0)
(41.9993 1.2738e-07 0)
(41.9907 1.09936e-07 0)
(41.9833 9.30087e-08 0)
(41.9772 7.42601e-08 0)
(41.9726 5.07411e-08 0)
(41.9695 2.01361e-08 0)
(41.968 -1.28811e-08 0)
(41.968 -2.40122e-08 0)
(41.9694 -5.0566e-08 0)
(41.9722 -7.13017e-08 0)
(41.9764 -9.02011e-08 0)
(41.9819 -1.06886e-07 0)
(41.9886 -1.21787e-07 0)
(41.9962 -1.33905e-07 0)
(42.0046 -1.43699e-07 0)
(42.0136 -1.50816e-07 0)
(42.0229 -1.55354e-07 0)
(42.0325 -1.57273e-07 0)
(42.0421 -1.56628e-07 0)
(42.0516 -1.5365e-07 0)
(42.0607 -1.48271e-07 0)
(42.0694 -1.41791e-07 0)
(42.0775 -1.32963e-07 0)
(42.085 -1.23822e-07 0)
(42.0918 -1.13664e-07 0)
(42.0978 -1.02977e-07 0)
(42.103 -9.1982e-08 0)
(42.1075 -8.04189e-08 0)
(42.1112 -6.82243e-08 0)
(42.1142 -5.60429e-08 0)
(42.1164 -4.38531e-08 0)
(42.1181 -3.18629e-08 0)
(42.1193 -2.01498e-08 0)
(42.1199 -8.22889e-09 0)
(42.1202 -3.24316e-10 0)
(42.1201 5.60603e-09 0)
(42.1198 1.10708e-08 0)
(42.1193 1.69266e-08 0)
(42.1188 2.22637e-08 0)
(42.1184 -2.82301e-08 0)
(42.1179 6.88102e-08 0)
(42.1173 4.6003e-08 0)
(42.1169 4.33773e-08 0)
(42.1169 5.23045e-08 0)
(42.1172 5.8065e-08 0)
(42.1178 6.12532e-08 0)
(42.1189 6.53604e-08 0)
(42.1204 7.08018e-08 0)
(42.1224 7.67507e-08 0)
(42.1249 8.21519e-08 0)
(42.128 8.76026e-08 0)
(42.1317 9.25587e-08 0)
(42.1361 9.67603e-08 0)
(42.141 1.00834e-07 0)
(42.1465 1.03717e-07 0)
(42.1526 1.06444e-07 0)
(42.1593 1.08284e-07 0)
(42.1665 1.09326e-07 0)
(42.174 1.09357e-07 0)
(42.182 1.07968e-07 0)
(42.1902 1.05918e-07 0)
(42.1986 1.01916e-07 0)
(42.207 9.69729e-08 0)
(42.2154 9.02743e-08 0)
(42.2236 8.21124e-08 0)
(42.2314 7.27171e-08 0)
(42.2388 6.16918e-08 0)
(42.2456 4.97554e-08 0)
(42.2518 3.6714e-08 0)
(42.2571 2.24765e-08 0)
(42.2615 8.70631e-09 0)
(42.2649 -7.41812e-09 0)
(42.2672 -2.41511e-08 0)
(42.2685 -4.93728e-08 0)
(42.2685 -7.96699e-08 0)
(42.2673 -1.02141e-07 0)
(42.2649 -1.11296e-07 0)
(42.2612 -1.25099e-07 0)
(42.2564 -1.36606e-07 0)
(42.2505 -1.4633e-07 0)
(42.2437 -1.5416e-07 0)
(42.2359 -1.60124e-07 0)
(42.2273 -1.6449e-07 0)
(42.218 -1.67328e-07 0)
(42.2082 -1.68602e-07 0)
(42.1979 -1.68323e-07 0)
(42.1872 -1.66481e-07 0)
(42.1763 -1.63153e-07 0)
(42.1653 -1.58431e-07 0)
(42.1543 -1.5247e-07 0)
(42.1434 -1.454e-07 0)
(42.1327 -1.37401e-07 0)
(42.1223 -1.28622e-07 0)
(42.1122 -1.19251e-07 0)
(42.1026 -1.0941e-07 0)
(42.0934 -9.92692e-08 0)
(42.0847 -8.89628e-08 0)
(42.0766 -7.84874e-08 0)
(42.069 -6.73654e-08 0)
(42.0619 -5.23368e-08 0)
(42.0554 -6.51539e-09 0)
(42.0495 1.90005e-07 0)
(42.044 1.07643e-06 0)
(42.0388 5.43986e-06 0)
(42.0329 2.70099e-05 0)
(42.0217 0.000133189 0)
(41.984 0.000645856 0)
(41.8183 0.00303236 0)
(41.3522 0.0151763 0)
(36.8192 0.0548912 0)
(42.6918 0.000463322 0)
(42.672 0.000330548 0)
(42.6499 0.00031353 0)
(42.6294 0.000310775 0)
(42.6098 0.000308498 0)
(42.5907 0.000306643 0)
(42.5723 0.00030513 0)
(42.5547 0.000303801 0)
(42.5382 0.000302578 0)
(42.5229 0.000301386 0)
(42.509 0.000300115 0)
(42.4965 0.000298578 0)
(42.4857 0.000296547 0)
(42.4765 0.000293674 0)
(42.4691 0.000289403 0)
(42.4635 0.000283417 0)
(42.4598 0.000274958 0)
(42.4577 0.000263824 0)
(42.4573 0.000249672 0)
(42.4586 0.000232524 0)
(42.4614 0.000212642 0)
(42.4656 0.00019062 0)
(42.4711 0.000167251 0)
(42.4778 0.000143467 0)
(42.4854 0.000120195 0)
(42.4937 9.82775e-05 0)
(42.5025 7.84175e-05 0)
(42.5116 6.10242e-05 0)
(42.5208 4.63155e-05 0)
(42.53 3.42825e-05 0)
(42.539 2.47481e-05 0)
(42.5476 1.74275e-05 0)
(42.5557 1.19733e-05 0)
(42.5633 8.02644e-06 0)
(42.5703 5.24968e-06 0)
(42.5765 3.35016e-06 0)
(42.5821 2.08514e-06 0)
(42.5869 1.26624e-06 0)
(42.5911 7.55426e-07 0)
(42.5946 4.48947e-07 0)
(42.5974 2.76861e-07 0)
(42.5996 1.82086e-07 0)
(42.6014 1.31193e-07 0)
(42.6026 1.06425e-07 0)
(42.6035 9.59238e-08 0)
(42.6039 9.36087e-08 0)
(42.6041 9.51597e-08 0)
(42.6041 9.60173e-08 0)
(42.6039 9.98915e-08 0)
(42.6035 1.03419e-07 0)
(42.603 1.05815e-07 0)
(42.6024 1.07549e-07 0)
(42.6017 1.08962e-07 0)
(42.601 1.10496e-07 0)
(42.6002 1.11914e-07 0)
(42.5993 1.12976e-07 0)
(42.5984 1.1342e-07 0)
(42.5975 1.1362e-07 0)
(42.5964 1.14421e-07 0)
(42.5953 1.15871e-07 0)
(42.594 1.18125e-07 0)
(42.5926 1.21004e-07 0)
(42.591 1.24601e-07 0)
(42.5892 1.28938e-07 0)
(42.5871 1.34086e-07 0)
(42.5846 1.40092e-07 0)
(42.5819 1.46965e-07 0)
(42.5787 1.5479e-07 0)
(42.575 1.63561e-07 0)
(42.5709 1.73354e-07 0)
(42.5662 1.83976e-07 0)
(42.5609 1.95545e-07 0)
(42.5549 2.07825e-07 0)
(42.5483 2.20712e-07 0)
(42.541 2.34041e-07 0)
(42.533 2.47475e-07 0)
(42.5242 2.60698e-07 0)
(42.5147 2.73214e-07 0)
(42.5046 2.84696e-07 0)
(42.4938 2.94715e-07 0)
(42.4825 3.02885e-07 0)
(42.4706 3.08732e-07 0)
(42.4584 3.1194e-07 0)
(42.446 3.12098e-07 0)
(42.4334 3.08948e-07 0)
(42.4209 3.03693e-07 0)
(42.4086 2.86634e-07 0)
(42.3967 2.78388e-07 0)
(42.3853 2.65115e-07 0)
(42.3747 2.40005e-07 0)
(42.3649 2.11155e-07 0)
(42.3563 1.80207e-07 0)
(42.3489 1.49704e-07 0)
(42.3429 1.16859e-07 0)
(42.3382 7.83464e-08 0)
(42.3352 3.22624e-08 0)
(42.3336 -1.21486e-08 0)
(42.3336 -2.78851e-08 0)
(42.335 -7.53401e-08 0)
(42.3377 -1.1058e-07 0)
(42.3419 -1.42037e-07 0)
(42.3474 -1.69685e-07 0)
(42.3541 -1.94125e-07 0)
(42.3617 -2.13364e-07 0)
(42.37 -2.28345e-07 0)
(42.379 -2.38707e-07 0)
(42.3883 -2.44667e-07 0)
(42.3979 -2.46231e-07 0)
(42.4075 -2.43234e-07 0)
(42.4169 -2.36273e-07 0)
(42.4261 -2.25311e-07 0)
(42.4347 -2.12352e-07 0)
(42.4429 -1.95479e-07 0)
(42.4503 -1.78119e-07 0)
(42.4571 -1.59043e-07 0)
(42.4631 -1.39301e-07 0)
(42.4683 -1.19607e-07 0)
(42.4727 -9.96438e-08 0)
(42.4764 -7.96306e-08 0)
(42.4794 -6.05804e-08 0)
(42.4816 -4.24222e-08 0)
(42.4833 -2.55219e-08 0)
(42.4844 -9.83253e-09 0)
(42.4851 4.97176e-09 0)
(42.4853 1.50782e-08 0)
(42.4853 2.27953e-08 0)
(42.485 2.93707e-08 0)
(42.4845 3.71094e-08 0)
(42.4839 3.48849e-08 0)
(42.4835 -4.00543e-08 0)
(42.4829 1.22892e-07 0)
(42.4823 7.17708e-08 0)
(42.482 6.47851e-08 0)
(42.482 7.85218e-08 0)
(42.4822 8.69826e-08 0)
(42.4828 9.11982e-08 0)
(42.4839 9.68319e-08 0)
(42.4854 1.04853e-07 0)
(42.4874 1.14178e-07 0)
(42.4899 1.23294e-07 0)
(42.493 1.33258e-07 0)
(42.4967 1.43057e-07 0)
(42.501 1.52374e-07 0)
(42.5059 1.62059e-07 0)
(42.5115 1.70287e-07 0)
(42.5176 1.78636e-07 0)
(42.5242 1.85757e-07 0)
(42.5314 1.91911e-07 0)
(42.5389 1.96628e-07 0)
(42.5469 1.99231e-07 0)
(42.5551 2.00781e-07 0)
(42.5635 1.9922e-07 0)
(42.5719 1.96085e-07 0)
(42.5802 1.89996e-07 0)
(42.5884 1.81381e-07 0)
(42.5963 1.70437e-07 0)
(42.6037 1.56505e-07 0)
(42.6105 1.40653e-07 0)
(42.6166 1.22463e-07 0)
(42.6219 1.01979e-07 0)
(42.6263 8.15822e-08 0)
(42.6297 5.75592e-08 0)
(42.632 3.52826e-08 0)
(42.6332 1.07481e-08 0)
(42.6333 -3.06586e-08 0)
(42.6321 -6.86958e-08 0)
(42.6296 -8.28875e-08 0)
(42.6259 -1.0775e-07 0)
(42.6211 -1.29916e-07 0)
(42.6152 -1.50048e-07 0)
(42.6083 -1.67675e-07 0)
(42.6005 -1.82557e-07 0)
(42.5919 -1.94944e-07 0)
(42.5826 -2.04898e-07 0)
(42.5728 -2.12272e-07 0)
(42.5624 -2.17027e-07 0)
(42.5518 -2.19166e-07 0)
(42.5408 -2.18801e-07 0)
(42.5298 -2.16055e-07 0)
(42.5188 -2.11098e-07 0)
(42.5079 -2.04139e-07 0)
(42.4972 -1.95407e-07 0)
(42.4867 -1.85198e-07 0)
(42.4767 -1.7367e-07 0)
(42.467 -1.6116e-07 0)
(42.4578 -1.4775e-07 0)
(42.4491 -1.33779e-07 0)
(42.4409 -1.18606e-07 0)
(42.4333 -9.97594e-08 0)
(42.4262 -6.29382e-08 0)
(42.4197 5.74725e-08 0)
(42.4138 6.34223e-07 0)
(42.4083 3.40748e-06 0)
(42.4031 1.71415e-05 0)
(42.3972 8.50688e-05 0)
(42.3859 0.000419409 0)
(42.348 0.00203362 0)
(42.1815 0.00952344 0)
(41.7084 0.0467967 0)
(37.2739 0.160284 0)
(42.6918 0.000369425 0)
(42.672 0.000239422 0)
(42.6499 0.000231685 0)
(42.6295 0.00023551 0)
(42.6099 0.000236937 0)
(42.5908 0.000237896 0)
(42.5725 0.000238859 0)
(42.555 0.000239779 0)
(42.5385 0.000240636 0)
(42.5233 0.000241398 0)
(42.5094 0.000241985 0)
(42.497 0.000242246 0)
(42.4863 0.000241992 0)
(42.4772 0.000240928 0)
(42.4699 0.000238567 0)
(42.4644 0.000234644 0)
(42.4607 0.000228495 0)
(42.4587 0.000219938 0)
(42.4584 0.000208691 0)
(42.4597 0.000194766 0)
(42.4625 0.000178393 0)
(42.4667 0.000160096 0)
(42.4722 0.000140567 0)
(42.4789 0.000120618 0)
(42.4864 0.000101055 0)
(42.4946 8.26058e-05 0)
(42.5034 6.58831e-05 0)
(42.5124 5.12362e-05 0)
(42.5216 3.88545e-05 0)
(42.5308 2.8731e-05 0)
(42.5397 2.07159e-05 0)
(42.5483 1.45674e-05 0)
(42.5564 9.99073e-06 0)
(42.564 6.68367e-06 0)
(42.5709 4.3622e-06 0)
(42.5772 2.77965e-06 0)
(42.5827 1.7309e-06 0)
(42.5876 1.05693e-06 0)
(42.5917 6.4117e-07 0)
(42.5952 3.95143e-07 0)
(42.598 2.50647e-07 0)
(42.6003 1.6608e-07 0)
(42.602 1.18734e-07 0)
(42.6033 9.46962e-08 0)
(42.6041 8.36024e-08 0)
(42.6046 8.00105e-08 0)
(42.6048 7.99075e-08 0)
(42.6047 7.93053e-08 0)
(42.6045 8.14968e-08 0)
(42.6041 8.35293e-08 0)
(42.6036 8.45386e-08 0)
(42.603 8.49976e-08 0)
(42.6024 8.52763e-08 0)
(42.6016 8.57207e-08 0)
(42.6008 8.61731e-08 0)
(42.6 8.63914e-08 0)
(42.5991 8.61832e-08 0)
(42.5981 8.59036e-08 0)
(42.5971 8.62204e-08 0)
(42.5959 8.7149e-08 0)
(42.5947 8.87786e-08 0)
(42.5933 9.09897e-08 0)
(42.5916 9.37884e-08 0)
(42.5898 9.7212e-08 0)
(42.5877 1.01344e-07 0)
(42.5853 1.06248e-07 0)
(42.5825 1.11868e-07 0)
(42.5793 1.18224e-07 0)
(42.5757 1.253e-07 0)
(42.5715 1.33167e-07 0)
(42.5668 1.41627e-07 0)
(42.5615 1.50742e-07 0)
(42.5556 1.60308e-07 0)
(42.549 1.70234e-07 0)
(42.5416 1.80333e-07 0)
(42.5336 1.90335e-07 0)
(42.5248 1.99958e-07 0)
(42.5154 2.0879e-07 0)
(42.5052 2.16569e-07 0)
(42.4944 2.22958e-07 0)
(42.4831 2.27635e-07 0)
(42.4713 2.30242e-07 0)
(42.4591 2.30512e-07 0)
(42.4466 2.28192e-07 0)
(42.4341 2.23161e-07 0)
(42.4215 2.16189e-07 0)
(42.4092 2.00117e-07 0)
(42.3973 1.90445e-07 0)
(42.3859 1.76012e-07 0)
(42.3753 1.5198e-07 0)
(42.3656 1.24718e-07 0)
(42.357 9.58401e-08 0)
(42.3496 6.81232e-08 0)
(42.3435 4.03003e-08 0)
(42.3389 1.11052e-08 0)
(42.3358 -1.847e-08 0)
(42.3343 -4.20224e-08 0)
(42.3342 -5.31469e-08 0)
(42.3356 -9.45775e-08 0)
(42.3384 -1.23518e-07 0)
(42.3426 -1.47966e-07 0)
(42.3481 -1.68688e-07 0)
(42.3547 -1.86316e-07 0)
(42.3623 -1.99344e-07 0)
(42.3707 -2.08474e-07 0)
(42.3796 -2.13468e-07 0)
(42.389 -2.14559e-07 0)
(42.3986 -2.11974e-07 0)
(42.4081 -2.05758e-07 0)
(42.4176 -1.96339e-07 0)
(42.4267 -1.8382e-07 0)
(42.4354 -1.69917e-07 0)
(42.4435 -1.53185e-07 0)
(42.451 -1.36383e-07 0)
(42.4577 -1.1844e-07 0)
(42.4637 -1.00387e-07 0)
(42.4689 -8.30506e-08 0)
(42.4734 -6.64793e-08 0)
(42.477 -5.09794e-08 0)
(42.48 -3.7245e-08 0)
(42.4823 -2.516e-08 0)
(42.484 -1.47981e-08 0)
(42.4851 -6.17689e-09 0)
(42.4857 9.33847e-11 0)
(42.486 7.08563e-09 0)
(42.4859 1.3761e-08 0)
(42.4856 1.96152e-08 0)
(42.4851 2.60116e-08 0)
(42.4845 2.02532e-08 0)
(42.4841 -3.49157e-08 0)
(42.4836 9.21533e-08 0)
(42.483 3.85835e-08 0)
(42.4826 3.05582e-08 0)
(42.4826 3.96887e-08 0)
(42.4829 4.4421e-08 0)
(42.4835 4.59149e-08 0)
(42.4845 4.87349e-08 0)
(42.486 5.3604e-08 0)
(42.488 5.97101e-08 0)
(42.4905 6.60312e-08 0)
(42.4936 7.33912e-08 0)
(42.4974 8.10397e-08 0)
(42.5017 8.87154e-08 0)
(42.5066 9.69542e-08 0)
(42.5121 1.04256e-07 0)
(42.5182 1.11781e-07 0)
(42.5249 1.18343e-07 0)
(42.532 1.24158e-07 0)
(42.5396 1.28796e-07 0)
(42.5475 1.31806e-07 0)
(42.5557 1.33901e-07 0)
(42.5641 1.33477e-07 0)
(42.5725 1.31731e-07 0)
(42.5809 1.27485e-07 0)
(42.589 1.2115e-07 0)
(42.5969 1.1271e-07 0)
(42.6043 1.01823e-07 0)
(42.6111 8.91243e-08 0)
(42.6172 7.4315e-08 0)
(42.6225 5.76388e-08 0)
(42.6269 4.06458e-08 0)
(42.6303 2.0851e-08 0)
(42.6326 4.11005e-09 0)
(42.6339 -6.50896e-09 0)
(42.6339 -3.13694e-08 0)
(42.6327 -6.14154e-08 0)
(42.6302 -7.00004e-08 0)
(42.6265 -8.94893e-08 0)
(42.6217 -1.0773e-07 0)
(42.6158 -1.24964e-07 0)
(42.6089 -1.40557e-07 0)
(42.6012 -1.54027e-07 0)
(42.5926 -1.65311e-07 0)
(42.5833 -1.74405e-07 0)
(42.5734 -1.81258e-07 0)
(42.5631 -1.85877e-07 0)
(42.5524 -1.88253e-07 0)
(42.5415 -1.88459e-07 0)
(42.5305 -1.86616e-07 0)
(42.5194 -1.829e-07 0)
(42.5085 -1.77421e-07 0)
(42.4978 -1.704e-07 0)
(42.4874 -1.62107e-07 0)
(42.4773 -1.52595e-07 0)
(42.4676 -1.42244e-07 0)
(42.4584 -1.3095e-07 0)
(42.4497 -1.1912e-07 0)
(42.4416 -1.05435e-07 0)
(42.434 -8.54307e-08 0)
(42.4269 -3.33768e-08 0)
(42.4204 1.71655e-07 0)
(42.4144 1.16565e-06 0)
(42.4089 6.08752e-06 0)
(42.4037 3.05394e-05 0)
(42.3978 0.000151528 0)
(42.3867 0.000747218 0)
(42.3494 0.00362616 0)
(42.1857 0.01698 0)
(41.7248 0.0832231 0)
(37.391 0.281486 0)
(42.6918 0.000375539 0)
(42.672 0.00027739 0)
(42.6499 0.000271412 0)
(42.6295 0.000276304 0)
(42.6099 0.000277319 0)
(42.5908 0.000277471 0)
(42.5725 0.00027751 0)
(42.555 0.0002774 0)
(42.5385 0.00027715 0)
(42.5233 0.000276761 0)
(42.5094 0.000276174 0)
(42.497 0.000275245 0)
(42.4863 0.000273781 0)
(42.4772 0.000271472 0)
(42.4699 0.000267818 0)
(42.4644 0.000262515 0)
(42.4607 0.000254898 0)
(42.4587 0.000244727 0)
(42.4584 0.000231732 0)
(42.4597 0.000215918 0)
(42.4625 0.00019753 0)
(42.4667 0.00017713 0)
(42.4722 0.000155458 0)
(42.4789 0.000133384 0)
(42.4864 0.000111773 0)
(42.4946 9.14126e-05 0)
(42.5034 7.29579e-05 0)
(42.5124 5.67914e-05 0)
(42.5216 4.31171e-05 0)
(42.5308 3.19277e-05 0)
(42.5397 2.30595e-05 0)
(42.5483 1.62486e-05 0)
(42.5564 1.11724e-05 0)
(42.564 7.49921e-06 0)
(42.5709 4.91612e-06 0)
(42.5772 3.15136e-06 0)
(42.5827 1.97877e-06 0)
(42.5876 1.22071e-06 0)
(42.5917 7.44115e-07 0)
(42.5952 4.50919e-07 0)
(42.598 2.70447e-07 0)
(42.6003 1.70279e-07 0)
(42.602 1.18908e-07 0)
(42.6033 9.42953e-08 0)
(42.6041 8.35224e-08 0)
(42.6046 8.03049e-08 0)
(42.6048 8.07236e-08 0)
(42.6047 8.07341e-08 0)
(42.6045 8.35313e-08 0)
(42.6041 8.62299e-08 0)
(42.6036 8.7903e-08 0)
(42.603 8.91272e-08 0)
(42.6024 9.01747e-08 0)
(42.6016 9.13818e-08 0)
(42.6008 9.25634e-08 0)
(42.6 9.34933e-08 0)
(42.5991 9.39667e-08 0)
(42.5981 9.42876e-08 0)
(42.5971 9.51296e-08 0)
(42.5959 9.65805e-08 0)
(42.5947 9.87186e-08 0)
(42.5933 1.01414e-07 0)
(42.5916 1.04693e-07 0)
(42.5898 1.0858e-07 0)
(42.5877 1.1314e-07 0)
(42.5853 1.18383e-07 0)
(42.5825 1.24312e-07 0)
(42.5793 1.30972e-07 0)
(42.5757 1.38352e-07 0)
(42.5715 1.46499e-07 0)
(42.5668 1.55275e-07 0)
(42.5615 1.64738e-07 0)
(42.5556 1.74715e-07 0)
(42.549 1.85104e-07 0)
(42.5416 1.95773e-07 0)
(42.5336 2.06421e-07 0)
(42.5248 2.16813e-07 0)
(42.5154 2.26519e-07 0)
(42.5052 2.35295e-07 0)
(42.4944 2.42789e-07 0)
(42.4831 2.48683e-07 0)
(42.4713 2.52624e-07 0)
(42.4591 2.54348e-07 0)
(42.4466 2.53565e-07 0)
(42.4341 2.50169e-07 0)
(42.4215 2.44926e-07 0)
(42.4092 2.30458e-07 0)
(42.3973 2.22473e-07 0)
(42.3859 2.11371e-07 0)
(42.3753 1.90685e-07 0)
(42.3656 1.66049e-07 0)
(42.357 1.39988e-07 0)
(42.3496 1.15179e-07 0)
(42.3435 9.00366e-08 0)
(42.3389 6.26597e-08 0)
(42.3358 3.3272e-08 0)
(42.3343 1.71718e-09 0)
(42.3342 -1.22889e-08 0)
(42.3356 -5.29185e-08 0)
(42.3384 -8.23603e-08 0)
(42.3426 -1.07454e-07 0)
(42.3481 -1.29264e-07 0)
(42.3547 -1.47903e-07 0)
(42.3623 -1.62483e-07 0)
(42.3707 -1.73573e-07 0)
(42.3796 -1.8087e-07 0)
(42.389 -1.84508e-07 0)
(42.3986 -1.84491e-07 0)
(42.4081 -1.80957e-07 0)
(42.4176 -1.74417e-07 0)
(42.4267 -1.6475e-07 0)
(42.4354 -1.5365e-07 0)
(42.4435 -1.39582e-07 0)
(42.451 -1.25208e-07 0)
(42.4577 -1.09582e-07 0)
(42.4637 -9.36867e-08 0)
(42.4689 -7.82386e-08 0)
(42.4734 -6.32461e-08 0)
(42.477 -4.88553e-08 0)
(42.48 -3.57673e-08 0)
(42.4823 -2.37495e-08 0)
(42.484 -1.28742e-08 0)
(42.4851 -3.13878e-09 0)
(42.4857 5.79223e-09 0)
(42.486 1.40836e-08 0)
(42.4859 2.11811e-08 0)
(42.4856 2.72668e-08 0)
(42.4851 3.4773e-08 0)
(42.4845 3.53751e-08 0)
(42.4841 -2.0464e-08 0)
(42.4836 1.01983e-07 0)
(42.483 5.92222e-08 0)
(42.4826 5.47647e-08 0)
(42.4826 6.59463e-08 0)
(42.4829 7.24679e-08 0)
(42.4835 7.54615e-08 0)
(42.4845 7.96476e-08 0)
(42.486 8.57613e-08 0)
(42.488 9.28934e-08 0)
(42.4905 9.99385e-08 0)
(42.4936 1.07741e-07 0)
(42.4974 1.15547e-07 0)
(42.5017 1.23082e-07 0)
(42.5066 1.30968e-07 0)
(42.5121 1.37698e-07 0)
(42.5182 1.44371e-07 0)
(42.5249 1.50002e-07 0)
(42.532 1.54704e-07 0)
(42.5396 1.58158e-07 0)
(42.5475 1.59817e-07 0)
(42.5557 1.60622e-07 0)
(42.5641 1.5889e-07 0)
(42.5725 1.55767e-07 0)
(42.5809 1.50278e-07 0)
(42.5891 1.42576e-07 0)
(42.5969 1.3311e-07 0)
(42.6043 1.21003e-07 0)
(42.6111 1.07411e-07 0)
(42.6172 9.18477e-08 0)
(42.6225 7.40626e-08 0)
(42.6269 5.62023e-08 0)
(42.6303 3.4679e-08 0)
(42.6326 1.45249e-08 0)
(42.6339 -6.73822e-09 0)
(42.6339 -3.45584e-08 0)
(42.6327 -6.38977e-08 0)
(42.6302 -7.27703e-08 0)
(42.6265 -9.15468e-08 0)
(42.6217 -1.09164e-07 0)
(42.6158 -1.25748e-07 0)
(42.6089 -1.40609e-07 0)
(42.6012 -1.53286e-07 0)
(42.5926 -1.63776e-07 0)
(42.5833 -1.72068e-07 0)
(42.5734 -1.78121e-07 0)
(42.5631 -1.81944e-07 0)
(42.5524 -1.83561e-07 0)
(42.5415 -1.83026e-07 0)
(42.5305 -1.80479e-07 0)
(42.5194 -1.76094e-07 0)
(42.5085 -1.70004e-07 0)
(42.4978 -1.62383e-07 0)
(42.4874 -1.53583e-07 0)
(42.4773 -1.43595e-07 0)
(42.4676 -1.3286e-07 0)
(42.4584 -1.21163e-07 0)
(42.4497 -1.08979e-07 0)
(42.4416 -9.43413e-08 0)
(42.434 -7.04587e-08 0)
(42.4269 -3.907e-10 0)
(42.4204 3.08219e-07 0)
(42.4144 1.79137e-06 0)
(42.4089 9.14529e-06 0)
(42.4037 4.57003e-05 0)
(42.3978 0.000226609 0)
(42.3868 0.00111764 0)
(42.3497 0.00542842 0)
(42.1871 0.0254091 0)
(41.7299 0.124416 0)
(37.4974 0.416293 0)
(42.6918 0.000352212 0)
(42.672 0.00025258 0)
(42.6499 0.000234501 0)
(42.6294 0.000235363 0)
(42.6099 0.000234067 0)
(42.5908 0.00023294 0)
(42.5724 0.000232448 0)
(42.555 0.000232243 0)
(42.5385 0.000232175 0)
(42.5233 0.000232156 0)
(42.5094 0.000232077 0)
(42.497 0.000231772 0)
(42.4863 0.000231047 0)
(42.4772 0.000229615 0)
(42.4699 0.00022702 0)
(42.4644 0.000222992 0)
(42.4607 0.000216944 0)
(42.4587 0.000208643 0)
(42.4584 0.000197865 0)
(42.4597 0.0001846 0)
(42.4625 0.000169057 0)
(42.4667 0.000151724 0)
(42.4722 0.000133244 0)
(42.4788 0.000114374 0)
(42.4864 9.58681e-05 0)
(42.4946 7.84121e-05 0)
(42.5034 6.25803e-05 0)
(42.5124 4.87046e-05 0)
(42.5216 3.69659e-05 0)
(42.5308 2.73599e-05 0)
(42.5397 1.9747e-05 0)
(42.5483 1.39016e-05 0)
(42.5564 9.54616e-06 0)
(42.564 6.39555e-06 0)
(42.5709 4.18074e-06 0)
(42.5772 2.66855e-06 0)
(42.5827 1.66447e-06 0)
(42.5876 1.01607e-06 0)
(42.5917 6.1007e-07 0)
(42.5952 3.64629e-07 0)
(42.598 2.24338e-07 0)
(42.6003 1.45972e-07 0)
(42.602 1.03233e-07 0)
(42.6033 8.17889e-08 0)
(42.6041 7.2226e-08 0)
(42.6046 6.95701e-08 0)
(42.6048 7.0152e-08 0)
(42.6047 7.02746e-08 0)
(42.6045 7.29381e-08 0)
(42.6041 7.55241e-08 0)
(42.6036 7.70519e-08 0)
(42.603 7.81553e-08 0)
(42.6024 7.90664e-08 0)
(42.6016 8.00843e-08 0)
(42.6008 8.10173e-08 0)
(42.6 8.1664e-08 0)
(42.5991 8.19095e-08 0)
(42.5981 8.20944e-08 0)
(42.5971 8.27265e-08 0)
(42.5959 8.38918e-08 0)
(42.5947 8.56894e-08 0)
(42.5933 8.80216e-08 0)
(42.5916 9.08985e-08 0)
(42.5898 9.43867e-08 0)
(42.5877 9.84966e-08 0)
(42.5853 1.03265e-07 0)
(42.5825 1.08712e-07 0)
(42.5793 1.14878e-07 0)
(42.5757 1.21749e-07 0)
(42.5715 1.2935e-07 0)
(42.5668 1.37545e-07 0)
(42.5615 1.46397e-07 0)
(42.5556 1.55736e-07 0)
(42.549 1.65454e-07 0)
(42.5416 1.75412e-07 0)
(42.5336 1.85346e-07 0)
(42.5248 1.94985e-07 0)
(42.5154 2.0396e-07 0)
(42.5052 2.11998e-07 0)
(42.4944 2.18808e-07 0)
(42.4831 2.24061e-07 0)
(42.4713 2.27415e-07 0)
(42.4591 2.28627e-07 0)
(42.4466 2.27394e-07 0)
(42.4341 2.23626e-07 0)
(42.4215 2.17734e-07 0)
(42.4092 2.03107e-07 0)
(42.3973 1.94311e-07 0)
(42.3859 1.82467e-07 0)
(42.3753 1.61004e-07 0)
(42.3656 1.35408e-07 0)
(42.357 1.08616e-07 0)
(42.3496 8.29472e-08 0)
(42.3435 5.68851e-08 0)
(42.3389 2.86316e-08 0)
(42.3358 -1.76848e-09 0)
(42.3343 -3.30162e-08 0)
(42.3342 -4.63028e-08 0)
(42.3356 -8.45111e-08 0)
(42.3384 -1.12876e-07 0)
(42.3426 -1.36532e-07 0)
(42.3481 -1.5721e-07 0)
(42.3547 -1.75022e-07 0)
(42.3623 -1.88757e-07 0)
(42.3707 -1.99005e-07 0)
(42.3796 -2.05573e-07 0)
(42.389 -2.08593e-07 0)
(42.3986 -2.0826e-07 0)
(42.4081 -2.04413e-07 0)
(42.4176 -1.9748e-07 0)
(42.4267 -1.87556e-07 0)
(42.4354 -1.76077e-07 0)
(42.4435 -1.61708e-07 0)
(42.451 -1.46973e-07 0)
(42.4577 -1.30941e-07 0)
(42.4637 -1.14534e-07 0)
(42.4689 -9.85464e-08 0)
(42.4734 -8.28946e-08 0)
(42.477 -6.77833e-08 0)
(42.48 -5.38732e-08 0)
(42.4823 -4.09623e-08 0)
(42.484 -2.91103e-08 0)
(42.4851 -1.81563e-08 0)
(42.4857 -6.38104e-09 0)
(42.486 2.15392e-09 0)
(42.4859 8.84991e-09 0)
(42.4856 1.45439e-08 0)
(42.4851 2.11147e-08 0)
(42.4845 1.66868e-08 0)
(42.4841 -3.59733e-08 0)
(42.4836 7.84718e-08 0)
(42.483 4.06412e-08 0)
(42.4826 3.48432e-08 0)
(42.4826 4.4623e-08 0)
(42.4829 5.04715e-08 0)
(42.4835 5.31252e-08 0)
(42.4845 5.69285e-08 0)
(42.486 6.26757e-08 0)
(42.488 6.95759e-08 0)
(42.4905 7.64147e-08 0)
(42.4936 8.40961e-08 0)
(42.4974 9.18985e-08 0)
(42.5017 9.95413e-08 0)
(42.5066 1.07595e-07 0)
(42.5121 1.14613e-07 0)
(42.5182 1.21589e-07 0)
(42.5249 1.27602e-07 0)
(42.532 1.32816e-07 0)
(42.5396 1.36818e-07 0)
(42.5475 1.39133e-07 0)
(42.5557 1.40541e-07 0)
(42.5641 1.39667e-07 0)
(42.5725 1.37374e-07 0)
(42.5809 1.32824e-07 0)
(42.5891 1.26159e-07 0)
(42.5969 1.1775e-07 0)
(42.6043 1.06834e-07 0)
(42.6111 9.4446e-08 0)
(42.6172 8.00985e-08 0)
(42.6225 6.3695e-08 0)
(42.6269 4.72386e-08 0)
(42.6303 2.75475e-08 0)
(42.6326 9.48942e-09 0)
(42.6339 -9.8305e-09 0)
(42.6339 -3.71243e-08 0)
(42.6327 -6.50484e-08 0)
(42.6302 -7.42773e-08 0)
(42.6265 -9.26049e-08 0)
(42.6217 -1.09919e-07 0)
(42.6158 -1.26203e-07 0)
(42.6089 -1.40808e-07 0)
(42.6012 -1.53298e-07 0)
(42.5926 -1.63682e-07 0)
(42.5833 -1.71965e-07 0)
(42.5734 -1.78096e-07 0)
(42.5631 -1.82074e-07 0)
(42.5524 -1.83903e-07 0)
(42.5415 -1.83686e-07 0)
(42.5305 -1.81546e-07 0)
(42.5194 -1.77632e-07 0)
(42.5085 -1.72054e-07 0)
(42.4978 -1.65033e-07 0)
(42.4874 -1.56888e-07 0)
(42.4773 -1.47561e-07 0)
(42.4676 -1.3753e-07 0)
(42.4584 -1.26458e-07 0)
(42.4497 -1.14861e-07 0)
(42.4416 -9.99303e-08 0)
(42.434 -7.19742e-08 0)
(42.4269 2.06752e-08 0)
(42.4204 4.37881e-07 0)
(42.4144 2.47575e-06 0)
(42.4089 1.26013e-05 0)
(42.4037 6.29525e-05 0)
(42.3979 0.000312169 0)
(42.3869 0.00154 0)
(42.3501 0.00748535 0)
(42.1892 0.0350173 0)
(41.7371 0.171048 0)
(37.6153 0.565929 0)
(42.6917 0.000330751 0)
(42.6719 0.000245618 0)
(42.6499 0.000230689 0)
(42.6294 0.000236687 0)
(42.6099 0.000238641 0)
(42.5908 0.000239398 0)
(42.5724 0.0002401 0)
(42.5549 0.000240636 0)
(42.5385 0.000240999 0)
(42.5233 0.000241203 0)
(42.5094 0.0002412 0)
(42.497 0.000240868 0)
(42.4862 0.000240035 0)
(42.4772 0.000238429 0)
(42.4699 0.000235611 0)
(42.4644 0.000231299 0)
(42.4607 0.000224931 0)
(42.4587 0.000216244 0)
(42.4584 0.000205028 0)
(42.4597 0.000191271 0)
(42.4625 0.000175183 0)
(42.4667 0.000157262 0)
(42.4722 0.000138163 0)
(42.4788 0.000118662 0)
(42.4864 9.95298e-05 0)
(42.4946 8.14736e-05 0)
(42.5034 6.50826e-05 0)
(42.5124 5.07042e-05 0)
(42.5216 3.85274e-05 0)
(42.5308 2.85518e-05 0)
(42.5397 2.06366e-05 0)
(42.5483 1.45514e-05 0)
(42.5564 1.00114e-05 0)
(42.564 6.72288e-06 0)
(42.5709 4.40778e-06 0)
(42.5772 2.8248e-06 0)
(42.5827 1.77207e-06 0)
(42.5876 1.09123e-06 0)
(42.5917 6.63989e-07 0)
(42.5952 4.038e-07 0)
(42.598 2.49204e-07 0)
(42.6003 1.61248e-07 0)
(42.602 1.1435e-07 0)
(42.6033 9.115e-08 0)
(42.6041 8.06922e-08 0)
(42.6046 7.73213e-08 0)
(42.6048 7.72989e-08 0)
(42.6047 7.72585e-08 0)
(42.6045 7.94554e-08 0)
(42.6041 8.18617e-08 0)
(42.6036 8.32493e-08 0)
(42.603 8.4164e-08 0)
(42.6024 8.49037e-08 0)
(42.6016 8.584e-08 0)
(42.6008 8.67561e-08 0)
(42.6 8.73887e-08 0)
(42.5991 8.75753e-08 0)
(42.5981 8.7666e-08 0)
(42.5971 8.82248e-08 0)
(42.5959 8.93255e-08 0)
(42.5947 9.105e-08 0)
(42.5933 9.32693e-08 0)
(42.5916 9.59792e-08 0)
(42.5898 9.92675e-08 0)
(42.5877 1.03181e-07 0)
(42.5853 1.07752e-07 0)
(42.5825 1.1297e-07 0)
(42.5793 1.18823e-07 0)
(42.5757 1.2535e-07 0)
(42.5715 1.32599e-07 0)
(42.5668 1.4042e-07 0)
(42.5615 1.48846e-07 0)
(42.5556 1.57763e-07 0)
(42.549 1.67045e-07 0)
(42.5416 1.76558e-07 0)
(42.5336 1.86058e-07 0)
(42.5248 1.95293e-07 0)
(42.5154 2.03913e-07 0)
(42.5052 2.11659e-07 0)
(42.4944 2.18233e-07 0)
(42.4831 2.23336e-07 0)
(42.4713 2.26639e-07 0)
(42.4591 2.27891e-07 0)
(42.4466 2.26854e-07 0)
(42.4341 2.23474e-07 0)
(42.4215 2.18101e-07 0)
(42.4092 2.0485e-07 0)
(42.3973 1.96791e-07 0)
(42.3859 1.86197e-07 0)
(42.3753 1.66557e-07 0)
(42.3656 1.42826e-07 0)
(42.357 1.18152e-07 0)
(42.3496 9.45665e-08 0)
(42.3435 7.06226e-08 0)
(42.3389 4.4723e-08 0)
(42.3358 1.73146e-08 0)
(42.3343 -9.08841e-09 0)
(42.3342 -2.13923e-08 0)
(42.3356 -5.72216e-08 0)
(42.3384 -8.45702e-08 0)
(42.3426 -1.06863e-07 0)
(42.3481 -1.26371e-07 0)
(42.3547 -1.43337e-07 0)
(42.3623 -1.56495e-07 0)
(42.3707 -1.66283e-07 0)
(42.3796 -1.72512e-07 0)
(42.389 -1.75301e-07 0)
(42.3986 -1.74965e-07 0)
(42.4081 -1.71304e-07 0)
(42.4176 -1.64663e-07 0)
(42.4267 -1.55222e-07 0)
(42.4354 -1.44269e-07 0)
(42.4435 -1.30736e-07 0)
(42.451 -1.16841e-07 0)
(42.4577 -1.01775e-07 0)
(42.4637 -8.63432e-08 0)
(42.4689 -7.13409e-08 0)
(42.4734 -5.67589e-08 0)
(42.477 -4.28404e-08 0)
(42.48 -3.01368e-08 0)
(42.4823 -1.86305e-08 0)
(42.484 -8.35235e-09 0)
(42.4851 5.77823e-10 0)
(42.4857 8.1255e-09 0)
(42.486 1.46475e-08 0)
(42.4859 2.08218e-08 0)
(42.4856 2.62196e-08 0)
(42.4851 3.28325e-08 0)
(42.4845 2.97856e-08 0)
(42.4841 -1.65886e-08 0)
(42.4836 8.73659e-08 0)
(42.483 5.29308e-08 0)
(42.4826 4.65181e-08 0)
(42.4826 5.54018e-08 0)
(42.4829 6.07518e-08 0)
(42.4835 6.3021e-08 0)
(42.4845 6.63991e-08 0)
(42.486 7.15921e-08 0)
(42.488 7.78065e-08 0)
(42.4905 8.40527e-08 0)
(42.4936 9.10431e-08 0)
(42.4974 9.80919e-08 0)
(42.5017 1.05079e-07 0)
(42.5066 1.12319e-07 0)
(42.5121 1.18714e-07 0)
(42.5182 1.25081e-07 0)
(42.5249 1.30462e-07 0)
(42.532 1.35177e-07 0)
(42.5396 1.38658e-07 0)
(42.5475 1.4079e-07 0)
(42.5557 1.41808e-07 0)
(42.5641 1.40807e-07 0)
(42.5725 1.38444e-07 0)
(42.5809 1.33826e-07 0)
(42.5891 1.27433e-07 0)
(42.5969 1.19038e-07 0)
(42.6043 1.08552e-07 0)
(42.6111 9.63409e-08 0)
(42.6172 8.22655e-08 0)
(42.6225 6.66046e-08 0)
(42.6269 5.07392e-08 0)
(42.6303 3.23074e-08 0)
(42.6326 1.53038e-08 0)
(42.6339 -2.47469e-09 0)
(42.6339 -2.84919e-08 0)
(42.6327 -5.42503e-08 0)
(42.6302 -6.31231e-08 0)
(42.6265 -8.02147e-08 0)
(42.6217 -9.64687e-08 0)
(42.6158 -1.11739e-07 0)
(42.6089 -1.25447e-07 0)
(42.6012 -1.37175e-07 0)
(42.5926 -1.4691e-07 0)
(42.5833 -1.54649e-07 0)
(42.5734 -1.60352e-07 0)
(42.5631 -1.64018e-07 0)
(42.5524 -1.65658e-07 0)
(42.5415 -1.65365e-07 0)
(42.5305 -1.63235e-07 0)
(42.5194 -1.59427e-07 0)
(42.5085 -1.54036e-07 0)
(42.4978 -1.47246e-07 0)
(42.4874 -1.39444e-07 0)
(42.4773 -1.3047e-07 0)
(42.4676 -1.20895e-07 0)
(42.4584 -1.10185e-07 0)
(42.4497 -9.89415e-08 0)
(42.4416 -8.34853e-08 0)
(42.434 -5.13244e-08 0)
(42.4269 6.64127e-08 0)
(42.4204 6.0919e-07 0)
(42.4144 3.27699e-06 0)
(42.4089 1.65484e-05 0)
(42.4037 8.2561e-05 0)
(42.3979 0.000409327 0)
(42.387 0.00201968 0)
(42.3508 0.00982345 0)
(42.1925 0.0459187 0)
(41.7479 0.223548 0)
(37.7544 0.728721 0)
(42.6917 0.000273668 0)
(42.6719 0.000212287 0)
(42.6498 0.000193551 0)
(42.6294 0.00019679 0)
(42.6098 0.000196148 0)
(42.5908 0.00019413 0)
(42.5724 0.000192444 0)
(42.5549 0.000190974 0)
(42.5385 0.000189646 0)
(42.5232 0.000188435 0)
(42.5094 0.00018727 0)
(42.497 0.000186021 0)
(42.4862 0.000184529 0)
(42.4771 0.000182564 0)