/*--------------------------------*- C++ -*----------------------------------*\
| =========                 |                                                 |
| \\      /  F ield         | OpenFOAM: The Open Source CFD Toolbox           |
|  \\    /   O peration     | Version:  3.0.x                                 |
|   \\  /    A nd           | Web:      www.OpenFOAM.org                      |
|    \\/     M anipulation  |                                                 |
\*---------------------------------------------------------------------------*/
FoamFile
{
    version     2.0;
    format      ascii;
    class       surfaceScalarField;
    location    "0.08";
    object      phi;
}
// * * * * * * * * * * * * * * * * * * * * * * * * * * * * * * * * * * * * * //

dimensions      [1 0 -1 0 0 0 0];

internalField   nonuniform List<scalar> 
52430
(
3.90728
0.000243708
3.90653
0.000176401
3.90579
0.000169143
3.90505
0.000170503
3.90433
0.000170958
3.90361
0.000170907
3.90292
0.00017087
3.90225
0.000170867
3.9016
0.000170859
3.90097
0.000170837
3.90038
0.000170794
3.89981
0.000170712
3.89927
0.000170553
3.89876
0.000170257
3.89828
0.000169729
3.89783
0.00016884
3.89742
0.000167417
3.89704
0.000165256
3.89669
0.000162136
3.89638
0.000157842
3.8961
0.000152201
3.89586
0.000145105
3.89566
0.000136543
3.89549
0.000126626
3.89535
0.000115575
3.89525
0.000103679
3.89519
9.13455e-05
3.89515
7.89666e-05
3.89515
6.69394e-05
3.89517
5.56386e-05
3.89522
4.5317e-05
3.89529
3.61659e-05
3.89538
2.828e-05
3.89549
2.16668e-05
3.8956
1.62668e-05
3.89573
1.19692e-05
3.89586
8.63288e-06
3.896
6.10567e-06
3.89614
4.23598e-06
3.89628
2.88432e-06
3.89643
1.92937e-06
3.89657
1.26979e-06
3.8967
8.24428e-07
3.89683
5.30459e-07
3.89696
3.41135e-07
3.89708
2.22482e-07
3.8972
1.5043e-07
3.8973
1.08455e-07
3.8974
8.53106e-08
3.8975
7.39074e-08
3.89758
6.95582e-08
3.89766
6.93344e-08
3.89774
7.14372e-08
3.8978
7.46968e-08
3.89786
7.85622e-08
3.89791
8.26676e-08
3.89795
8.67985e-08
3.89799
9.08312e-08
3.89802
9.46493e-08
3.89805
9.82473e-08
3.89807
1.01634e-07
3.89808
1.04812e-07
3.8981
1.07781e-07
3.89811
1.10516e-07
3.89811
1.1301e-07
3.89811
1.15302e-07
3.89811
1.17407e-07
3.89811
1.19346e-07
3.8981
1.21121e-07
3.89809
1.22667e-07
3.89809
1.24106e-07
3.89808
1.25359e-07
3.89807
1.26505e-07
3.89806
1.27542e-07
3.89804
1.2845e-07
3.89803
1.29239e-07
3.89802
1.29921e-07
3.89801
1.30525e-07
3.898
1.31065e-07
3.89799
1.31537e-07
3.89798
1.31928e-07
3.89797
1.32246e-07
3.89796
1.32512e-07
3.89795
1.32748e-07
3.89794
1.32954e-07
3.89794
1.3311e-07
3.89793
1.33223e-07
3.89792
1.33303e-07
3.89792
1.3337e-07
3.89792
1.33428e-07
3.89791
1.33468e-07
3.89791
1.33483e-07
3.89791
1.33476e-07
3.89791
1.33447e-07
3.89791
1.33447e-07
3.89791
1.33423e-07
3.89792
1.33401e-07
3.89792
1.33361e-07
3.89793
1.33314e-07
3.89793
1.33274e-07
3.89794
1.33246e-07
3.89794
1.33212e-07
3.89795
1.33172e-07
3.89796
1.33132e-07
3.89796
1.33092e-07
3.89797
1.3307e-07
3.89798
1.33045e-07
3.89799
1.33021e-07
3.898
1.32997e-07
3.89801
1.32974e-07
3.89802
1.32964e-07
3.89804
1.32963e-07
3.89805
1.32963e-07
3.89806
1.32964e-07
3.89807
1.32963e-07
3.89809
1.32972e-07
3.8981
1.32988e-07
3.89811
1.33012e-07
3.89812
1.33035e-07
3.89814
1.33059e-07
3.89815
1.33088e-07
3.89817
1.33125e-07
3.89818
1.33166e-07
3.89819
1.3321e-07
3.89821
1.33257e-07
3.89822
1.33305e-07
3.89824
1.33357e-07
3.89825
1.33412e-07
3.89826
1.33474e-07
3.89828
1.33537e-07
3.89829
1.33596e-07
3.89831
1.33661e-07
3.89832
1.33728e-07
3.89833
1.33801e-07
3.89835
1.33874e-07
3.89836
1.33943e-07
3.89837
1.34014e-07
3.89839
1.34087e-07
3.8984
1.34161e-07
3.89841
1.34234e-07
3.89843
1.34311e-07
3.89844
1.34381e-07
3.89845
1.34458e-07
3.89846
1.34536e-07
3.89848
1.34612e-07
3.89849
1.34687e-07
3.8985
1.34758e-07
3.89851
1.34834e-07
3.89852
1.34907e-07
3.89853
1.3498e-07
3.89854
1.35053e-07
3.89856
1.35122e-07
3.89857
1.35193e-07
3.89858
1.35262e-07
3.89859
1.35331e-07
3.8986
1.35398e-07
3.89861
1.35467e-07
3.89862
1.35531e-07
3.89863
1.35595e-07
3.89864
1.3566e-07
3.89865
1.35724e-07
3.89866
1.35784e-07
3.89866
1.35844e-07
3.89867
1.35902e-07
3.89868
1.35962e-07
3.89869
1.36024e-07
3.8987
1.3608e-07
3.89871
1.36135e-07
3.89872
1.36193e-07
3.89872
1.36246e-07
3.89873
1.36301e-07
3.89874
1.36353e-07
3.89875
1.36404e-07
3.89876
1.36453e-07
3.89876
1.36502e-07
3.89877
1.36553e-07
3.89878
1.36602e-07
3.89879
1.3665e-07
3.89879
1.36697e-07
3.8988
1.36743e-07
3.89881
1.36786e-07
3.89881
1.36835e-07
3.89882
1.36879e-07
3.89883
1.36921e-07
3.89883
1.36963e-07
3.89884
1.37006e-07
3.89885
1.37046e-07
3.89885
1.37088e-07
3.89886
1.37128e-07
3.89886
1.37163e-07
3.89887
1.37205e-07
3.89888
1.37243e-07
3.89888
1.37279e-07
3.89889
1.37317e-07
3.89889
1.37354e-07
3.8989
1.37392e-07
3.8989
1.37426e-07
3.89891
1.37461e-07
3.89892
1.37496e-07
3.89892
1.37534e-07
3.89893
1.37565e-07
3.89893
1.37597e-07
3.89894
1.37632e-07
3.89894
1.37663e-07
3.89895
1.37696e-07
3.89895
1.37728e-07
3.89896
1.37761e-07
3.89896
1.37792e-07
3.89897
1.37825e-07
3.89897
1.37858e-07
3.89897
1.37888e-07
3.89898
1.37919e-07
3.89898
1.37952e-07
3.89899
1.37981e-07
3.89899
1.38016e-07
3.899
1.38045e-07
3.899
1.38078e-07
3.899
1.38109e-07
3.89901
1.3814e-07
3.89901
1.38174e-07
3.89901
1.38205e-07
3.89902
1.38241e-07
3.89902
1.38274e-07
3.89902
1.38309e-07
3.89903
1.38341e-07
3.89903
1.38376e-07
3.89903
1.38411e-07
3.89904
1.38451e-07
3.89904
1.38489e-07
3.89904
1.38525e-07
3.89904
1.38569e-07
3.89905
1.38614e-07
3.89905
1.38662e-07
3.89905
1.38709e-07
3.89905
1.38758e-07
3.89905
1.38813e-07
3.89905
1.38876e-07
3.89905
1.38936e-07
3.89905
1.39005e-07
3.89905
1.39014e-07
3.89905
1.39116e-07
3.89905
1.38714e-07
3.89905
1.40009e-07
3.89905
1.39362e-07
3.89904
1.39547e-07
3.89904
1.39662e-07
3.89903
1.39726e-07
3.89903
1.40024e-07
3.89902
1.40104e-07
3.89901
1.40279e-07
3.899
1.4047e-07
3.89899
1.40681e-07
3.89898
1.40912e-07
3.89896
1.41163e-07
3.89895
1.41441e-07
3.89893
1.41745e-07
3.89891
1.4207e-07
3.89888
1.42431e-07
3.89886
1.42822e-07
3.89883
1.43253e-07
3.89879
1.43715e-07
3.89876
1.44215e-07
3.89872
1.44755e-07
3.89867
1.45348e-07
3.89862
1.45979e-07
3.89857
1.46667e-07
3.8985
1.47391e-07
3.89844
1.48179e-07
3.89836
1.49013e-07
3.89828
1.49907e-07
3.89819
1.50858e-07
3.8981
1.51869e-07
3.89799
1.52935e-07
3.89788
1.54059e-07
3.89776
1.55243e-07
3.89762
1.56491e-07
3.89748
1.57794e-07
3.89732
1.59151e-07
3.89716
1.6056e-07
3.89698
1.62021e-07
3.89678
1.63529e-07
3.89658
1.65082e-07
3.89636
1.66665e-07
3.89613
1.68286e-07
3.89588
1.69925e-07
3.89561
1.71574e-07
3.89533
1.73235e-07
3.89504
1.7489e-07
3.89473
1.76531e-07
3.8944
1.78141e-07
3.89406
1.79707e-07
3.8937
1.81222e-07
3.89332
1.82668e-07
3.89293
1.84029e-07
3.89252
1.85286e-07
3.8921
1.86421e-07
3.89166
1.87425e-07
3.89121
1.88276e-07
3.89075
1.88957e-07
3.89027
1.89446e-07
3.88978
1.89724e-07
3.88929
1.89781e-07
3.88878
1.89599e-07
3.88827
1.8916e-07
3.88774
1.88444e-07
3.88722
1.87438e-07
3.88669
1.8613e-07
3.88616
1.84513e-07
3.88564
1.8257e-07
3.88511
1.80302e-07
3.88459
1.77688e-07
3.88408
1.74739e-07
3.88358
1.71445e-07
3.88309
1.67815e-07
3.88261
1.63849e-07
3.88215
1.59554e-07
3.88171
1.54942e-07
3.88128
1.50018e-07
3.88088
1.44808e-07
3.88051
1.39327e-07
3.88016
1.33597e-07
3.87984
1.27637e-07
3.87956
1.21478e-07
3.8793
1.15149e-07
3.87908
1.08681e-07
3.87889
1.02111e-07
3.87874
9.54642e-08
3.87862
8.87831e-08
3.87854
8.21074e-08
3.8785
7.54972e-08
3.8785
7.01475e-08
3.87854
6.28224e-08
3.87861
5.62341e-08
3.87872
5.03151e-08
3.87887
4.37831e-08
3.87905
3.85735e-08
3.87927
3.33639e-08
3.87953
2.83544e-08
3.87981
2.39052e-08
3.88013
1.92358e-08
3.88047
1.55233e-08
3.88085
1.22745e-08
3.88124
9.27139e-09
3.88166
6.81939e-09
3.8821
4.62205e-09
3.88256
3.01225e-09
3.88304
2.04636e-09
3.88352
1.39335e-09
3.88402
1.24237e-09
3.88453
1.46429e-09
3.88504
2.02999e-09
3.88555
3.33057e-09
3.88607
4.90036e-09
3.88658
6.83394e-09
3.88709
9.16589e-09
3.8876
1.16106e-08
3.8881
1.46283e-08
3.88859
1.79025e-08
3.88907
2.13786e-08
3.88953
2.51075e-08
3.88999
2.88674e-08
3.89043
3.29055e-08
3.89085
3.71147e-08
3.89126
4.13929e-08
3.89165
4.57439e-08
3.89202
5.0044e-08
3.89237
5.43841e-08
3.8927
5.87552e-08
3.89302
6.3108e-08
3.89332
6.73735e-08
3.8936
7.15481e-08
3.89386
7.55736e-08
3.8941
7.95499e-08
3.89433
8.34116e-08
3.89454
8.71751e-08
3.89473
9.08749e-08
3.89491
9.45838e-08
3.89507
9.86802e-08
3.89522
1.03859e-07
3.89535
1.11868e-07
3.89547
1.26889e-07
3.89558
1.58854e-07
3.89568
2.31739e-07
3.89577
4.02752e-07
3.89584
8.08808e-07
3.89591
1.77733e-06
3.89597
4.0917e-06
3.89601
9.62519e-06
3.89603
2.28571e-05
3.89602
5.4492e-05
3.89592
0.000130313
3.89564
0.000311272
3.89492
0.000743769
3.89317
0.00177295
3.88897
0.0042121
3.879
0.00998391
3.85539
0.0236204
3.79917
0.0562331
3.65892
0.140256
0.379053
3.27987
5.52611
0.000213113
5.5253
0.000170775
5.52451
0.000156118
5.52372
0.00015855
5.52295
0.000159623
5.52219
0.000159527
5.52146
0.000159457
5.52076
0.000159473
5.5201
0.000159484
5.51947
0.000159477
5.51888
0.000159448
5.51832
0.000159385
5.51781
0.00015925
5.51734
0.000158991
5.51692
0.000158519
5.51654
0.000157715
5.5162
0.000156417
5.51591
0.000154441
5.51566
0.000151576
5.51545
0.000147623
5.51528
0.000142419
5.51515
0.000135857
5.51506
0.000127926
5.51501
0.000118726
5.51499
0.000108454
5.515
9.7381e-05
5.51504
8.58812e-05
5.51511
7.43217e-05
5.51521
6.30743e-05
5.51532
5.24879e-05
5.51546
4.28048e-05
5.51561
3.42063e-05
5.51578
2.67845e-05
5.51595
2.05505e-05
5.51614
1.54517e-05
5.51634
1.13869e-05
5.51654
8.22609e-06
5.51674
5.82751e-06
5.51695
4.04984e-06
5.51716
2.76236e-06
5.51736
1.851e-06
5.51756
1.22032e-06
5.51775
7.9359e-07
5.51794
5.11308e-07
5.51812
3.29054e-07
5.51829
2.14524e-07
5.51845
1.44787e-07
5.5186
1.03996e-07
5.51875
8.13561e-08
5.51888
7.00402e-08
5.519
6.55727e-08
5.51911
6.51144e-08
5.51921
6.69215e-08
5.5193
6.98783e-08
5.51938
7.34308e-08
5.51946
7.72325e-08
5.51952
8.10724e-08
5.51957
8.48222e-08
5.51962
8.83838e-08
5.51965
9.17344e-08
5.51968
9.48976e-08
5.51971
9.78607e-08
5.51972
1.00632e-07
5.51974
1.03185e-07
5.51974
1.05508e-07
5.51974
1.07648e-07
5.51974
1.09613e-07
5.51974
1.11421e-07
5.51973
1.13073e-07
5.51972
1.14524e-07
5.51971
1.15861e-07
5.51969
1.17037e-07
5.51968
1.18106e-07
5.51966
1.1907e-07
5.51965
1.19921e-07
5.51963
1.20654e-07
5.51962
1.21295e-07
5.5196
1.21857e-07
5.51958
1.22363e-07
5.51957
1.22801e-07
5.51955
1.23164e-07
5.51954
1.23462e-07
5.51953
1.23709e-07
5.51951
1.23931e-07
5.5195
1.24122e-07
5.51949
1.24267e-07
5.51949
1.24374e-07
5.51948
1.2445e-07
5.51947
1.24513e-07
5.51947
1.2457e-07
5.51946
1.24607e-07
5.51946
1.24618e-07
5.51946
1.24612e-07
5.51946
1.24583e-07
5.51946
1.24583e-07
5.51947
1.24567e-07
5.51947
1.24544e-07
5.51947
1.24509e-07
5.51948
1.24467e-07
5.51949
1.24424e-07
5.51949
1.244e-07
5.5195
1.24369e-07
5.51951
1.2433e-07
5.51952
1.24292e-07
5.51954
1.24257e-07
5.51955
1.24236e-07
5.51956
1.24212e-07
5.51957
1.2419e-07
5.51959
1.24169e-07
5.5196
1.24148e-07
5.51962
1.24138e-07
5.51964
1.24139e-07
5.51965
1.24135e-07
5.51967
1.24135e-07
5.51969
1.24138e-07
5.51971
1.24144e-07
5.51972
1.24159e-07
5.51974
1.24181e-07
5.51976
1.24203e-07
5.51978
1.24228e-07
5.5198
1.24256e-07
5.51982
1.2429e-07
5.51984
1.24326e-07
5.51986
1.24366e-07
5.51988
1.24411e-07
5.5199
1.24455e-07
5.51992
1.24501e-07
5.51994
1.24549e-07
5.51996
1.24608e-07
5.51998
1.24671e-07
5.52
1.24725e-07
5.52002
1.24785e-07
5.52004
1.24848e-07
5.52006
1.24915e-07
5.52008
1.24984e-07
5.5201
1.25046e-07
5.52011
1.25112e-07
5.52013
1.2518e-07
5.52015
1.25249e-07
5.52017
1.25317e-07
5.52019
1.25388e-07
5.52021
1.25458e-07
5.52022
1.25528e-07
5.52024
1.25599e-07
5.52026
1.2567e-07
5.52027
1.25739e-07
5.52029
1.25807e-07
5.52031
1.25877e-07
5.52032
1.25945e-07
5.52034
1.26013e-07
5.52035
1.26083e-07
5.52037
1.26145e-07
5.52039
1.26214e-07
5.5204
1.26281e-07
5.52041
1.26345e-07
5.52043
1.26405e-07
5.52044
1.26469e-07
5.52046
1.26526e-07
5.52047
1.26589e-07
5.52048
1.26647e-07
5.5205
1.2671e-07
5.52051
1.26765e-07
5.52052
1.26823e-07
5.52054
1.26876e-07
5.52055
1.26931e-07
5.52056
1.26988e-07
5.52057
1.27043e-07
5.52059
1.27094e-07
5.5206
1.27146e-07
5.52061
1.27196e-07
5.52062
1.27246e-07
5.52063
1.27293e-07
5.52064
1.27343e-07
5.52065
1.27388e-07
5.52066
1.27435e-07
5.52067
1.2748e-07
5.52069
1.27528e-07
5.5207
1.27569e-07
5.52071
1.27614e-07
5.52072
1.2766e-07
5.52073
1.27701e-07
5.52073
1.27743e-07
5.52074
1.27786e-07
5.52075
1.27825e-07
5.52076
1.27863e-07
5.52077
1.27902e-07
5.52078
1.27944e-07
5.52079
1.2798e-07
5.5208
1.2802e-07
5.52081
1.28054e-07
5.52082
1.28088e-07
5.52082
1.28125e-07
5.52083
1.28161e-07
5.52084
1.28194e-07
5.52085
1.28227e-07
5.52086
1.28264e-07
5.52086
1.28295e-07
5.52087
1.28329e-07
5.52088
1.28362e-07
5.52089
1.28398e-07
5.52089
1.28425e-07
5.5209
1.28457e-07
5.52091
1.28487e-07
5.52092
1.28519e-07
5.52092
1.28547e-07
5.52093
1.28581e-07
5.52094
1.2861e-07
5.52094
1.28639e-07
5.52095
1.2867e-07
5.52096
1.28702e-07
5.52096
1.28728e-07
5.52097
1.28758e-07
5.52097
1.28787e-07
5.52098
1.28816e-07
5.52099
1.28849e-07
5.52099
1.28874e-07
5.521
1.28904e-07
5.521
1.28934e-07
5.52101
1.28962e-07
5.52101
1.28995e-07
5.52102
1.29024e-07
5.52102
1.29056e-07
5.52103
1.29088e-07
5.52103
1.2912e-07
5.52104
1.29148e-07
5.52104
1.29181e-07
5.52105
1.29216e-07
5.52105
1.29251e-07
5.52105
1.29289e-07
5.52106
1.29325e-07
5.52106
1.29361e-07
5.52106
1.29404e-07
5.52107
1.29449e-07
5.52107
1.29494e-07
5.52107
1.29539e-07
5.52107
1.29592e-07
5.52107
1.29648e-07
5.52107
1.29704e-07
5.52107
1.29769e-07
5.52107
1.29786e-07
5.52107
1.29867e-07
5.52107
1.29564e-07
5.52107
1.30636e-07
5.52106
1.30106e-07
5.52106
1.3028e-07
5.52105
1.30375e-07
5.52105
1.30464e-07
5.52104
1.30709e-07
5.52103
1.30794e-07
5.52102
1.30965e-07
5.521
1.31135e-07
5.52099
1.31336e-07
5.52097
1.31552e-07
5.52095
1.31784e-07
5.52092
1.32045e-07
5.5209
1.32329e-07
5.52087
1.32632e-07
5.52083
1.32969e-07
5.5208
1.33335e-07
5.52075
1.33734e-07
5.52071
1.34165e-07
5.52066
1.34633e-07
5.5206
1.35138e-07
5.52053
1.35691e-07
5.52046
1.36278e-07
5.52038
1.36927e-07
5.5203
1.37593e-07
5.5202
1.38331e-07
5.5201
1.39114e-07
5.51998
1.39944e-07
5.51986
1.40833e-07
5.51972
1.41777e-07
5.51957
1.42772e-07
5.51941
1.4382e-07
5.51924
1.44926e-07
5.51905
1.46089e-07
5.51885
1.47309e-07
5.51863
1.48575e-07
5.51839
1.49888e-07
5.51814
1.51254e-07
5.51787
1.52662e-07
5.51757
1.54106e-07
5.51726
1.55585e-07
5.51693
1.57097e-07
5.51658
1.58628e-07
5.51621
1.60167e-07
5.51581
1.61717e-07
5.5154
1.63262e-07
5.51496
1.64792e-07
5.51449
1.66293e-07
5.51401
1.67754e-07
5.5135
1.6917e-07
5.51297
1.70522e-07
5.51241
1.71791e-07
5.51184
1.72963e-07
5.51124
1.74025e-07
5.51062
1.74958e-07
5.50999
1.75752e-07
5.50933
1.76387e-07
5.50866
1.76842e-07
5.50797
1.77104e-07
5.50726
1.7716e-07
5.50655
1.76985e-07
5.50582
1.76577e-07
5.50508
1.75905e-07
5.50434
1.7497e-07
5.50359
1.7375e-07
5.50285
1.72241e-07
5.5021
1.7043e-07
5.50136
1.68315e-07
5.50062
1.65875e-07
5.4999
1.63122e-07
5.49919
1.60047e-07
5.49849
1.56661e-07
5.49782
1.52961e-07
5.49717
1.48954e-07
5.49654
1.44647e-07
5.49595
1.40055e-07
5.49538
1.35191e-07
5.49485
1.30079e-07
5.49436
1.24734e-07
5.49391
1.19173e-07
5.4935
1.13422e-07
5.49314
1.07517e-07
5.49282
1.01481e-07
5.49256
9.53487e-08
5.49234
8.91505e-08
5.49218
8.29141e-08
5.49207
7.66886e-08
5.49201
7.05522e-08
5.49201
6.54254e-08
5.49206
5.87315e-08
5.49216
5.26243e-08
5.49232
4.69499e-08
5.49253
4.095e-08
5.49279
3.60496e-08
5.4931
3.12075e-08
5.49346
2.65409e-08
5.49386
2.23599e-08
5.49431
1.80462e-08
5.4948
1.45537e-08
5.49532
1.15178e-08
5.49588
8.70568e-09
5.49648
6.38465e-09
5.4971
4.39741e-09
5.49775
2.94767e-09
5.49842
1.98179e-09
5.49911
1.36788e-09
5.49981
1.22327e-09
5.50053
1.42882e-09
5.50125
1.97906e-09
5.50198
3.16686e-09
5.50271
4.64479e-09
5.50343
6.44468e-09
5.50416
8.62019e-09
5.50487
1.08976e-08
5.50558
1.37024e-08
5.50627
1.67674e-08
5.50695
2.00143e-08
5.50761
2.34813e-08
5.50825
2.70047e-08
5.50887
3.07609e-08
5.50947
3.46854e-08
5.51004
3.86844e-08
5.51059
4.27426e-08
5.51112
4.67489e-08
5.51162
5.08153e-08
5.51209
5.48634e-08
5.51254
5.89562e-08
5.51296
6.29143e-08
5.51335
6.68197e-08
5.51372
7.05877e-08
5.51407
7.43039e-08
5.51439
7.79601e-08
5.51468
8.15635e-08
5.51495
8.52415e-08
5.5152
8.9276e-08
5.51543
9.44292e-08
5.51564
1.02439e-07
5.51583
1.17506e-07
5.516
1.49676e-07
5.51616
2.22965e-07
5.5163
3.94974e-07
5.51642
8.03382e-07
5.51653
1.77767e-06
5.51662
4.10582e-06
5.5167
9.67314e-06
5.51676
2.29879e-05
5.5168
5.48302e-05
5.51678
0.000130971
5.51664
0.000313424
5.51625
0.000748934
5.51523
0.00178983
5.51277
0.00426702
5.50687
0.0101385
5.49283
0.0240355
5.45959
0.05688
5.38043
0.135405
5.18424
0.336444
0.869366
4.69394
7.8151
0.000176199
7.81396
0.000159152
7.81283
0.000138778
7.81172
0.000141575
7.81062
0.000143397
7.80955
0.000143291
7.80852
0.000143177
7.80754
0.000143208
7.80659
0.000143233
7.8057
0.000143232
7.80487
0.00014321
7.80409
0.000143158
7.80336
0.000143043
7.8027
0.00014282
7.8021
0.000142411
7.80156
0.000141711
7.80108
0.000140578
7.80067
0.000138851
7.80031
0.000136339
7.80002
0.000132864
7.79978
0.000128282
7.7996
0.000122488
7.79948
0.000115469
7.7994
0.000107305
7.79938
9.81647e-05
7.79939
8.82878e-05
7.79945
7.80009e-05
7.79955
6.76328e-05
7.79968
5.75175e-05
7.79985
4.79673e-05
7.80004
3.92084e-05
7.80025
3.14076e-05
7.80049
2.46543e-05
7.80074
1.8965e-05
7.80101
1.42976e-05
7.80128
1.05653e-05
7.80157
7.65404e-06
7.80186
5.43784e-06
7.80215
3.79014e-06
7.80244
2.59292e-06
7.80272
1.74264e-06
7.80301
1.15223e-06
7.80328
7.51327e-07
7.80354
4.8515e-07
7.8038
3.12574e-07
7.80404
2.03641e-07
7.80427
1.37014e-07
7.80449
9.77889e-08
7.80469
7.58e-08
7.80487
6.45673e-08
7.80505
5.98975e-08
7.8052
5.90858e-08
7.80535
6.04532e-08
7.80548
6.2972e-08
7.80559
6.60698e-08
7.80569
6.94331e-08
7.80578
7.28537e-08
7.80585
7.61997e-08
7.80592
7.93952e-08
7.80597
8.24016e-08
7.80601
8.52397e-08
7.80605
8.79031e-08
7.80607
9.03883e-08
7.80609
9.26793e-08
7.8061
9.47721e-08
7.8061
9.66902e-08
7.8061
9.84578e-08
7.80609
1.00084e-07
7.80608
1.01562e-07
7.80607
1.02871e-07
7.80605
1.04068e-07
7.80603
1.05128e-07
7.80601
1.06089e-07
7.80599
1.06952e-07
7.80596
1.07718e-07
7.80594
1.08374e-07
7.80592
1.08949e-07
7.80589
1.0946e-07
7.80587
1.09912e-07
7.80585
1.10305e-07
7.80583
1.1063e-07
7.80581
1.10898e-07
7.80579
1.11123e-07
7.80577
1.11321e-07
7.80576
1.1149e-07
7.80575
1.11621e-07
7.80573
1.11719e-07
7.80572
1.1179e-07
7.80571
1.11845e-07
7.80571
1.11894e-07
7.8057
1.11927e-07
7.8057
1.11937e-07
7.8057
1.1193e-07
7.8057
1.11907e-07
7.8057
1.11907e-07
7.8057
1.11893e-07
7.80571
1.11873e-07
7.80572
1.11841e-07
7.80572
1.11803e-07
7.80573
1.11768e-07
7.80575
1.1174e-07
7.80576
1.11717e-07
7.80577
1.11679e-07
7.80579
1.11647e-07
7.8058
1.11616e-07
7.80582
1.11594e-07
7.80584
1.11574e-07
7.80586
1.11555e-07
7.80588
1.11535e-07
7.8059
1.11518e-07
7.80592
1.11508e-07
7.80595
1.11509e-07
7.80597
1.11507e-07
7.80599
1.11503e-07
7.80602
1.11507e-07
7.80605
1.11513e-07
7.80607
1.11528e-07
7.8061
1.11547e-07
7.80612
1.11567e-07
7.80615
1.1159e-07
7.80618
1.11615e-07
7.80621
1.11643e-07
7.80623
1.11677e-07
7.80626
1.11714e-07
7.80629
1.11753e-07
7.80632
1.11792e-07
7.80635
1.11833e-07
7.80637
1.11878e-07
7.8064
1.11931e-07
7.80643
1.11986e-07
7.80646
1.12036e-07
7.80649
1.12089e-07
7.80651
1.12146e-07
7.80654
1.12207e-07
7.80657
1.12266e-07
7.8066
1.12324e-07
7.80662
1.12381e-07
7.80665
1.12443e-07
7.80667
1.12507e-07
7.8067
1.12565e-07
7.80673
1.12631e-07
7.80675
1.12694e-07
7.80678
1.12758e-07
7.8068
1.1282e-07
7.80682
1.12883e-07
7.80685
1.12946e-07
7.80687
1.13006e-07
7.80689
1.1307e-07
7.80692
1.1313e-07
7.80694
1.13193e-07
7.80696
1.13253e-07
7.80698
1.1331e-07
7.80701
1.1337e-07
7.80703
1.13431e-07
7.80705
1.1349e-07
7.80707
1.13545e-07
7.80709
1.13601e-07
7.80711
1.13653e-07
7.80713
1.1371e-07
7.80715
1.13761e-07
7.80717
1.13817e-07
7.80718
1.13867e-07
7.8072
1.13917e-07
7.80722
1.13967e-07
7.80724
1.14015e-07
7.80726
1.14067e-07
7.80727
1.14116e-07
7.80729
1.14162e-07
7.80731
1.14208e-07
7.80732
1.14254e-07
7.80734
1.14298e-07
7.80735
1.14341e-07
7.80737
1.14385e-07
7.80739
1.14425e-07
7.8074
1.14468e-07
7.80742
1.14509e-07
7.80743
1.14553e-07
7.80744
1.1459e-07
7.80746
1.1463e-07
7.80747
1.14669e-07
7.80749
1.14707e-07
7.8075
1.14745e-07
7.80751
1.14782e-07
7.80753
1.1482e-07
7.80754
1.14853e-07
7.80755
1.14887e-07
7.80757
1.14926e-07
7.80758
1.14956e-07
7.80759
1.14992e-07
7.8076
1.15025e-07
7.80761
1.15055e-07
7.80763
1.15089e-07
7.80764
1.15121e-07
7.80765
1.15151e-07
7.80766
1.15179e-07
7.80767
1.15212e-07
7.80768
1.15242e-07
7.80769
1.15272e-07
7.8077
1.15302e-07
7.80771
1.15334e-07
7.80772
1.15357e-07
7.80773
1.15386e-07
7.80775
1.15413e-07
7.80776
1.15442e-07
7.80776
1.15468e-07
7.80777
1.15498e-07
7.80778
1.15522e-07
7.80779
1.15548e-07
7.8078
1.15578e-07
7.80781
1.15606e-07
7.80782
1.1563e-07
7.80783
1.15658e-07
7.80784
1.15684e-07
7.80785
1.1571e-07
7.80786
1.1574e-07
7.80786
1.15763e-07
7.80787
1.15789e-07
7.80788
1.15813e-07
7.80789
1.15841e-07
7.80789
1.15869e-07
7.8079
1.15899e-07
7.80791
1.15924e-07
7.80792
1.15953e-07
7.80792
1.1598e-07
7.80793
1.16008e-07
7.80793
1.16036e-07
7.80794
1.16068e-07
7.80795
1.16099e-07
7.80795
1.16134e-07
7.80796
1.16164e-07
7.80796
1.16201e-07
7.80796
1.16238e-07
7.80797
1.16277e-07
7.80797
1.16316e-07
7.80797
1.1636e-07
7.80798
1.16405e-07
7.80798
1.16456e-07
7.80798
1.16507e-07
7.80798
1.16563e-07
7.80798
1.16587e-07
7.80798
1.16648e-07
7.80797
1.1645e-07
7.80797
1.17267e-07
7.80796
1.16871e-07
7.80796
1.17027e-07
7.80795
1.17102e-07
7.80794
1.1721e-07
7.80793
1.17394e-07
7.80791
1.17483e-07
7.8079
1.17641e-07
7.80788
1.17793e-07
7.80786
1.17973e-07
7.80783
1.18168e-07
7.8078
1.18375e-07
7.80777
1.18612e-07
7.80773
1.18865e-07
7.80769
1.19136e-07
7.80764
1.19439e-07
7.80759
1.19768e-07
7.80753
1.20128e-07
7.80746
1.20515e-07
7.80739
1.20937e-07
7.80731
1.21389e-07
7.80721
1.21885e-07
7.80711
1.2241e-07
7.807
1.23002e-07
7.80688
1.23589e-07
7.80675
1.24257e-07
7.8066
1.24961e-07
7.80644
1.25704e-07
7.80626
1.26505e-07
7.80607
1.27352e-07
7.80586
1.28246e-07
7.80563
1.29187e-07
7.80539
1.30179e-07
7.80512
1.31226e-07
7.80483
1.3232e-07
7.80452
1.33457e-07
7.80419
1.34636e-07
7.80383
1.35865e-07
7.80344
1.37129e-07
7.80303
1.38427e-07
7.80259
1.39758e-07
7.80212
1.41111e-07
7.80163
1.42486e-07
7.8011
1.43872e-07
7.80054
1.45263e-07
7.79995
1.4665e-07
7.79933
1.48023e-07
7.79867
1.49372e-07
7.79799
1.50687e-07
7.79727
1.51956e-07
7.79652
1.53168e-07
7.79573
1.54309e-07
7.79492
1.55361e-07
7.79407
1.56316e-07
7.7932
1.57152e-07
7.7923
1.57866e-07
7.79137
1.58437e-07
7.79042
1.58845e-07
7.78944
1.59079e-07
7.78845
1.59129e-07
7.78743
1.58973e-07
7.7864
1.58606e-07
7.78536
1.58005e-07
7.78431
1.57164e-07
7.78326
1.56068e-07
7.7822
1.5471e-07
7.78115
1.53086e-07
7.7801
1.51183e-07
7.77906
1.48994e-07
7.77803
1.46519e-07
7.77703
1.43757e-07
7.77605
1.40714e-07
7.77509
1.37391e-07
7.77417
1.33792e-07
7.77329
1.29925e-07
7.77244
1.25799e-07
7.77164
1.2143e-07
7.7709
1.16839e-07
7.7702
1.12037e-07
7.76956
1.07042e-07
7.76899
1.01878e-07
7.76847
9.65747e-08
7.76803
9.11546e-08
7.76765
8.56462e-08
7.76735
8.00796e-08
7.76712
7.44799e-08
7.76696
6.88915e-08
7.76688
6.34127e-08
7.76687
5.86592e-08
7.76695
5.27989e-08
7.76709
4.73588e-08
7.76731
4.21073e-08
7.76761
3.68063e-08
7.76798
3.23644e-08
7.76842
2.80374e-08
7.76892
2.38597e-08
7.76949
2.00685e-08
7.77013
1.62431e-08
7.77082
1.30763e-08
7.77156
1.03378e-08
7.77236
7.80028e-09
7.7732
5.66388e-09
7.77408
4.00314e-09
7.77499
2.76214e-09
7.77594
1.7917e-09
7.77691
1.23146e-09
7.77791
1.09594e-09
7.77892
1.28057e-09
7.77994
1.80671e-09
7.78097
2.84172e-09
7.782
4.1864e-09
7.78303
5.83213e-09
7.78406
7.73343e-09
7.78507
9.79071e-09
7.78607
1.23023e-08
7.78704
1.50594e-08
7.788
1.79916e-08
7.78894
2.10844e-08
7.78984
2.42703e-08
7.79072
2.76332e-08
7.79156
3.1157e-08
7.79238
3.475e-08
7.79316
3.83925e-08
7.7939
4.19868e-08
7.7946
4.56603e-08
7.79527
4.92664e-08
7.79591
5.29699e-08
7.7965
5.65101e-08
7.79706
6.00235e-08
7.79758
6.34286e-08
7.79807
6.67778e-08
7.79852
7.0133e-08
7.79894
7.35104e-08
7.79932
7.71597e-08
7.79968
8.16394e-08
7.8
8.82674e-08
7.8003
1.00201e-07
7.80057
1.25022e-07
7.80081
1.80922e-07
7.80103
3.11397e-07
7.80122
6.20631e-07
7.8014
1.35772e-06
7.80155
3.11876e-06
7.80169
7.32941e-06
7.8018
1.74007e-05
7.80189
4.14894e-05
7.80193
9.90998e-05
7.80191
0.000236868
7.80172
0.00056696
7.80117
0.00135494
7.79977
0.00323827
7.79636
0.00772139
7.78818
0.0183484
7.76874
0.0435065
7.72267
0.102964
7.61327
0.244825
7.34584
0.603881
1.49752
6.7177
34.4975
7.16362e-05
34.4924
8.18101e-05
34.4875
6.94916e-05
34.4825
6.97669e-05
34.4777
7.16568e-05
34.473
7.18938e-05
34.4685
7.17413e-05
34.4641
7.17171e-05
34.4599
7.17258e-05
34.456
7.17137e-05
34.4523
7.16898e-05
34.4489
7.16565e-05
34.4457
7.15994e-05
34.4427
7.14965e-05
34.4401
7.1312e-05
34.4377
7.09961e-05
34.4356
7.04793e-05
34.4338
6.96844e-05
34.4322
6.8514e-05
34.4309
6.68768e-05
34.4299
6.46975e-05
34.4291
6.19145e-05
34.4285
5.85142e-05
34.4282
5.45285e-05
34.4281
5.00308e-05
34.4282
4.51386e-05
34.4284
4.00086e-05
34.4289
3.48069e-05
34.4294
2.97034e-05
34.4302
2.48563e-05
34.431
2.03885e-05
34.432
1.63893e-05
34.433
1.29102e-05
34.4341
9.96575e-06
34.4353
7.5392e-06
34.4365
5.59044e-06
34.4378
4.06397e-06
34.4391
2.89711e-06
34.4403
2.0261e-06
34.4416
1.39074e-06
34.4429
9.37699e-07
34.4441
6.21891e-07
34.4453
4.06602e-07
34.4465
2.63092e-07
34.4476
1.69663e-07
34.4487
1.10453e-07
34.4497
7.4135e-08
34.4507
5.24988e-08
34.4516
3.99878e-08
34.4524
3.33819e-08
34.4531
3.04883e-08
34.4538
2.97791e-08
34.4545
3.03119e-08
34.455
3.15026e-08
34.4555
3.30276e-08
34.456
3.47081e-08
34.4564
3.64244e-08
34.4567
3.81042e-08
34.457
3.97033e-08
34.4572
4.12049e-08
34.4574
4.26214e-08
34.4576
4.39529e-08
34.4577
4.51964e-08
34.4577
4.63435e-08
34.4578
4.73876e-08
34.4578
4.83449e-08
34.4578
4.92275e-08
34.4578
5.00406e-08
34.4577
5.07805e-08
34.4576
5.14385e-08
34.4576
5.20331e-08
34.4575
5.25627e-08
34.4574
5.30429e-08
34.4573
5.34758e-08
34.4572
5.38587e-08
34.4571
5.41872e-08
34.457
5.44742e-08
34.4569
5.4727e-08
34.4568
5.49537e-08
34.4567
5.51508e-08
34.4566
5.53139e-08
34.4565
5.54489e-08
34.4564
5.55613e-08
34.4564
5.56599e-08
34.4563
5.57441e-08
34.4562
5.581e-08
34.4562
5.58593e-08
34.4561
5.58955e-08
34.4561
5.59221e-08
34.4561
5.59462e-08
34.456
5.59628e-08
34.456
5.59683e-08
34.456
5.59644e-08
34.456
5.59544e-08
34.456
5.59514e-08
34.456
5.59462e-08
34.4561
5.59362e-08
34.4561
5.59196e-08
34.4561
5.59007e-08
34.4562
5.58839e-08
34.4562
5.58687e-08
34.4563
5.58598e-08
34.4563
5.58382e-08
34.4564
5.58241e-08
34.4565
5.58089e-08
34.4566
5.57959e-08
34.4566
5.57864e-08
34.4567
5.5777e-08
34.4568
5.57677e-08
34.4569
5.57586e-08
34.457
5.57543e-08
34.4571
5.57536e-08
34.4572
5.57532e-08
34.4573
5.57516e-08
34.4574
5.57529e-08
34.4575
5.57557e-08
34.4577
5.57627e-08
34.4578
5.57729e-08
34.4579
5.57832e-08
34.458
5.5795e-08
34.4581
5.58068e-08
34.4583
5.58211e-08
34.4584
5.58387e-08
34.4585
5.58568e-08
34.4586
5.58762e-08
34.4588
5.58964e-08
34.4589
5.59164e-08
34.459
5.59398e-08
34.4591
5.59658e-08
34.4593
5.59926e-08
34.4594
5.60185e-08
34.4595
5.60451e-08
34.4596
5.60735e-08
34.4597
5.61035e-08
34.4599
5.61326e-08
34.46
5.61622e-08
34.4601
5.61911e-08
34.4602
5.62213e-08
34.4603
5.62532e-08
34.4604
5.62834e-08
34.4606
5.63155e-08
34.4607
5.63468e-08
34.4608
5.63782e-08
34.4609
5.64098e-08
34.461
5.64421e-08
34.4611
5.6473e-08
34.4612
5.65026e-08
34.4613
5.65346e-08
34.4614
5.65647e-08
34.4615
5.6596e-08
34.4616
5.66263e-08
34.4617
5.66545e-08
34.4618
5.66849e-08
34.4619
5.67152e-08
34.462
5.67443e-08
34.4621
5.67723e-08
34.4622
5.68004e-08
34.4622
5.68275e-08
34.4623
5.68546e-08
34.4624
5.68798e-08
34.4625
5.69075e-08
34.4626
5.69337e-08
34.4627
5.69585e-08
34.4627
5.69837e-08
34.4628
5.70076e-08
34.4629
5.7033e-08
34.463
5.70581e-08
34.463
5.70806e-08
34.4631
5.71035e-08
34.4632
5.71265e-08
34.4633
5.71481e-08
34.4633
5.71699e-08
34.4634
5.71924e-08
34.4635
5.72129e-08
34.4635
5.72336e-08
34.4636
5.7255e-08
34.4637
5.72754e-08
34.4637
5.72948e-08
34.4638
5.73145e-08
34.4639
5.73348e-08
34.4639
5.73539e-08
34.464
5.73721e-08
34.464
5.73914e-08
34.4641
5.741e-08
34.4641
5.74271e-08
34.4642
5.74441e-08
34.4643
5.74628e-08
34.4643
5.74785e-08
34.4644
5.74955e-08
34.4644
5.75117e-08
34.4645
5.75271e-08
34.4645
5.75437e-08
34.4646
5.75596e-08
34.4646
5.75749e-08
34.4647
5.75897e-08
34.4647
5.76053e-08
34.4648
5.76208e-08
34.4648
5.76356e-08
34.4649
5.76511e-08
34.4649
5.76658e-08
34.465
5.76788e-08
34.465
5.76931e-08
34.4651
5.7707e-08
34.4651
5.77213e-08
34.4651
5.77345e-08
34.4652
5.77488e-08
34.4652
5.7762e-08
34.4653
5.77747e-08
34.4653
5.77891e-08
34.4653
5.78032e-08
34.4654
5.78152e-08
34.4654
5.78286e-08
34.4655
5.7842e-08
34.4655
5.78557e-08
34.4655
5.78702e-08
34.4656
5.78818e-08
34.4656
5.7895e-08
34.4656
5.79082e-08
34.4657
5.79214e-08
34.4657
5.7935e-08
34.4657
5.79494e-08
34.4658
5.79623e-08
34.4658
5.79769e-08
34.4658
5.79901e-08
34.4659
5.80044e-08
34.4659
5.8018e-08
34.4659
5.80333e-08
34.4659
5.80503e-08
34.466
5.80669e-08
34.466
5.80822e-08
34.466
5.81001e-08
34.466
5.81185e-08
34.466
5.81388e-08
34.4661
5.81583e-08
34.4661
5.81808e-08
34.4661
5.82033e-08
34.4661
5.82277e-08
34.4661
5.82536e-08
34.4661
5.82809e-08
34.4661
5.82988e-08
34.4661
5.83243e-08
34.4661
5.82934e-08
34.466
5.8559e-08
34.466
5.84382e-08
34.466
5.85137e-08
34.466
5.85533e-08
34.4659
5.86183e-08
34.4659
5.86872e-08
34.4658
5.87361e-08
34.4657
5.88207e-08
34.4656
5.88975e-08
34.4655
5.89876e-08
34.4654
5.90849e-08
34.4653
5.91874e-08
34.4652
5.93066e-08
34.465
5.94325e-08
34.4648
5.9568e-08
34.4646
5.97204e-08
34.4644
5.98852e-08
34.4641
6.00646e-08
34.4638
6.02583e-08
34.4635
6.04684e-08
34.4631
6.06951e-08
34.4627
6.09427e-08
34.4623
6.12054e-08
34.4618
6.15032e-08
34.4612
6.17936e-08
34.4606
6.21269e-08
34.46
6.24809e-08
34.4593
6.28525e-08
34.4585
6.32538e-08
34.4577
6.36769e-08
34.4567
6.41242e-08
34.4557
6.45946e-08
34.4546
6.50903e-08
34.4535
6.56134e-08