/*--------------------------------*- C++ -*----------------------------------*\
| =========                 |                                                 |
| \\      /  F ield         | OpenFOAM: The Open Source CFD Toolbox           |
|  \\    /   O peration     | Version:  3.0.x                                 |
|   \\  /    A nd           | Web:      www.OpenFOAM.org                      |
|    \\/     M anipulation  |                                                 |
\*---------------------------------------------------------------------------*/
FoamFile
{
    version     2.0;
    format      ascii;
    class       surfaceScalarField;
    location    "0.55005";
    object      phi;
}
// * * * * * * * * * * * * * * * * * * * * * * * * * * * * * * * * * * * * * //

dimensions      [1 0 -1 0 0 0 0];

internalField   nonuniform List<scalar> 
53800
(
2.02527
0.00103469
2.01209
0.000711379
1.9989
0.000710018
1.98568
0.000715877
1.97245
0.000719917
1.95921
0.000723472
1.94594
0.000726386
1.93266
0.00072853
1.91938
0.000730283
1.90608
0.000731441
1.89278
0.000732424
1.87947
0.000732889
1.86616
0.000733381
1.85285
0.000733674
1.83954
0.000733882
1.82623
0.000734038
1.81293
0.000734165
1.79962
0.000734276
1.78632
0.000734379
1.77302
0.000734488
1.75973
0.000734603
1.74643
0.000734732
1.73315
0.000734862
1.71987
0.000735003
1.7066
0.000735155
1.69333
0.000735315
1.68007
0.000735492
1.66682
0.000735676
1.65357
0.00073587
1.64034
0.000736065
1.62711
0.00073628
1.6139
0.000736491
1.6007
0.000736727
1.5875
0.000736968
1.57432
0.000737221
1.56116
0.000737485
1.548
0.000737746
1.53486
0.00073801
1.52174
0.00073829
1.50863
0.000738585
1.49554
0.000738883
1.48246
0.000739191
1.4694
0.000739505
1.45636
0.000739847
1.44334
0.000740204
1.43033
0.000740573
1.41735
0.000740931
1.40438
0.000741275
1.39144
0.000741629
1.37852
0.000741996
1.36563
0.000742388
1.35276
0.00074281
1.33991
0.00074325
1.32709
0.000743681
1.31429
0.000744117
1.30152
0.000744565
1.28877
0.000745025
1.27606
0.000745483
1.26337
0.000745906
1.25071
0.000746289
1.23808
0.000746633
1.22548
0.00074693
1.21292
0.000747173
1.20038
0.000747359
1.18788
0.000747438
1.17542
0.000747337
1.16299
0.000746991
1.15059
0.000746334
1.13823
0.000745279
1.12592
0.000743691
1.11364
0.000741406
1.1014
0.000738258
1.0892
0.00073408
1.07705
0.000728716
1.06495
0.000722004
1.0529
0.000713763
1.04089
0.000703799
1.02895
0.000691921
1.01706
0.000677962
1.00523
0.00066179
0.993462
0.000643325
0.981761
0.000622548
0.970129
0.000599498
0.958569
0.000574274
0.947084
0.000547034
0.935676
0.00051799
0.924346
0.000487415
0.913098
0.000455625
0.901932
0.000422979
0.89085
0.000389859
0.879853
0.000356658
0.86894
0.000323768
0.858112
0.000291564
0.847368
0.000260391
0.836708
0.000230558
0.82613
0.000202326
0.815634
0.000175905
0.805218
0.000151447
0.794881
0.000129052
0.78462
0.000108764
0.774436
9.05764e-05
0.764325
7.44394e-05
0.754287
6.0266e-05
0.744321
4.79411e-05
0.734424
3.73294e-05
0.724597
2.8279e-05
0.714838
2.06328e-05
0.705147
1.4229e-05
0.695523
8.91232e-06
0.685965
4.53573e-06
0.676473
9.51295e-07
0.667048
-1.97185e-06
0.657688
-4.33651e-06
0.648395
-6.23127e-06
0.639167
-7.74466e-06
0.630005
-8.9543e-06
0.62091
-9.92313e-06
0.611881
-1.07047e-05
0.602919
-1.13415e-05
0.594023
-1.18682e-05
0.585195
-1.23107e-05
0.576435
-1.26903e-05
0.567742
-1.30235e-05
0.559117
-1.33234e-05
0.55056
-1.35992e-05
0.542072
-1.38606e-05
0.533653
-1.41116e-05
0.525302
-1.43562e-05
0.517021
-1.45958e-05
0.508809
-1.48332e-05
0.500667
-1.50684e-05
0.492595
-1.5304e-05
0.484593
-1.55412e-05
0.47666
-1.57817e-05
0.468798
-1.60243e-05
0.461006
-1.62687e-05
0.453285
-1.65145e-05
0.445634
-1.67621e-05
0.438054
-1.7011e-05
0.430544
-1.72615e-05
0.423105
-1.75142e-05
0.415736
-1.77701e-05
0.408439
-1.80283e-05
0.401211
-1.82883e-05
0.394054
-1.85503e-05
0.386968
-1.88144e-05
0.379952
-1.90809e-05
0.373007
-1.93489e-05
0.366131
-1.96179e-05
0.359326
-1.98892e-05
0.35259
-2.0163e-05
0.345925
-2.04385e-05
0.339329
-2.07155e-05
0.332802
-2.09935e-05
0.326345
-2.12736e-05
0.319956
-2.15555e-05
0.313637
-2.18393e-05
0.307386
-2.21243e-05
0.301203
-2.2411e-05
0.295089
-2.26996e-05
0.289042
-2.299e-05
0.283063
-2.3281e-05
0.277151
-2.35729e-05
0.271306
-2.38655e-05
0.265527
-2.41601e-05
0.259815
-2.44569e-05
0.254169
-2.47545e-05
0.248589
-2.50522e-05
0.243074
-2.53497e-05
0.237624
-2.56487e-05
0.232238
-2.59507e-05
0.226917
-2.62537e-05
0.22166
-2.65582e-05
0.216467
-2.68609e-05
0.211337
-2.71669e-05
0.206269
-2.74663e-05
0.201265
-2.7781e-05
0.196322
-2.80712e-05
0.191442
-2.84066e-05
0.186623
-2.86699e-05
0.181865
-2.90345e-05
0.177168
-2.92771e-05
0.172531
-2.96306e-05
0.167955
-2.99515e-05
0.163438
-3.01275e-05
0.158981
-3.07403e-05
0.154582
-3.05317e-05
0.150243
-3.15828e-05
0.145961
-3.09364e-05
0.141739
-3.24132e-05
0.137573
-3.11658e-05
0.133466
-3.26744e-05
0.129412
-2.83071e-05
0.125407
-2.16844e-05
0.121417
2.08185e-05
0.117292
0.000209682
0.112321
0.00111332
0.104682
0.00383479
0.0747067
0.0262277
0.0463958
0.0246175
2.32775
0.000998141
2.31344
0.000698346
2.29912
0.000691005
2.28478
0.000698482
2.27042
0.000702655
2.25605
0.000706432
2.24166
0.000709706
2.22726
0.000712216
2.21285
0.000714323
2.19844
0.000715849
2.18401
0.000717202
2.16958
0.000718059
2.15515
0.000718933
2.14071
0.000719615
2.12628
0.000720214
2.11185
0.000720762
2.09741
0.000721283
2.08299
0.000721786
2.06856
0.000722283
2.05414
0.000722786
2.03972
0.000723295
2.0253
0.000723816
2.0109
0.00072434
1.9965
0.000724874
1.9821
0.000725419
1.96771
0.000725972
1.95333
0.000726541
1.93896
0.000727118
1.9246
0.000727704
1.91025
0.000728292
1.89591
0.0007289
1.88159
0.000729503
1.86727
0.000730131
1.85297
0.000730765
1.83868
0.00073141
1.82441
0.000732066
1.81015
0.00073272
1.79591
0.000733377
1.78168
0.000734049
1.76747
0.000734737
1.75328
0.000735428
1.73911
0.000736129
1.72496
0.000736838
1.71083
0.000737574
1.69672
0.000738325
1.68264
0.000739088
1.66858
0.00073984
1.65454
0.000740581
1.64052
0.000741331
1.62653
0.000742095
1.61257
0.000742885
1.59864
0.000743704
1.58473
0.00074454
1.57085
0.000745369
1.557
0.000746201
1.54318
0.000747044
1.5294
0.000747896
1.51564
0.000748742
1.50192
0.000749549
1.48823
0.000750307
1.47457
0.000751015
1.46096
0.000751659
1.44737
0.000752226
1.43383
0.000752702
1.42032
0.000753023
1.40685
0.000753105
1.39343
0.000752862
1.38004
0.000752208
1.36669
0.000751031
1.35339
0.000749165
1.34013
0.00074642
1.32692
0.000742601
1.31375
0.000737511
1.30062
0.000730967
1.28755
0.000722784
1.27452
0.000712763
1.26155
0.000700701
1.24862
0.000686414
1.23575
0.000669749
1.22293
0.000650608
1.21017
0.00062896
1.19746
0.000604845
1.18481
0.000578379
1.17221
0.000549744
1.15968
0.000519188
1.1472
0.00048702
1.13478
0.0004536
1.12241
0.000419333
1.11011
0.00038465
1.09787
0.000349992
1.08569
0.000315793
1.07356
0.000282465
1.0615
0.000250381
1.0495
0.000219868
1.03756
0.000191195
1.02568
0.000164569
1.01386
0.000140133
1.0021
0.000117965
0.990405
9.80853e-05
0.978772
8.04589e-05
0.967202
6.50041e-05
0.955696
5.16014e-05
0.944254
4.01027e-05
0.932878
3.03421e-05
0.921568
2.21439e-05
0.910325
1.53268e-05
0.899149
9.71424e-06
0.888041
5.13471e-06
0.877003
1.43126e-06
0.866035
-1.53526e-06
0.855138
-3.90396e-06
0.844312
-5.77875e-06
0.833558
-7.25932e-06
0.822878
-8.42749e-06
0.81227
-9.34926e-06
0.801737
-1.00818e-05
0.791278
-1.06695e-05
0.780894
-1.11495e-05
0.770586
-1.15501e-05
0.760354
-1.18936e-05
0.750199
-1.21953e-05
0.74012
-1.2468e-05
0.730119
-1.27205e-05
0.720196
-1.29601e-05
0.71035
-1.31912e-05
0.700583
-1.34194e-05
0.690895
-1.36457e-05
0.681286
-1.38718e-05
0.671756
-1.40972e-05
0.662305
-1.43234e-05
0.652934
-1.45497e-05
0.643643
-1.47777e-05
0.634432
-1.50084e-05
0.625301
-1.52428e-05
0.616251
-1.54798e-05
0.607281
-1.57187e-05
0.598392
-1.59592e-05
0.589583
-1.62014e-05
0.580855
-1.6445e-05
0.572208
-1.66903e-05
0.563642
-1.69377e-05
0.555157
-1.71883e-05
0.546752
-1.74411e-05
0.538428
-1.76958e-05
0.530185
-1.79523e-05
0.522023
-1.82109e-05
0.513941
-1.84718e-05
0.505939
-1.87342e-05
0.498018
-1.89976e-05
0.490177
-1.92633e-05
0.482416
-1.95314e-05
0.474735
-1.98011e-05
0.467133
-2.00724e-05
0.459611
-2.03446e-05
0.452168
-2.0619e-05
0.444805
-2.0895e-05
0.437519
-2.1173e-05
0.430313
-2.1452e-05
0.423184
-2.1733e-05
0.416133
-2.20155e-05
0.40916
-2.23e-05
0.402264
-2.2585e-05
0.395445
-2.28711e-05
0.388703
-2.31577e-05
0.382036
-2.34463e-05
0.375446
-2.37372e-05
0.368931
-2.40287e-05
0.362491
-2.43204e-05
0.356126
-2.46119e-05
0.349835
-2.49049e-05
0.343618
-2.52009e-05
0.337475
-2.54979e-05
0.331405
-2.57959e-05
0.325407
-2.60932e-05
0.319482
-2.63916e-05
0.313629
-2.6688e-05
0.307847
-2.69899e-05
0.302137
-2.72881e-05
0.296497
-2.75875e-05
0.290928
-2.79041e-05
0.285428
-2.81492e-05
0.279998
-2.85889e-05
0.274637
-2.85952e-05
0.269345
-2.94414e-05
0.26412
-2.88465e-05
0.258964
-3.04674e-05
0.253875
-2.90069e-05
0.248854
-3.15132e-05
0.243898
-2.91949e-05
0.239011
-3.25726e-05
0.234188
-2.87088e-05
0.229432
-3.29443e-05
0.224738
-2.29328e-05
0.220098
-8.19775e-06
0.215463
9.68517e-05
0.210621
0.000553517
0.204663
0.0026404
0.19369
0.010438
0.159554
0.0560592
0.0936172
0.108088
2.67389
0.00095632
2.65745
0.000681508
2.641
0.000667697
2.62453
0.000676376
2.60804
0.000680322
2.59154
0.000683887
2.57501
0.000687093
2.55847
0.00068955
2.54193
0.000691591
2.52537
0.000693074
2.50881
0.000694382
2.49223
0.000695224
2.47566
0.000696071
2.45909
0.000696736
2.44251
0.000697319
2.42594
0.000697853
2.40937
0.00069836
2.39281
0.000698851
2.37624
0.000699336
2.35969
0.000699826
2.34313
0.000700322
2.32659
0.000700831
2.31005
0.000701343
2.29352
0.000701864
2.27699
0.000702396
2.26048
0.000702936
2.24397
0.000703492
2.22748
0.000704056
2.211
0.000704629
2.19453
0.000705202
2.17807
0.000705796
2.16163
0.000706386
2.1452
0.000707
2.12879
0.00070762
2.11239
0.000708251
2.09601
0.000708892
2.07965
0.000709532
2.06331
0.000710175
2.04698
0.000710833
2.03068
0.000711505
2.0144
0.000712182
1.99814
0.000712868
1.98191
0.000713563
1.9657
0.000714283
1.94951
0.000715019
1.93336
0.000715766
1.91722
0.000716502
1.90112
0.000717228
1.88504
0.000717963
1.869
0.000718712
1.85298
0.000719486
1.837
0.000720289
1.82105
0.000721108
1.80513
0.00072192
1.78925
0.000722736
1.77341
0.000723562
1.75759
0.000724397
1.74182
0.000725226
1.72609
0.000726017
1.71039
0.000726761
1.69473
0.000727457
1.67912
0.000728092
1.66355
0.000728651
1.64802
0.000729122
1.63253
0.000729441
1.61709
0.000729527
1.6017
0.000729297
1.58635
0.000728668
1.57105
0.000727528
1.5558
0.000725718
1.5406
0.000723053
1.52544
0.000719343
1.51034
0.000714399
1.49529
0.000708041
1.4803
0.00070009
1.46536
0.000690354
1.45047
0.000678636
1.43564
0.000664757
1.42087
0.000648572
1.40615
0.000629987
1.39149
0.000608971
1.37689
0.000585567
1.36235
0.000559888
1.34787
0.000532112
1.33346
0.000502481
1.3191
0.000471295
1.30481
0.000438905
1.29058
0.000405704
1.27642
0.000372109
1.26232
0.000338546
1.24829
0.000305436
1.23433
0.000273176
1.22043
0.000242127
1.20661
0.000212604
1.19285
0.000184866
1.17916
0.000159112
1.16555
0.000135478
1.15201
0.000114041
1.13854
9.48189e-05
1.12515
7.77762e-05
1.11183
6.28338e-05
1.09859
4.98759e-05
1.08543
3.87592e-05
1.07234
2.93228e-05
1.05933
2.13969e-05
1.0464
1.48061e-05
1.03355
9.37987e-06
1.02078
4.95213e-06
1.00809
1.37123e-06
0.995488
-1.49563e-06
0.982964
-3.78692e-06
0.970524
-5.59968e-06
0.958168
-7.03142e-06
0.945896
-8.16117e-06
0.933709
-9.05274e-06
0.921608
-9.76128e-06
0.909593
-1.03298e-05
0.897664
-1.07943e-05
0.885822
-1.1182e-05
0.874069
-1.15144e-05
0.862403
-1.18064e-05
0.850826
-1.20704e-05
0.839337
-1.23148e-05
0.827938
-1.25468e-05
0.816629
-1.27706e-05
0.80541
-1.29915e-05
0.794281
-1.32107e-05
0.783243
-1.34296e-05
0.772296
-1.36478e-05
0.76144
-1.38669e-05
0.750676
-1.40859e-05
0.740003
-1.43067e-05
0.729423
-1.45301e-05
0.718934
-1.47571e-05
0.708538
-1.49865e-05
0.698235
-1.52178e-05
0.688024
-1.54506e-05
0.677905
-1.56851e-05
0.66788
-1.5921e-05
0.657947
-1.61585e-05
0.648107
-1.63981e-05
0.63836
-1.66407e-05
0.628706
-1.68854e-05
0.619144
-1.7132e-05
0.609675
-1.73804e-05
0.600299
-1.76308e-05
0.591016
-1.78833e-05
0.581825
-1.81374e-05
0.572726
-1.83924e-05
0.563719
-1.86497e-05
0.554804
-1.89093e-05
0.545981
-1.91704e-05
0.537249
-1.94331e-05
0.528608
-1.96966e-05
0.520059
-1.99623e-05
0.5116
-2.02295e-05
0.503232
-2.04986e-05
0.494953
-2.07688e-05
0.486765
-2.10408e-05
0.478666
-2.13144e-05
0.470656
-2.15899e-05
0.462735
-2.18658e-05
0.454902
-2.21427e-05
0.447157
-2.24203e-05
0.439499
-2.26997e-05
0.431929
-2.29813e-05
0.424445
-2.32635e-05
0.417048
-2.3546e-05
0.409736
-2.38282e-05
0.40251
-2.4112e-05
0.395369
-2.43984e-05
0.388312
-2.46862e-05
0.381339
-2.49742e-05
0.37445
-2.52632e-05
0.367644
-2.55494e-05
0.36092
-2.58422e-05
0.354279
-2.61227e-05
0.347719
-2.64352e-05
0.341241
-2.66783e-05
0.334843
-2.70736e-05
0.328526
-2.71501e-05
0.322289
-2.78522e-05
0.31613
-2.7411e-05
0.310051
-2.89079e-05
0.304049
-2.73775e-05
0.298127
-3.01947e-05
0.292281
-2.72592e-05
0.286514
-3.14693e-05
0.280821
-2.71703e-05
0.275207
-3.28165e-05
0.269667
-2.58564e-05
0.264204
-3.33635e-05
0.258812
-1.70934e-05
0.253486
3.07344e-06
0.248188
0.000157768
0.242758
0.000817316
0.236467
0.00384083
0.22665
0.0152354
0.19504
0.0827253
0.139376
0.144404
3.07149
0.00090966
3.05261
0.000661376
3.03371
0.000641095
3.01479
0.000650916
2.99585
0.000654679
2.97689
0.000658003
2.95791
0.000661119
2.93891
0.000663507
2.9199
0.00066547
2.90089
0.000666902
2.88186
0.000668157
2.86283
0.000668977
2.84379
0.000669791
2.82475
0.000670432
2.80571
0.000670994
2.78667
0.000671508
2.76764
0.000671997
2.74861
0.00067247
2.72959
0.000672936
2.71057
0.000673408
2.69155
0.000673886
2.67255
0.000674375
2.65355
0.000674867
2.63456
0.000675369
2.61558
0.000675881
2.59661
0.000676401
2.57765
0.000676936
2.5587
0.000677479
2.53977
0.00067803
2.52085
0.000678582
2.50195
0.000679154
2.48306
0.000679722
2.46419
0.000680312
2.44533
0.000680909
2.4265
0.000681516
2.40768
0.000682133
2.38889
0.00068275
2.37012
0.000683369
2.35137
0.000684002
2.33264
0.000684648
2.31394
0.0006853
2.29527
0.00068596
2.27662
0.000686628
2.258
0.000687322
2.23941
0.000688031
2.22085
0.000688749
2.20231
0.000689457
2.18382
0.000690155
2.16535
0.000690863
2.14692
0.000691584
2.12852
0.00069233
2.11016
0.000693103
2.09184
0.000693891
2.07356
0.000694672
2.05532
0.000695458
2.03711
0.000696253
2.01895
0.000697056
2.00083
0.000697854
1.98276
0.000698614
1.96473
0.00069933
1.94675
0.000700001
1.92881
0.000700613
1.91092
0.000701152
1.89308
0.000701606
1.87529
0.000701914
1.85756
0.000701998
1.83988
0.000701778
1.82225
0.000701175
1.80467
0.00070008
1.78715
0.000698342
1.76969
0.000695781
1.75229
0.000692215
1.73494
0.000687464
1.71765
0.000681354
1.70043
0.000673713
1.68327
0.000664355
1.66617
0.000653092
1.64913
0.000639751
1.63216
0.000624192
1.61526
0.000606326
1.59842
0.000586121
1.58165
0.00056362
1.56495
0.000538929
1.54831
0.000512221
1.53175
0.000483727
1.51526
0.000453736
1.49884
0.000422584
1.4825
0.000390649
1.46623
0.000358333
1.45004
0.000326045
1.43392
0.000294189
1.41788
0.000263149
1.40192
0.00023327
1.38603
0.000204856
1.37023
0.000178157
1.35451
0.000153364
1.33887
0.00013061
1.32332
0.000109966
1.30785
9.14529e-05
1.29246
7.50358e-05
1.27716
6.06393e-05
1.26195
4.81523e-05
1.24683
3.74373e-05
1.2318
2.83399e-05
1.21685
2.06969e-05
1.202
1.43398e-05
1.18724
9.10443e-06
1.17257
4.83096e-06
1.158
1.3733e-06
1.14352
-1.39006e-06
1.12913
-3.60675e-06
1.11484
-5.35815e-06
1.10065
-6.74178e-06
1.08655
-7.83387e-06
1.07255
-8.6959e-06
1.05865
-9.38101e-06
1.04485
-9.93079e-06
1.03115
-1.03799e-05
1.01755
-1.07546e-05
1.00404
-1.10757e-05
0.990643
-1.13577e-05
0.977344
-1.16124e-05
0.964148
-1.18482e-05
0.951054
-1.20719e-05
0.938063
-1.22876e-05
0.925175
-1.25004e-05
0.912392
-1.27114e-05
0.899712
-1.29221e-05
0.887137
-1.31323e-05
0.874667
-1.33431e-05
0.862302
-1.35539e-05
0.850043
-1.37664e-05
0.837889
-1.39814e-05
0.825841
-1.41998e-05
0.813899
-1.44206e-05
0.802064
-1.46432e-05
0.790334
-1.48672e-05
0.778711
-1.50928e-05
0.767195
-1.53198e-05
0.755785
-1.55483e-05
0.744482
-1.57789e-05
0.733286
-1.60123e-05
0.722196
-1.62478e-05
0.711213
-1.64851e-05
0.700336
-1.6724e-05
0.689565
-1.6965e-05
0.678901
-1.7208e-05
0.668344
-1.74525e-05
0.657892
-1.76979e-05
0.647545
-1.79454e-05
0.637305
-1.81953e-05
0.62717
-1.84465e-05
0.61714
-1.86993e-05
0.607214
-1.89528e-05
0.597393
-1.92085e-05
0.587677
-1.94656e-05
0.578064
-1.97246e-05
0.568555
-1.99846e-05
0.559149
-2.02463e-05
0.549845
-2.05095e-05
0.540644
-2.07746e-05
0.531545
-2.10401e-05
0.522547
-2.13066e-05
0.513651
-2.15737e-05
0.504855
-2.18425e-05
0.496159
-2.21136e-05
0.487562
-2.23851e-05
0.479065
-2.2657e-05
0.470666
-2.29283e-05
0.462365
-2.32016e-05
0.454162
-2.3477e-05
0.446056
-2.37543e-05
0.438046
-2.40308e-05
0.430133
-2.43103e-05
0.422314
-2.45826e-05
0.414591
-2.48708e-05
0.406962
-2.51274e-05
0.399427
-2.54553e-05
0.391986
-2.56352e-05
0.384637
-2.61187e-05
0.37738
-2.60044e-05
0.370215
-2.70045e-05
0.363141
-2.60527e-05
0.356158
-2.82944e-05
0.349264
-2.56902e-05
0.342461
-2.98834e-05
0.335745
-2.52485e-05
0.32912
-3.1425e-05
0.322581
-2.48382e-05
0.316132
-3.31074e-05
0.309768
-2.25663e-05
0.303493
-3.38683e-05
0.297299
-1.03929e-05
0.291182
1.58085e-05
0.285097
0.000226815
0.278864
0.00111545
0.27167
0.00518845
0.260795
0.0203445
0.227146
0.110694
0.187761
0.17316
3.52821
0.000857783
3.50653
0.000637289
3.48482
0.000610767
3.46308
0.000621608
3.44133
0.000625225
3.41955
0.000628284
3.39775
0.000631286
3.37592
0.000633593
3.35409
0.000635466
3.33225
0.000636839
3.31039
0.000638034
3.28852
0.000638827
3.26665
0.000639604
3.24478
0.000640217
3.22291
0.000640755
3.20105
0.000641246
3.17918
0.000641713
3.15732
0.000642166
3.13547
0.00064261
3.11362
0.000643061
3.09178
0.000643518
3.06995
0.000643985
3.04813
0.000644455
3.02631
0.000644935
3.00451
0.000645424
2.98272
0.00064592
2.96094
0.000646431
2.93918
0.00064695
2.91743
0.000647476
2.8957
0.000648003
2.87398
0.000648549
2.85228
0.000649092
2.83061
0.000649656
2.80895
0.000650225
2.78731
0.000650805
2.7657
0.000651395
2.74411
0.000651984
2.72255
0.000652575
2.70101
0.000653179
2.6795
0.000653797
2.65802
0.000654419
2.63657
0.000655049
2.61515
0.000655688
2.59376
0.000656351
2.5724
0.000657028
2.55108
0.000657713
2.52979
0.00065839
2.50854
0.000659056
2.48733
0.000659732
2.46616
0.000660421
2.44503
0.000661133
2.42394
0.000661872
2.4029
0.000662624
2.38189
0.00066337
2.36094
0.000664121
2.34003
0.00066488
2.31917
0.000665647
2.29835
0.000666408
2.27759
0.000667134
2.25688
0.000667818
2.23622
0.00066846
2.21562
0.000669044
2.19507
0.000669561
2.17458
0.000669995
2.15415
0.00067029
2.13377
0.000670371
2.11346
0.000670163
2.09321
0.000669589
2.07302
0.000668546
2.0529
0.000666889
2.03284
0.000664446
2.01285
0.000661047
1.99292
0.000656516
1.97307
0.00065069
1.95328
0.000643404
1.93357
0.000634479
1.91392
0.000623737
1.89435
0.000611013
1.87486
0.000596172
1.85544
0.000579129
1.8361
0.000559854
1.81684
0.000538387
1.79765
0.00051483
1.77855
0.000489346
1.75952
0.000462156
1.74058
0.000433534
1.72172
0.000403803
1.70294
0.000373322
1.68426
0.000342473
1.66565
0.000311649
1.64714
0.000281233
1.62871
0.000251593
1.61038
0.000223059
1.59213
0.00019592
1.57398
0.000170415
1.55592
0.000146727
1.53796
0.000124984
1.52009
0.000105255
1.50232
8.75584e-05
1.48465
7.18624e-05
1.46708
5.80954e-05
1.4496
4.61518e-05
1.43223
3.59007e-05
1.41496
2.71951e-05
1.3978
1.98792e-05
1.38074
1.37926e-05
1.36378
8.7785e-06
1.34693
4.68441e-06
1.33019
1.37097e-06
1.31356
-1.27838e-06
1.29703
-3.40422e-06
1.28062
-5.08415e-06
1.26431
-6.41182e-06
1.24812
-7.46005e-06
1.23204
-8.28764e-06
1.21607
-8.94547e-06
1.20022
-9.47337e-06
1.18448
-9.90452e-06
1.16885
-1.02642e-05
1.15334
-1.05722e-05
1.13795
-1.08426e-05
1.12267
-1.10867e-05
1.10752
-1.13125e-05
1.09247
-1.15266e-05
1.07755
-1.17329e-05
1.06275
-1.19363e-05
1.04806
-1.2138e-05
1.0335
-1.23394e-05
1.01905
-1.25401e-05
1.00473
-1.27415e-05
0.990525
-1.29429e-05
0.976443
-1.31458e-05
0.962482
-1.33511e-05
0.948642
-1.35597e-05
0.934925
-1.37705e-05
0.921329
-1.39831e-05
0.907856
-1.4197e-05
0.894504
-1.44125e-05
0.881276
-1.46293e-05
0.868169
-1.48475e-05
0.855186
-1.50676e-05
0.842324
-1.52905e-05
0.829585
-1.55155e-05
0.816969
-1.5742e-05
0.804475
-1.59702e-05
0.792103
-1.62003e-05
0.779853
-1.64324e-05
0.767725
-1.66659e-05
0.755719
-1.69002e-05
0.743834
-1.71366e-05
0.732071
-1.73752e-05
0.720429
-1.7615e-05
0.708907
-1.78565e-05
0.697506
-1.80985e-05
0.686225
-1.83428e-05
0.675063
-1.85882e-05
0.664021
-1.88356e-05
0.653098
-1.90838e-05
0.642293
-1.93338e-05
0.631606
-1.95851e-05
0.621037
-1.98383e-05
0.610585
-2.00918e-05
0.600249
-2.03462e-05
0.59003
-2.06014e-05
0.579926
-2.0858e-05
0.569937
-2.11169e-05
0.560062
-2.1376e-05
0.550301
-2.16359e-05
0.540653
-2.18948e-05
0.531118
-2.2156e-05
0.521695
-2.24187e-05
0.512384
-2.26839e-05
0.503183
-2.29471e-05
0.494093
-2.32158e-05
0.485112
-2.34722e-05
0.47624
-2.37549e-05
0.467477
-2.39846e-05
0.458822
-2.43291e-05
0.450273
-2.44382e-05
0.441832
-2.50205e-05
0.433496
-2.469e-05
0.425265
-2.60294e-05
0.417139
-2.44932e-05
0.409118
-2.75905e-05
0.401199
-2.37494e-05
0.393384
-2.95316e-05
0.38567
-2.29298e-05
0.37806
-3.13872e-05
0.370548
-2.21439e-05
0.363141
-3.34641e-05
0.35583
-1.87572e-05
0.348622
-3.4496e-05
0.341507
-2.69378e-06
0.334481
3.02078e-05
0.327491
0.000305319
0.320336
0.00145406
0.312089
0.00671897
0.299715
0.0260954
0.262462
0.141423
0.241097
0.202691
4.05285
0.000800294
4.02794
0.000608448
4.003
0.000576175
3.97804
0.000587872
3.95305
0.000591395
3.92803
0.000594165
3.90298
0.000597026
3.87791
0.000599233
3.85284
0.000601005
3.82774
0.000602309
3.80264
0.000603436
3.77752
0.000604196
3.7524
0.00060493
3.72728
0.000605511
3.70215
0.000606021
3.67704
0.000606486
3.65192
0.000606928
3.62681
0.000607356
3.60171
0.000607777
3.57661
0.000608203
3.55152
0.000608635
3.52644
0.000609078
3.50138
0.000609522
3.47632
0.000609975
3.45127
0.000610439
3.42624
0.000610908
3.40123
0.000611391
3.37623
0.000611882
3.35124
0.00061238
3.32628
0.000612878
3.30134
0.000613394
3.27641
0.000613908
3.25151
0.000614441
3.22663
0.00061498
3.20178
0.000615529
3.17696
0.000616086
3.15216
0.000616644
3.12739
0.000617203
3.10265
0.000617775
3.07794
0.000618358
3.05326
0.000618947
3.02862
0.000619543
3.00401
0.000620148
2.97944
0.000620775
2.95491
0.000621415
2.93042
0.000622063
2.90597
0.000622703
2.88156
0.000623333
2.85719
0.000623972
2.83287
0.000624624
2.8086
0.000625298
2.78438
0.000625997
2.7602
0.000626709
2.73608
0.000627414
2.712
0.000628125
2.68799
0.000628843
2.66402
0.000629568
2.64011
0.000630287
2.61626
0.000630973
2.59247
0.000631621
2.56874
0.000632228
2.54508
0.000632782
2.52147
0.000633272
2.49793
0.000633684
2.47446
0.000633964
2.45106
0.000634041
2.42773
0.000633846
2.40447
0.000633305
2.38128
0.000632321
2.35816
0.000630756
2.33512
0.00062845
2.31215
0.00062524
2.28927
0.000620962
2.26646
0.000615461
2.24373
0.00060858
2.22108
0.000600152
2.19852
0.000590006
2.17604
0.000577987
2.15365
0.000563968
2.13134
0.000547867
2.10912
0.000529658
2.087
0.000509376
2.06496
0.000487117
2.04301
0.000463036
2.02116
0.00043734
1.9994
0.000410289
1.97774
0.000382186
1.95617
0.000353372
1.9347
0.000324207
1.91333
0.000295062
1.89206
0.0002663
1.8709
0.000238267
1.84984
0.000211277
1.82888
0.000185603
1.80803
0.000161472
1.78729
0.000139056
1.76665
0.000118477
1.74613
9.98002e-05
1.72571
8.30441e-05
1.70541
6.81795e-05
1.68523
5.51388e-05
1.66516
4.38227e-05
1.6452
3.41077e-05
1.62537
2.58551e-05
1.60565
1.89181e-05
1.58605
1.31449e-05
1.56657
8.38738e-06
1.54722
4.50091e-06
1.52799
1.35319e-06
1.50888
-1.15357e-06
1.4899
-3.17975e-06
1.47104
-4.77625e-06
1.45231
-6.03835e-06
1.43371
-7.03515e-06
1.41524
-7.82232e-06
1.3969
-8.44806e-06
1.37869
-8.95024e-06
1.36061
-9.36029e-06
1.34266
-9.70224e-06
1.32484
-9.99497e-06
1.30716
-1.02518e-05
1.28961
-1.04834e-05
1.2722
-1.06976e-05
1.25492
-1.09005e-05
1.23778
-1.1096e-05
1.22078
-1.12887e-05
1.20391
-1.14796e-05
1.18718
-1.16701e-05
1.17058
-1.18601e-05
1.15413
-1.20506e-05
1.13781
-1.22411e-05
1.12164
-1.24331e-05
1.1056
-1.26273e-05
1.0897
-1.28246e-05
1.07395
-1.3024e-05
1.05833
-1.3225e-05
1.04285
-1.34274e-05
1.02752
-1.36312e-05
1.01232
-1.38362e-05
0.997265
-1.40426e-05
0.98235
-1.42508e-05
0.967576
-1.44616e-05
0.952943
-1.46744e-05
0.938451
-1.48886e-05
0.924099
-1.51045e-05
0.909887
-1.53221e-05
0.895816
-1.55416e-05
0.881885
-1.57624e-05
0.868093
-1.5984e-05
0.854441
-1.62076e-05
0.840929
-1.64333e-05
0.827555
-1.66601e-05
0.814321
-1.68885e-05
0.801224
-1.71173e-05
0.788265
-1.73484e-05
0.775444
-1.75805e-05
0.76276
-1.78145e-05
0.750213
-1.80493e-05
0.737801
-1.82857e-05
0.725525
-1.85234e-05
0.713384
-1.87629e-05
0.701378
-1.90026e-05
0.689505
-1.92432e-05
0.677766
-1.94846e-05
0.66616
-1.97273e-05
0.654685
-1.99722e-05
0.643342
-2.02172e-05
0.63213
-2.04632e-05
0.621047
-2.07078e-05
0.610094
-2.0955e-05
0.59927
-2.12032e-05
0.588574
-2.14545e-05
0.578005
-2.17026e-05
0.567563
-2.19586e-05
0.557247
-2.2197e-05
0.547056
-2.2473e-05
0.53699
-2.26724e-05
0.527048
-2.3035e-05
0.517228
-2.30639e-05
0.507531
-2.37587e-05
0.497956
-2.31804e-05
0.488502
-2.49105e-05
0.479167
-2.2699e-05
0.469953
-2.67882e-05
0.460856
-2.15099e-05
0.45188
-2.91429e-05
0.443018
-2.02455e-05
0.434277
-3.13723e-05
0.425648
-1.90142e-05
0.417139
-3.39214e-05
0.408742
-1.43225e-05
0.400461
-3.53038e-05
0.392289
6.16532e-06
0.384218
4.63459e-05
0.376191
0.000394109
0.367978
0.00183634
0.358534
0.00844696
0.344441
0.032581
0.302942
0.175427
0.299559
0.23709
17.6806
0.000573275
17.5719
0.000469651
17.4631
0.000428315
17.3542
0.000440265
17.2452
0.000443848
17.1361
0.000445559
17.0268
0.000447675
16.9174
0.000449374
16.808
0.000450701
16.6986
0.000451695
16.589
0.000452532
16.4795
0.000453124
16.3699
0.000453672
16.2603
0.000454111
16.1507
0.000454496
16.0411
0.000454847
15.9315
0.000455178
15.822
0.000455501
15.7125
0.000455816
15.603
0.000456137
15.4935
0.000456461
15.3841
0.000456793
15.2748
0.000457126
15.1655
0.000457467
15.0562
0.000457815
14.947
0.000458167
14.8379
0.000458529
14.7288
0.000458898
14.6198
0.000459272
14.5109
0.000459646
14.4021
0.000460034
14.2934
0.00046042
14.1847
0.00046082
14.0762
0.000461224
13.9678
0.000461636
13.8595
0.000462055
13.7513
0.000462474
13.6433
0.000462894
13.5353
0.000463322
13.4275
0.000463759
13.3199
0.000464201
13.2124
0.000464648
13.105
0.000465103
12.9978
0.000465574
12.8908
0.000466055
12.784
0.00046654
12.6773
0.000467019
12.5708
0.000467492
12.4645
0.000467972
12.3584
0.000468462
12.2525
0.000468969
12.1469
0.000469493
12.0414
0.000470027
11.9362
0.000470556
11.8311
0.00047109
11.7264
0.000471629
11.6218
0.000472172
11.5175
0.00047271
11.4135
0.000473224
11.3097
0.00047371
11.2062
0.000474167
11.1029
0.000474585
10.9999
0.000474955
10.8973
0.000475267
10.7949
0.000475479
10.6928
0.000475539
10.591
0.000475397
10.4895
0.000474996
10.3883
0.000474265
10.2875
0.000473098
10.187
0.000471378
10.0868
0.000468983
9.98694
0.000465792
9.88743
0.000461688
9.78828
0.000456554
9.68948
0.000450264
9.59105
0.00044269
9.49299
0.000433716
9.3953
0.000423246
9.29799
0.00041122
9.20107
0.000397616
9.10453
0.000382459
9.00839
0.000365821
8.91265
0.000347816
8.81731
0.000328599
8.72239
0.000308362
8.62789
0.000287331
8.5338
0.000265761
8.44015
0.000243921
8.34693
0.000222087
8.25415
0.000200532
8.16181
0.000179514
8.06993
0.000159269
7.97851
0.000140001
7.88754
0.000121882
7.79705
0.000105041
7.70703
8.95711e-05
7.6175
7.55224e-05
7.52845
6.29093e-05
7.43989
5.17117e-05
7.35183
4.18802e-05
7.26427
3.33415e-05
7.17722
2.60044e-05
7.09068
1.97657e-05
7.00466
1.4516e-05
6.91917
1.01427e-05
6.8342
6.53563e-06
6.74976
3.591e-06
6.66587
1.21675e-06
6.58251
-7.74124e-07
6.4997
-2.2691e-06
6.41744
-3.48584e-06
6.33574
-4.45102e-06
6.25459
-5.21392e-06
6.17401
-5.81719e-06
6.09399
-6.29705e-06
6.01454
-6.68236e-06
5.93567
-6.99682e-06
5.85737
-7.2588e-06
5.77965
-7.48266e-06
5.70251
-7.67865e-06
5.62596
-7.85497e-06
5.54999
-8.01763e-06
5.47462
-8.17128e-06
5.39984
-8.31906e-06
5.32565
-8.46441e-06
5.25206
-8.60818e-06
5.17908
-8.7515e-06
5.10669
-8.89435e-06
5.03491
-9.03739e-06
4.96373
-9.18049e-06
4.89316
-9.32459e-06
4.8232
-9.47037e-06
4.75385
-9.61832e-06
4.6851
-9.76793e-06
4.61697
-9.91873e-06
4.54946
-1.00705e-05
4.48255
-1.02233e-05
4.41626
-1.03771e-05
4.35058
-1.05319e-05
4.28551
-1.06882e-05
4.22106
-1.08462e-05
4.15723
-1.10058e-05
4.094
-1.11665e-05
4.03139
-1.13283e-05
3.96939
-1.14916e-05
3.90801
-1.16561e-05
3.84723
-1.18218e-05
3.78707
-1.1988e-05
3.72751
-1.21557e-05
3.66856
-1.2325e-05
3.61022
-1.24949e-05
3.55248
-1.26665e-05
3.49535
-1.28378e-05
3.43882
-1.30115e-05
3.38288
-1.31852e-05
3.32755
-1.3361e-05
3.27281
-1.35369e-05
3.21867
-1.37144e-05
3.16511
-1.38923e-05
3.11215
-1.40723e-05
3.05977
-1.42519e-05
3.00798
-1.44323e-05
2.95676
-1.46137e-05
2.90613
-1.47952e-05
2.85607
-1.49795e-05
2.80659
-1.51624e-05
2.75767
-1.53479e-05
2.70933
-1.55303e-05
2.66154
-1.57168e-05
2.61432
-1.59016e-05
2.56766
-1.60921e-05
2.52156
-1.62744e-05
2.476
-1.64745e-05
2.431
-1.66357e-05
2.38654
-1.68799e-05
2.34263
-1.69514e-05
2.29925
-1.73881e-05
2.25641
-1.70711e-05
2.21411
-1.82585e-05
2.17234
-1.65815e-05
2.13109
-2.00669e-05
2.09037
-1.48028e-05
2.05018
-2.34091e-05
2.01049
-1.15593e-05
1.97133
-2.77067e-05
1.93267
-8.18354e-06
1.89454
-3.17778e-05
1.85689
-4.76407e-06
1.81978
-3.67129e-05
1.78314
6.00424e-06
1.74702
-4.02798e-05
1.71137
4.49884e-05
1.67616
0.000110354
1.64117
0.00075902
1.60545
0.00339086
1.56483
0.0154128
1.50467
0.0595463
1.34406
0.303342
0.527315
1.08406
17.6805
0.000369943
17.5719
0.000318706
17.4631
0.000284196
17.3542
0.000293029
17.2452
0.000296029
17.136
0.000296986
17.0268
0.000298377
16.9174
0.000299539
16.808
0.000300429
16.6985
0.000301103
16.589
0.000301661
16.4794
0.000302069
16.3698
0.000302436
16.2603
0.000302732
16.1507
0.000302991
16.0411
0.000303226
15.9315
0.000303449
15.822
0.000303665
15.7125
0.000303875