/*--------------------------------*- C++ -*----------------------------------*\
| =========                 |                                                 |
| \\      /  F ield         | OpenFOAM: The Open Source CFD Toolbox           |
|  \\    /   O peration     | Version:  3.0.x                                 |
|   \\  /    A nd           | Web:      www.OpenFOAM.org                      |
|    \\/     M anipulation  |                                                 |
\*---------------------------------------------------------------------------*/
FoamFile
{
    version     2.0;
    format      ascii;
    class       surfaceScalarField;
    location    "0.31";
    object      phi;
}
// * * * * * * * * * * * * * * * * * * * * * * * * * * * * * * * * * * * * * //

dimensions      [1 0 -1 0 0 0 0];

internalField   nonuniform List<scalar> 
52430
(
3.90609
0.000243625
3.90591
0.000176133
3.90574
0.000169103
3.90557
0.000170335
3.9054
0.000170748
3.90523
0.000170692
3.90506
0.000170665
3.90489
0.00017066
3.90472
0.00017066
3.90455
0.00017066
3.90437
0.000170644
3.9042
0.000170644
3.90403
0.000170637
3.90386
0.000170629
3.90369
0.00017062
3.90352
0.000170611
3.90335
0.000170595
3.90317
0.000170632
3.903
0.000170541
3.90282
0.000170569
3.90265
0.000170562
3.90248
0.000170556
3.90231
0.000170551
3.90214
0.000170532
3.90197
0.000170543
3.9018
0.000170619
3.90163
0.000170498
3.90147
0.00017055
3.9013
0.000170554
3.90113
0.000170556
3.90097
0.000170557
3.9008
0.000170557
3.90063
0.000170556
3.90046
0.000170553
3.90029
0.000170549
3.90012
0.000170542
3.89995
0.000170538
3.89978
0.000170532
3.8996
0.000170522
3.89943
0.000170526
3.89925
0.000170509
3.89908
0.0001705
3.89891
0.000170492
3.89874
0.000170484
3.89857
0.000170476
3.8984
0.000170441
3.89823
0.000170461
3.89806
0.00017049
3.89789
0.000170455
3.89772
0.000170452
3.89755
0.00017045
3.89738
0.000170435
3.89721
0.000170434
3.89704
0.000170472
3.89687
0.000170444
3.8967
0.000170431
3.89653
0.000170431
3.89636
0.000170433
3.8962
0.000170645
3.89603
0.000170273
3.89587
0.000170438
3.8957
0.000170442
3.89553
0.000170442
3.89537
0.000170441
3.8952
0.00017044
3.89503
0.000170438
3.89486
0.000170434
3.89469
0.000170429
3.89452
0.000170423
3.89435
0.000170417
3.89419
0.00017041
3.89401
0.000170382
3.89384
0.000170342
3.89367
0.00017032
3.89349
0.00017027
3.89332
0.000170204
3.89315
0.000170115
3.89298
0.000169996
3.89282
0.000169806
3.89265
0.000169621
3.89248
0.0001695
3.89232
0.000168958
3.89215
0.0001686
3.89199
0.000168065
3.89183
0.000167392
3.89167
0.000166566
3.8915
0.000165561
3.89134
0.00016435
3.89118
0.000162907
3.89102
0.000161205
3.89087
0.000159219
3.89071
0.000156924
3.89056
0.000154299
3.89041
0.000151326
3.89026
0.000147994
3.89012
0.000144295
3.88998
0.000140225
3.88985
0.000135792
3.88972
0.000131024
3.8896
0.000125912
3.88948
0.000120505
3.88937
0.000114832
3.88926
0.000108934
3.88916
0.000102857
3.88906
9.66501e-05
3.88898
9.03679e-05
3.88889
8.40653e-05
3.88882
7.77884e-05
3.88875
7.1592e-05
3.88869
6.55426e-05
3.88863
5.96686e-05
3.88858
5.40169e-05
3.88853
4.86234e-05
3.88849
4.35178e-05
3.88845
3.87235e-05
3.88842
3.42571e-05
3.88839
3.01287e-05
3.88837
2.63425e-05
3.88835
2.28968e-05
3.88833
1.97848e-05
3.88832
1.69956e-05
3.88831
1.45142e-05
3.8883
1.23231e-05
3.88829
1.04026e-05
3.88828
8.73156e-06
3.88828
7.28802e-06
3.88828
6.04996e-06
3.88827
4.99568e-06
3.88827
4.10422e-06
3.88827
3.35571e-06
3.88827
2.73173e-06
3.88827
2.21444e-06
3.88828
1.78952e-06
3.88828
1.44223e-06
3.88828
1.16042e-06
3.88828
9.33267e-07
3.88829
7.51377e-07
3.88829
6.06684e-07
3.88829
4.92328e-07
3.8883
4.02535e-07
3.8883
3.32475e-07
3.8883
2.78162e-07
3.88831
2.36316e-07
3.88831
2.04289e-07
3.88832
1.79922e-07
3.88832
1.61495e-07
3.88832
1.47655e-07
3.88833
1.37316e-07
3.88833
1.29643e-07
3.88834
1.23986e-07
3.88834
1.19839e-07
3.88835
1.16819e-07
3.88835
1.1464e-07
3.88836
1.1307e-07
3.88836
1.11953e-07
3.88837
1.11166e-07
3.88837
1.10613e-07
3.88838
1.10231e-07
3.88838
1.09974e-07
3.88839
1.098e-07
3.88839
1.09691e-07
3.8884
1.09625e-07
3.8884
1.09589e-07
3.88841
1.09574e-07
3.88841
1.0957e-07
3.88842
1.09581e-07
3.88843
1.096e-07
3.88843
1.09621e-07
3.88844
1.09647e-07
3.88844
1.09678e-07
3.88845
1.09709e-07
3.88846
1.09738e-07
3.88846
1.09772e-07
3.88847
1.09807e-07
3.88848
1.09843e-07
3.88848
1.0988e-07
3.88849
1.09912e-07
3.8885
1.09951e-07
3.8885
1.09991e-07
3.88851
1.10029e-07
3.88852
1.10069e-07
3.88852
1.10109e-07
3.88853
1.10151e-07
3.88854
1.10191e-07
3.88855
1.10231e-07
3.88855
1.10276e-07
3.88856
1.10316e-07
3.88857
1.10358e-07
3.88858
1.104e-07
3.88858
1.10447e-07
3.88859
1.105e-07
3.8886
1.10549e-07
3.88861
1.10609e-07
3.88861
1.10675e-07
3.88862
1.1074e-07
3.88863
1.10811e-07
3.88864
1.10884e-07
3.88865
1.10955e-07
3.88866
1.1102e-07
3.88867
1.11078e-07
3.88867
1.11135e-07
3.88868
1.11186e-07
3.88869
1.11238e-07
3.8887
1.11286e-07
3.88871
1.11337e-07
3.88872
1.11389e-07
3.88873
1.11448e-07
3.88874
1.11513e-07
3.88875
1.11582e-07
3.88876
1.11666e-07
3.88877
1.11751e-07
3.88878
1.11844e-07
3.88879
1.11942e-07
3.8888
1.12044e-07
3.88881
1.12152e-07
3.88883
1.12264e-07
3.88884
1.12377e-07
3.88885
1.12494e-07
3.88886
1.12614e-07
3.88887
1.12736e-07
3.88889
1.12861e-07
3.8889
1.12992e-07
3.88891
1.1313e-07
3.88892
1.13274e-07
3.88894
1.13423e-07
3.88895
1.13576e-07
3.88897
1.13736e-07
3.88898
1.13898e-07
3.889
1.14071e-07
3.88901
1.14253e-07
3.88903
1.14445e-07
3.88904
1.1464e-07
3.88906
1.14847e-07
3.88908
1.15066e-07
3.8891
1.15289e-07
3.88911
1.15524e-07
3.88913
1.15768e-07
3.88915
1.16021e-07
3.88917
1.16284e-07
3.88919
1.16563e-07
3.88921
1.1685e-07
3.88923
1.17148e-07
3.88926
1.17461e-07
3.88928
1.17783e-07
3.8893
1.18122e-07
3.88933
1.18473e-07
3.88935
1.18836e-07
3.88938
1.19213e-07
3.88941
1.19604e-07
3.88943
1.20008e-07
3.88946
1.20428e-07
3.88949
1.20865e-07
3.88952
1.21308e-07
3.88955
1.2177e-07
3.88959
1.22249e-07
3.88962
1.22742e-07
3.88965
1.23247e-07
3.88969
1.23773e-07
3.88973
1.2431e-07
3.88976
1.24863e-07
3.8898
1.2543e-07
3.88984
1.26014e-07
3.88988
1.26618e-07
3.88993
1.27229e-07
3.88997
1.27859e-07
3.89002
1.28503e-07
3.89006
1.29163e-07
3.89011
1.29836e-07
3.89016
1.3052e-07
3.89021
1.31216e-07
3.89027
1.31928e-07
3.89032
1.32652e-07
3.89038
1.3339e-07
3.89043
1.34132e-07
3.89049
1.34889e-07
3.89055
1.3566e-07
3.89062
1.36439e-07
3.89068
1.37228e-07
3.89075
1.38023e-07
3.89081
1.38822e-07
3.89088
1.39631e-07
3.89095
1.40446e-07
3.89103
1.41265e-07
3.8911
1.42079e-07
3.89118
1.42894e-07
3.89125
1.43709e-07
3.89133
1.44521e-07
3.89142
1.45326e-07
3.8915
1.46134e-07
3.89158
1.46942e-07
3.89167
1.47744e-07
3.89176
1.48537e-07
3.89185
1.49328e-07
3.89194
1.50105e-07
3.89204
1.50878e-07
3.89213
1.51636e-07
3.89223
1.52386e-07
3.89233
1.53113e-07
3.89243
1.53821e-07
3.89253
1.54512e-07
3.89263
1.55174e-07
3.89274
1.55807e-07
3.89285
1.56415e-07
3.89295
1.56992e-07
3.89306
1.57543e-07
3.89317
1.58056e-07
3.89329
1.58538e-07
3.8934
1.58978e-07
3.89351
1.59383e-07
3.89363
1.59751e-07
3.89375
1.60077e-07
3.89386
1.60369e-07
3.89398
1.60617e-07
3.8941
1.60824e-07
3.89422
1.60979e-07
3.89434
1.61095e-07
3.89447
1.61146e-07
3.89459
1.61157e-07
3.89471
1.61122e-07
3.89483
1.61021e-07
3.89496
1.6087e-07
3.89508
1.6066e-07
3.8952
1.60409e-07
3.89533
1.60073e-07
3.89545
1.59687e-07
3.89557
1.5926e-07
3.89569
1.58743e-07
3.89581
1.58176e-07
3.89594
1.57537e-07
3.89606
1.56862e-07
3.89618
1.56066e-07
3.89629
1.55265e-07
3.89641
1.54396e-07
3.89653
1.53412e-07
3.89664
1.52389e-07
3.89675
1.51314e-07
3.89687
1.50194e-07
3.89698
1.48908e-07
3.89708
1.47698e-07
3.89719
1.46376e-07
3.89729
1.44924e-07
3.8974
1.43429e-07
3.8975
1.41983e-07
3.89759
1.40382e-07
3.89769
1.38671e-07
3.89778
1.3699e-07
3.89787
1.35331e-07
3.89796
1.33399e-07
3.89804
1.31562e-07
3.89812
1.29652e-07
3.8982
1.27759e-07
3.89827
1.25576e-07
3.89834
1.23613e-07
3.89841
1.21603e-07
3.89847
1.19231e-07
3.89853
1.17228e-07
3.89859
1.14927e-07
3.89864
1.12732e-07
3.89869
1.1024e-07
3.89874
1.07995e-07
3.89878
1.05925e-07
3.89881
1.03126e-07
3.89885
1.00976e-07
3.89887
9.83782e-08
3.8989
9.62791e-08
3.89892
9.35524e-08
3.89893
9.13133e-08
3.89894
8.88685e-08
3.89895
8.5085e-08
3.89895
8.24402e-08
3.89895
8.592e-08
3.89895
7.56954e-08
3.89894
7.59665e-08
3.89892
7.37637e-08
3.8989
7.14062e-08
3.89888
6.91398e-08
3.89885
6.71134e-08
3.89882
6.56273e-08
3.89878
6.54527e-08
3.89874
6.83449e-08
3.89869
7.85258e-08
3.89864
1.06151e-07
3.89859
1.75409e-07
3.89853
3.44204e-07
3.89847
7.51059e-07
3.8984
1.72717e-06
3.89832
4.06457e-06
3.89824
9.65736e-06
3.89814
2.3034e-05
3.898
5.50174e-05
3.89779
0.000131464
3.89738
0.000314068
3.89654
0.000750312
3.89465
0.00179059
3.89029
0.00426243
3.88012
0.0100683
3.85619
0.0238253
3.79935
0.0567275
3.65777
0.141474
0.381779
3.27587
5.52445
0.000213026
5.52446
0.000170388
5.52447
0.000156211
5.52448
0.00015843
5.52449
0.000159427
5.5245
0.000159322
5.52451
0.00015927
5.52452
0.000159281
5.52453
0.000159299
5.52454
0.000159309
5.52456
0.000159312
5.52457
0.000159319
5.52458
0.000159324
5.52459
0.000159327
5.5246
0.000159329
5.52461
0.000159332
5.52462
0.000159329
5.52462
0.00015936
5.52463
0.00015931
5.52463
0.000159335
5.52464
0.000159339
5.52465
0.000159343
5.52466
0.000159349
5.52467
0.000159345
5.52468
0.000159365
5.5247
0.000159433
5.52472
0.00015935
5.52473
0.000159399
5.52475
0.000159415
5.52476
0.000159427
5.52478
0.000159438
5.52479
0.000159449
5.5248
0.000159458
5.52481
0.000159466
5.52483
0.000159473
5.52484
0.000159478
5.52485
0.000159484
5.52486
0.000159489
5.52487
0.000159491
5.52487
0.0001595
5.52488
0.000159498
5.52488
0.000159501
5.52489
0.000159503
5.5249
0.000159506
5.52491
0.000159508
5.52492
0.000159491
5.52493
0.000159516
5.52495
0.000159549
5.52496
0.000159531
5.52497
0.000159539
5.52499
0.000159546
5.525
0.000159546
5.52501
0.000159553
5.52502
0.000159594
5.52503
0.000159584
5.52504
0.000159582
5.52505
0.000159595
5.52507
0.000159609
5.52508
0.000159789
5.5251
0.000159496
5.52512
0.000159634
5.52513
0.000159654
5.52515
0.000159664
5.52516
0.000159674
5.52518
0.000159683
5.52519
0.000159691
5.5252
0.000159698
5.52522
0.000159704
5.52523
0.000159708
5.52524
0.000159714
5.52525
0.000159716
5.52526
0.000159699
5.52527
0.000159668
5.52528
0.00015966
5.52528
0.00015962
5.52529
0.000159566
5.5253
0.000159489
5.52531
0.000159383
5.52532
0.000159213
5.52534
0.000159042
5.52535
0.000158909
5.52537
0.000158426
5.52539
0.000158068
5.5254
0.000157562
5.52542
0.000156917
5.52544
0.000156125
5.52545
0.000155159
5.52547
0.000153996
5.52548
0.000152609
5.52549
0.000150974
5.52551
0.000149067
5.52552
0.000146864
5.52553
0.000144348
5.52554
0.000141501
5.52556
0.000138312
5.52557
0.000134777
5.52558
0.000130896
5.52559
0.000126667
5.5256
0.000122128
5.52561
0.000117272
5.52562
0.00011214
5.52563
0.000106766
5.52565
0.000101187
5.52566
9.54477e-05
5.52567
8.9596e-05
5.52567
8.36828e-05
5.52568
7.77603e-05
5.52569
7.18724e-05
5.5257
6.60707e-05
5.52571
6.0415e-05
5.52572
5.49337e-05
5.52572
4.96688e-05
5.52573
4.46531e-05
5.52574
3.99136e-05
5.52575
3.54707e-05
5.52575
3.13387e-05
5.52576
2.75261e-05
5.52576
2.40355e-05
5.52577
2.08641e-05
5.52577
1.80048e-05
5.52578
1.54462e-05
5.52578
1.31738e-05
5.52579
1.11706e-05
5.52579
9.41766e-06
5.5258
7.89483e-06
5.5258
6.58145e-06
5.52581
5.45683e-06
5.52581
4.50064e-06
5.52582
3.69338e-06
5.52582
3.01663e-06
5.52583
2.4533e-06
5.52583
1.98706e-06
5.52584
1.6046e-06
5.52584
1.2925e-06
5.52585
1.03962e-06
5.52585
8.36087e-07
5.52586
6.73346e-07
5.52586
5.44074e-07
5.52587
4.42055e-07
5.52587
3.62063e-07
5.52588
2.99739e-07
5.52588
2.51493e-07
5.52589
2.14376e-07
5.5259
1.86005e-07
5.5259
1.6445e-07
5.52591
1.48171e-07
5.52591
1.35962e-07
5.52592
1.26859e-07
5.52593
1.20109e-07
5.52593
1.15137e-07
5.52594
1.11503e-07
5.52594
1.08859e-07
5.52595
1.06951e-07
5.52596
1.0558e-07
5.52597
1.04606e-07
5.52597
1.0392e-07
5.52598
1.0344e-07
5.52599
1.03109e-07
5.52599
1.02887e-07
5.526
1.02737e-07
5.52601
1.02642e-07
5.52602
1.02585e-07
5.52602
1.02554e-07
5.52603
1.02539e-07
5.52604
1.02542e-07
5.52605
1.0255e-07
5.52606
1.02566e-07
5.52606
1.02586e-07
5.52607
1.02609e-07
5.52608
1.02636e-07
5.52609
1.02661e-07
5.5261
1.02689e-07
5.52611
1.02721e-07
5.52612
1.02752e-07
5.52613
1.02785e-07
5.52614
1.02816e-07
5.52614
1.02849e-07
5.52615
1.02882e-07
5.52616
1.02915e-07
5.52617
1.0295e-07
5.52618
1.02989e-07
5.52619
1.03023e-07
5.5262
1.03058e-07
5.52621
1.03099e-07
5.52622
1.03135e-07
5.52623
1.03176e-07
5.52624
1.03215e-07
5.52626
1.03253e-07
5.52627
1.03294e-07
5.52628
1.03339e-07
5.52629
1.03386e-07
5.5263
1.03435e-07
5.52631
1.0349e-07
5.52632
1.03552e-07
5.52633
1.03613e-07
5.52635
1.03683e-07
5.52636
1.03752e-07
5.52637
1.0382e-07
5.52638
1.0388e-07
5.52639
1.03937e-07
5.52641
1.03989e-07
5.52642
1.04039e-07
5.52643
1.04086e-07
5.52644
1.04133e-07
5.52646
1.04182e-07
5.52647
1.04234e-07
5.52648
1.04291e-07
5.5265
1.04355e-07
5.52651
1.04424e-07
5.52653
1.04503e-07
5.52654
1.04586e-07
5.52656
1.04674e-07
5.52657
1.04767e-07
5.52659
1.04868e-07
5.5266
1.0497e-07
5.52662
1.05078e-07
5.52663
1.05186e-07
5.52665
1.05296e-07
5.52667
1.0541e-07
5.52669
1.0552e-07
5.5267
1.05641e-07
5.52672
1.05764e-07
5.52674
1.05892e-07
5.52676
1.06024e-07
5.52678
1.06167e-07
5.5268
1.06308e-07
5.52682
1.06456e-07
5.52684
1.06605e-07
5.52686
1.06766e-07
5.52688
1.06935e-07
5.5269
1.07114e-07
5.52693
1.07297e-07
5.52695
1.07489e-07
5.52697
1.07688e-07
5.527
1.07894e-07
5.52702
1.08113e-07
5.52705
1.08338e-07
5.52708
1.08574e-07
5.52711
1.0882e-07
5.52713
1.09079e-07
5.52716
1.09346e-07
5.5272
1.09625e-07
5.52723
1.09914e-07
5.52726
1.10214e-07
5.52729
1.10529e-07
5.52733
1.10857e-07
5.52736
1.11195e-07
5.5274
1.11548e-07
5.52744
1.11912e-07
5.52748
1.12286e-07
5.52752
1.12676e-07
5.52756
1.13083e-07
5.5276
1.13494e-07
5.52765
1.13922e-07
5.52769
1.14367e-07
5.52774
1.14826e-07
5.52779
1.15297e-07
5.52784
1.15786e-07
5.52789
1.16283e-07
5.52794
1.16802e-07
5.528
1.17328e-07
5.52806
1.17868e-07
5.52811
1.18428e-07
5.52818
1.19e-07
5.52824
1.19588e-07
5.5283
1.20188e-07
5.52837
1.20803e-07
5.52844
1.21429e-07
5.52851
1.22069e-07
5.52858
1.22721e-07
5.52865
1.23383e-07
5.52873
1.24061e-07
5.52881
1.2475e-07
5.52889
1.25445e-07
5.52898
1.26154e-07
5.52906
1.26875e-07
5.52915
1.27608e-07
5.52924
1.28342e-07
5.52933
1.29088e-07
5.52943
1.29839e-07
5.52953
1.30591e-07
5.52963
1.31355e-07
5.52973
1.32118e-07
5.52983
1.32883e-07
5.52994
1.33641e-07
5.53005
1.34402e-07
5.53016
1.35161e-07
5.53028
1.35916e-07
5.5304
1.36672e-07
5.53052
1.37424e-07
5.53064
1.38176e-07
5.53077
1.38919e-07
5.53089
1.39661e-07
5.53102
1.40388e-07
5.53116
1.41107e-07
5.53129
1.41818e-07
5.53143
1.42521e-07
5.53157
1.43203e-07
5.53171
1.43866e-07
5.53185
1.44512e-07
5.532
1.45135e-07
5.53215
1.45728e-07
5.5323
1.46295e-07
5.53245
1.46834e-07
5.53261
1.47352e-07
5.53277
1.47833e-07
5.53293
1.48285e-07
5.53309
1.48697e-07
5.53325
1.49079e-07
5.53341
1.49425e-07
5.53358
1.49731e-07
5.53374
1.50003e-07
5.53391
1.50238e-07
5.53408
1.50433e-07
5.53425
1.50576e-07
5.53442
1.50686e-07
5.53459
1.50733e-07
5.53477
1.50743e-07
5.53494
1.50713e-07
5.53511
1.50619e-07
5.53529
1.50472e-07
5.53546
1.5028e-07
5.53564
1.50046e-07
5.53581
1.49736e-07
5.53598
1.49371e-07
5.53616
1.48971e-07
5.53633
1.48491e-07
5.5365
1.47971e-07
5.53667
1.47359e-07
5.53684
1.46727e-07
5.53701
1.45981e-07
5.53718
1.45257e-07
5.53734
1.44421e-07
5.53751
1.43508e-07
5.53767
1.42551e-07
5.53783
1.41529e-07
5.53799
1.40503e-07
5.53814
1.39271e-07
5.5383
1.38209e-07
5.53845
1.36911e-07
5.53859
1.3558e-07
5.53874
1.34131e-07
5.53888
1.32848e-07
5.53902
1.31306e-07
5.53915
1.29727e-07
5.53928
1.28124e-07
5.53941
1.26608e-07
5.53953
1.24794e-07
5.53965
1.2309e-07
5.53976
1.21245e-07
5.53987
1.19566e-07
5.53998
1.17459e-07
5.54008
1.15656e-07
5.54017
1.13767e-07
5.54026
1.11493e-07
5.54035
1.09838e-07
5.54043
1.07465e-07
5.5405
1.05491e-07
5.54057
1.03154e-07
5.54063
1.00975e-07
5.54069
9.9255e-08
5.54074
9.64083e-08
5.54079
9.4693e-08
5.54083
9.18189e-08
5.54086
9.03592e-08
5.54089
8.77708e-08
5.54091
8.57335e-08
5.54093
8.31706e-08
5.54094
7.8363e-08
5.54094
7.5871e-08
5.54094
8.52388e-08
5.54093
6.88633e-08
5.54091
7.07914e-08
5.54089
6.91543e-08
5.54086
6.7098e-08
5.54083
6.5229e-08
5.54079
6.3902e-08
5.54074
6.3852e-08
5.54069
6.69261e-08
5.54063
7.7328e-08
5.54057
1.05241e-07
5.5405
1.75108e-07
5.54042
3.45157e-07
5.54034
7.54803e-07
5.54025
1.73754e-06
5.54015
4.09078e-06
5.54005
9.72142e-06
5.53993
2.31897e-05
5.53978
5.53986e-05
5.53959
0.000132406
5.53929
0.000316465
5.53872
0.000756118
5.53753
0.00180649
5.53487
0.00431128
5.52873
0.0102643
5.51441
0.024249
5.48068
0.0573975
5.40059
0.136665
5.20242
0.339487
0.875241
4.7088
7.81275
0.000176103
7.81276
0.000158686
7.81277
0.000138965
7.81279
0.000141519
7.81281
0.000143221
7.81282
0.000143103
7.81284
0.000143012
7.81285
0.000143035
7.81287
0.000143066
7.81288
0.000143077
7.8129
0.00014309
7.81291
0.000143095
7.81293
0.000143102
7.81294
0.000143106
7.81296
0.00014311
7.81297
0.000143113
7.81299
0.000143114
7.813
0.000143127
7.813
0.000143109
7.81301
0.000143119
7.81302
0.000143123
7.81303
0.000143127
7.81304
0.000143133
7.81306
0.000143133
7.81308
0.00014315
7.8131
0.000143197
7.81313
0.000143143
7.81316
0.000143177
7.81318
0.000143193
7.8132
0.000143204
7.81322
0.000143215
7.81324
0.000143225
7.81326
0.000143233
7.81327
0.000143241
7.81329
0.000143247
7.81331
0.000143252
7.81332
0.000143257
7.81334
0.000143263
7.81335
0.000143266
7.81336
0.000143267
7.81337
0.00014327
7.81337
0.000143272
7.81338
0.000143274
7.8134
0.000143277
7.81341
0.000143279
7.81343
0.000143268
7.81345
0.000143287
7.81347
0.000143312
7.81349
0.000143299
7.81351
0.000143307
7.81353
0.000143313
7.81355
0.000143317
7.81356
0.00014332
7.81358
0.000143352
7.81359
0.000143348
7.81361
0.000143347
7.81363
0.00014336
7.81365
0.000143375
7.81367
0.000143505
7.8137
0.000143292
7.81372
0.000143387
7.81375
0.00014341
7.81377
0.000143419
7.81379
0.000143428
7.81381
0.000143436
7.81383
0.000143444
7.81385
0.00014345
7.81387
0.000143456
7.81389
0.00014346
7.81391
0.000143467
7.81393
0.000143468
7.81394
0.000143452
7.81395
0.000143422
7.81396
0.000143419
7.81397
0.000143382
7.81398
0.000143335
7.814
0.000143268
7.81402
0.000143173
7.81403
0.000143028
7.81405
0.000142877
7.81408
0.000142741
7.8141
0.000142341
7.81413
0.000142008
7.81415
0.000141566
7.81418
0.000140994
7.8142
0.000140292
7.81422
0.000139436
7.81425
0.000138405
7.81427
0.000137174
7.81429
0.000135722
7.8143
0.000134028
7.81432
0.00013207
7.81434
0.000129832
7.81436
0.000127298
7.81438
0.000124459
7.81439
0.000121309
7.81441
0.000117852
7.81443
0.000114074
7.81444
0.000110021
7.81446
0.000105685
7.81447
0.000101098
7.81449
9.62906e-05
7.8145
9.12967e-05
7.81451
8.6157e-05
7.81452
8.09119e-05
7.81454
7.56083e-05
7.81455
7.02922e-05
7.81456
6.50037e-05
7.81457
5.97895e-05
7.81458
5.47015e-05
7.81459
4.97675e-05
7.8146
4.50245e-05
7.81461
4.05028e-05
7.81461
3.62265e-05
7.81462
3.22148e-05
7.81463
2.8481e-05
7.81464
2.50329e-05
7.81464
2.18735e-05
7.81465
1.90007e-05
7.81466
1.64084e-05
7.81466
1.40868e-05
7.81467
1.20233e-05
7.81468
1.02026e-05
7.81468
8.60792e-06
7.81469
7.22142e-06
7.8147
6.02457e-06
7.8147
4.99881e-06
7.81471
4.12591e-06
7.81472
3.3883e-06
7.81472
2.76937e-06
7.81473
2.25367e-06
7.81474
1.82652e-06
7.81474
1.47573e-06
7.81475
1.18924e-06
7.81476
9.5687e-07
7.81476
7.69668e-07
7.81477
6.19844e-07
7.81478
5.00712e-07
7.81478
4.06606e-07
7.81479
3.32741e-07
7.8148
2.75133e-07
7.81481
2.30494e-07
7.81482
1.96118e-07
7.81482
1.69812e-07
7.81483
1.49806e-07
7.81484
1.34683e-07
7.81485
1.23327e-07
7.81486
1.1485e-07
7.81487
1.08559e-07
7.81488
1.03921e-07
7.81488
1.00524e-07
7.81489
9.80508e-08
7.8149
9.62646e-08
7.81491
9.49781e-08
7.81492
9.40649e-08
7.81493
9.34197e-08
7.81494
9.29672e-08
7.81495
9.26552e-08
7.81496
9.24465e-08
7.81497
9.23019e-08
7.81498
9.22123e-08
7.81499
9.21559e-08
7.81501
9.21236e-08
7.81502
9.21086e-08
7.81503
9.21113e-08
7.81504
9.21177e-08
7.81505
9.21304e-08
7.81506
9.21495e-08
7.81507
9.21709e-08
7.81509
9.21932e-08
7.8151
9.22169e-08
7.81511
9.2241e-08
7.81512
9.22682e-08
7.81514
9.22987e-08
7.81515
9.23251e-08
7.81516
9.23533e-08
7.81518
9.23819e-08
7.81519
9.24115e-08
7.8152
9.24424e-08
7.81522
9.24751e-08
7.81523
9.25097e-08
7.81524
9.25406e-08
7.81526
9.25743e-08
7.81527
9.26079e-08
7.81529
9.26416e-08
7.8153
9.26784e-08
7.81532
9.27121e-08
7.81533
9.27462e-08
7.81535
9.27848e-08
7.81536
9.28248e-08
7.81538
9.28662e-08
7.81539
9.29113e-08
7.81541
9.29622e-08
7.81543
9.30181e-08
7.81544
9.30722e-08
7.81546
9.31336e-08
7.81548
9.31964e-08
7.81549
9.3255e-08
7.81551
9.33087e-08
7.81553
9.33605e-08
7.81555
9.34092e-08
7.81556
9.34519e-08
7.81558
9.34938e-08
7.8156
9.35379e-08
7.81562
9.35825e-08
7.81564
9.36266e-08
7.81566
9.3678e-08
7.81568
9.37366e-08
7.8157
9.37998e-08
7.81572
9.38717e-08
7.81574
9.3944e-08
7.81576
9.40231e-08
7.81578
9.41077e-08
7.8158
9.41991e-08
7.81582
9.429e-08
7.81585
9.43855e-08
7.81587
9.44838e-08
7.81589
9.45843e-08
7.81592
9.46848e-08
7.81594
9.47825e-08
7.81597
9.48921e-08
7.81599
9.50013e-08
7.81602
9.51172e-08
7.81604
9.52359e-08
7.81607
9.53628e-08
7.8161
9.54897e-08
7.81613
9.56229e-08
7.81616
9.57557e-08
7.81619
9.59049e-08
7.81622
9.60545e-08
7.81625
9.62164e-08
7.81628
9.63819e-08
7.81632
9.65515e-08
7.81635
9.67311e-08
7.81638
9.69167e-08
7.81642
9.71127e-08
7.81646
9.7315e-08
7.8165
9.75256e-08
7.81654
9.77498e-08
7.81658
9.79808e-08
7.81662
9.82182e-08
7.81666
9.84714e-08
7.81671
9.87297e-08
7.81675
9.90017e-08
7.8168
9.92836e-08
7.81685
9.95778e-08
7.8169
9.98807e-08
7.81695
1.00197e-07
7.817
1.00523e-07
7.81706
1.00863e-07
7.81712
1.01209e-07
7.81718
1.01577e-07
7.81724
1.01947e-07
7.8173
1.0233e-07
7.81736
1.02728e-07
7.81743
1.03143e-07
7.8175
1.03566e-07
7.81757
1.04004e-07
7.81764
1.04451e-07
7.81772
1.04917e-07
7.8178
1.05392e-07
7.81788
1.05872e-07
7.81796
1.06377e-07
7.81805
1.06891e-07
7.81814
1.0742e-07
7.81823
1.07958e-07
7.81832
1.08511e-07
7.81842
1.09075e-07
7.81852
1.09647e-07
7.81862
1.10233e-07
7.81873
1.10827e-07
7.81883
1.11437e-07
7.81895
1.12057e-07
7.81906
1.12682e-07
7.81918
1.1332e-07
7.8193
1.13967e-07
7.81943
1.14623e-07
7.81955
1.15283e-07
7.81968
1.15952e-07
7.81982
1.16629e-07
7.81996
1.17304e-07
7.8201
1.17991e-07
7.82024
1.18675e-07
7.82039
1.1936e-07
7.82055
1.20043e-07
7.8207
1.20727e-07
7.82086
1.21408e-07
7.82102
1.22087e-07
7.82119
1.22765e-07
7.82136
1.23443e-07
7.82153
1.24118e-07
7.82171
1.24784e-07
7.82189
1.2545e-07
7.82208
1.26106e-07
7.82226
1.26751e-07
7.82245
1.27391e-07
7.82265
1.2802e-07
7.82285
1.28633e-07
7.82305
1.29228e-07
7.82325
1.29809e-07
7.82346
1.30366e-07
7.82367
1.309e-07
7.82388
1.31411e-07
7.8241
1.31894e-07
7.82432
1.32358e-07
7.82454
1.3279e-07
7.82477
1.33197e-07
7.82499
1.33567e-07
7.82522
1.3391e-07
7.82545
1.3422e-07
7.82569
1.34497e-07
7.82592
1.3474e-07
7.82616
1.3495e-07
7.8264
1.35126e-07
7.82664
1.35258e-07
7.82688
1.35351e-07
7.82713
1.35397e-07
7.82737
1.35406e-07
7.82761
1.3538e-07
7.82786
1.35295e-07
7.82811
1.35161e-07
7.82835
1.3499e-07
7.8286
1.3478e-07
7.82884
1.34507e-07
7.82909
1.34173e-07
7.82934
1.33807e-07
7.82958
1.33382e-07
7.82982
1.32934e-07
7.83006
1.32355e-07
7.83031
1.31797e-07
7.83054
1.31115e-07
7.83078
1.30509e-07
7.83102
1.29721e-07
7.83125
1.28908e-07
7.83148
1.2805e-07
7.8317
1.27108e-07
7.83193
1.26223e-07
7.83215
1.2506e-07
7.83236
1.24231e-07
7.83258
1.22949e-07
7.83278
1.21811e-07
7.83299
1.20425e-07
7.83319
1.1939e-07
7.83338
1.17919e-07
7.83357
1.16542e-07
7.83375
1.15048e-07
7.83393
1.13748e-07
7.83411
1.12089e-07
7.83427
1.10606e-07
7.83443
1.08835e-07
7.83459
1.07482e-07
7.83474
1.05471e-07
7.83488
1.039e-07
7.83501
1.02198e-07
7.83514
1.00044e-07
7.83526
9.89066e-08
7.83537
9.64164e-08
7.83548
9.47734e-08
7.83557
9.26684e-08
7.83566
9.05256e-08
7.83574
8.93901e-08
7.83582
8.6392e-08
7.83588
8.53852e-08
7.83594
8.20178e-08
7.83599
8.15571e-08
7.83603
7.90915e-08
7.83606
7.73216e-08
7.83608
7.46804e-08
7.8361
6.83531e-08
7.8361
6.63872e-08
7.8361
8.3036e-08
7.83608
5.91881e-08
7.83606
6.30453e-08
7.83603
6.21658e-08
7.83599
6.05251e-08
7.83594
5.9209e-08
7.83589
5.88611e-08
7.83582
6.07929e-08
7.83575
6.8354e-08
7.83566
8.91264e-08
7.83557
1.41482e-07
7.83547
2.69579e-07
7.83536
5.78568e-07
7.83525
1.3202e-06
7.83512
3.09676e-06
7.83499
7.3483e-06
7.83484
1.75185e-05
7.83467
4.18429e-05
7.83447
0.000100011
7.8342
0.000239084
7.83377
0.000571494
7.83298
0.00136553
7.83134
0.00326254
7.82768
0.00778652
7.8192
0.0185424
7.79943
0.0438141
7.7529
0.103711
7.6427
0.246654
7.37375
0.608205
1.506
6.74276
34.4871
7.15679e-05
34.4871
8.15923e-05
34.4872
6.95248e-05
34.4873
6.9812e-05
34.4873
7.1588e-05
34.4874
7.17964e-05
34.4875
7.16575e-05
34.4875
7.16305e-05
34.4876
7.16393e-05
34.4877
7.16304e-05
34.4878
7.16254e-05
34.4878
7.16138e-05
34.4879
7.16071e-05
34.488
7.16012e-05
34.488
7.15961e-05
34.4881
7.15917e-05
34.4881
7.1588e-05
34.4882
7.1578e-05
34.4882
7.15879e-05
34.4882
7.15804e-05
34.4883
7.15791e-05
34.4883
7.1579e-05
34.4884
7.15796e-05
34.4885
7.15811e-05
34.4885
7.1587e-05
34.4887
7.15958e-05
34.4888
7.15881e-05
34.4889
7.15952e-05
34.489
7.16028e-05
34.4891
7.1608e-05
34.4892
7.16128e-05
34.4893
7.16173e-05
34.4893
7.16212e-05
34.4894
7.16246e-05
34.4895
7.16275e-05
34.4896
7.16303e-05
34.4896
7.1632e-05
34.4897
7.16354e-05
34.4898
7.16367e-05
34.4898
7.16323e-05
34.4898
7.16366e-05
34.4899
7.16374e-05
34.4899
7.16384e-05
34.49
7.16394e-05
34.49
7.16399e-05
34.4901
7.16385e-05
34.4902
7.16445e-05
34.4903
7.1652e-05
34.4904
7.16498e-05
34.4905
7.16539e-05
34.4905
7.16571e-05
34.4906
7.16616e-05
34.4907
7.16608e-05
34.4907
7.16712e-05
34.4908
7.16742e-05
34.4909
7.16746e-05
34.491
7.16833e-05
34.4911
7.16917e-05
34.4912
7.17275e-05
34.4913
7.16678e-05
34.4914
7.16898e-05
34.4915
7.17036e-05
34.4916
7.17092e-05
34.4917
7.17139e-05
34.4918
7.17181e-05
34.4919
7.17219e-05
34.492
7.17252e-05
34.4921
7.17281e-05
34.4921
7.17307e-05
34.4922
7.17354e-05
34.4923
7.17355e-05
34.4924
7.17269e-05
34.4924
7.17111e-05
34.4924
7.17126e-05
34.4925
7.16949e-05
34.4925
7.16731e-05
34.4926
7.16418e-05
34.4927
7.15967e-05
34.4928
7.15326e-05
34.4929
7.14602e-05
34.493
7.13789e-05
34.4931
7.1213e-05
34.4932
7.10401e-05
34.4933
7.08312e-05
34.4934
7.05572e-05
34.4935
7.02195e-05
34.4936
6.98073e-05
34.4937
6.93092e-05
34.4938
6.87138e-05
34.4939
6.80101e-05
34.494
6.71868e-05
34.494
6.6234e-05
34.4941
6.51424e-05
34.4942
6.39045e-05
34.4943
6.25148e-05
34.4944
6.09705e-05
34.4944
5.92729e-05
34.4945
5.74148e-05
34.4946
5.54087e-05
34.4946
5.32717e-05
34.4947
5.10015e-05
34.4948
4.86183e-05
34.4948
4.61375e-05
34.4949
4.35831e-05
34.495
4.09685e-05
34.495
3.83211e-05
34.4951
3.56627e-05
34.4951
3.30141e-05
34.4952
3.0399e-05
34.4952
2.78416e-05
34.4952
2.53583e-05
34.4953
2.29672e-05
34.4953
2.06839e-05
34.4954
1.85212e-05
34.4954
1.6489e-05
34.4954
1.45946e-05
34.4955
1.28425e-05
34.4955
1.12346e-05
34.4955
9.77029e-06
34.4956
8.44701e-06
34.4956
7.26016e-06
34.4956
6.20363e-06
34.4957
5.2701e-06
34.4957
4.45129e-06
34.4957
3.73835e-06
34.4957
3.12206e-06
34.4958
2.59313e-06
34.4958
2.14241e-06
34.4958
1.76102e-06
34.4959
1.44057e-06
34.4959
1.17319e-06
34.4959
9.51509e-07
34.4959
7.69144e-07
34.496
6.2005e-07
34.496
4.98969e-07
34.496
4.01302e-07
34.4961
3.2304e-07
34.4961
2.60739e-07
34.4961
2.11466e-07
34.4962
1.72747e-07
34.4962
1.42516e-07
34.4962
1.19064e-07
34.4963
1.00985e-07
34.4963
8.71337e-08
34.4963
7.65881e-08
34.4964
6.86086e-08
34.4964
6.26117e-08
34.4964
5.81288e-08
34.4965
5.47986e-08
34.4965
5.23423e-08
34.4966
5.05397e-08
34.4966
4.92271e-08
34.4967
4.82771e-08
34.4967
4.75934e-08
34.4967
4.71071e-08
34.4968
4.67628e-08
34.4968
4.65202e-08
34.4969
4.63533e-08
34.4969
4.62401e-08
34.497
4.61632e-08
34.497
4.61143e-08
34.4971
4.60832e-08
34.4971
4.60652e-08
34.4972
4.60575e-08
34.4972
4.60573e-08
34.4973
4.60598e-08
34.4973
4.60664e-08
34.4974
4.60755e-08
34.4974
4.60855e-08
34.4975
4.60966e-08
34.4975
4.61084e-08
34.4976
4.61202e-08
34.4976
4.61332e-08
34.4977
4.61487e-08
34.4977
4.61621e-08
34.4978
4.61766e-08
34.4979
4.6191e-08
34.4979
4.62055e-08
34.498
4.62214e-08
34.498
4.6238e-08
34.4981
4.62539e-08
34.4982
4.62708e-08
34.4982
4.62867e-08
34.4983
4.63033e-08
34.4983
4.63201e-08
34.4984
4.63378e-08
34.4985
4.6356e-08
34.4985
4.6374e-08
34.4986
4.63933e-08
34.4987
4.64133e-08
34.4988
4.64347e-08
34.4988
4.64565e-08
34.4989
4.64818e-08
34.499
4.65093e-08
34.499
4.65368e-08
34.4991
4.65675e-08
34.4992
4.6598e-08
34.4993
4.66268e-08
34.4993
4.66548e-08
34.4994
4.66803e-08
34.4995
4.67044e-08
34.4996
4.67267e-08
34.4996
4.67478e-08
34.4997
4.67687e-08
34.4998
4.6791e-08
34.4999
4.68131e-08
34.5
4.6839e-08
34.5001
4.68688e-08
34.5002
4.69011e-08
34.5002
4.69365e-08
34.5003
4.6972e-08
34.5004
4.70109e-08
34.5005
4.70538e-08
34.5006
4.70991e-08
34.5007
4.71452e-08
34.5008
4.71928e-08
34.5009
4.72417e-08
34.501
4.72915e-08
34.5011
4.73415e-08
34.5012
4.73919e-08
34.5013
4.74458e-08
34.5015
4.74997e-08
34.5016
4.75577e-08
34.5017
4.7618e-08
34.5018
4.76809e-08
34.5019
4.77448e-08
34.5021
4.78115e-08
34.5022
4.78785e-08
34.5023
4.7952e-08
34.5025
4.80275e-08
34.5026
4.81075e-08
34.5027
4.81907e-08
34.5029
4.82762e-08
34.503
4.83658e-08
34.5032
4.84588e-08
34.5034
4.85559e-08
34.5035
4.86575e-08
34.5037
4.87635e-08
34.5039
4.88744e-08
34.504
4.89899e-08
34.5042
4.91093e-08
34.5044
4.92348e-08
34.5046
4.93649e-08
34.5048
4.95004e-08
34.505
4.9642e-08
34.5052
4.97885e-08
34.5055
4.99404e-08
34.5057
5.00982e-08
34.5059
5.0261e-08
34.5062
5.0431e-08
34.5064
5.06052e-08
34.5067
5.07875e-08
34.507
5.09731e-08
34.5072
5.11643e-08
34.5075
5.13639e-08
34.5078
5.15713e-08
34.5081
5.17832e-08
34.5084
5.20026e-08
34.5088
5.22261e-08
34.5091
5.24572e-08
34.5094
5.2695e-08
34.5098
5.29371e-08
34.5102
5.31877e-08
34.5105
5.34455e-08
34.5109
5.37093e-08
34.5113
5.39794e-08
34.5117
5.42545e-08
34.5122
5.45369e-08
34.5126
5.48232e-08
34.5131
5.51161e-08
34.5135
5.54139e-08
34.514
5.57184e-08
34.5145
5.60276e-08
34.515
5.63409e-08
34.5155
5.66592e-08
34.5161
5.69833e-08
34.5166