/*--------------------------------*- C++ -*----------------------------------*\
| =========                 |                                                 |
| \\      /  F ield         | OpenFOAM: The Open Source CFD Toolbox           |
|  \\    /   O peration     | Version:  3.0.x                                 |
|   \\  /    A nd           | Web:      www.OpenFOAM.org                      |
|    \\/     M anipulation  |                                                 |
\*---------------------------------------------------------------------------*/
FoamFile
{
    version     2.0;
    format      ascii;
    class       volScalarField;
    location    "0.51";
    object      p;
}
// * * * * * * * * * * * * * * * * * * * * * * * * * * * * * * * * * * * * * //

dimensions      [1 -1 -2 0 0 0 0];

internalField   nonuniform List<scalar> 
13800
(
1.80685e+07
1.80685e+07
1.80686e+07
1.80687e+07
1.80688e+07
1.80689e+07
1.8069e+07
1.80692e+07
1.80694e+07
1.80696e+07
1.80698e+07
1.807e+07
1.80703e+07
1.80706e+07
1.80709e+07
1.80713e+07
1.80716e+07
1.8072e+07
1.80725e+07
1.80729e+07
1.80734e+07
1.80739e+07
1.80745e+07
1.8075e+07
1.80757e+07
1.80763e+07
1.8077e+07
1.80777e+07
1.80785e+07
1.80793e+07
1.80801e+07
1.8081e+07
1.80819e+07
1.80829e+07
1.80839e+07
1.80849e+07
1.8086e+07
1.80872e+07
1.80883e+07
1.80896e+07
1.80909e+07
1.80922e+07
1.80936e+07
1.8095e+07
1.80965e+07
1.80981e+07
1.80997e+07
1.81013e+07
1.8103e+07
1.81048e+07
1.81067e+07
1.81085e+07
1.81105e+07
1.81125e+07
1.81146e+07
1.81167e+07
1.81189e+07
1.81212e+07
1.81235e+07
1.8126e+07
1.81284e+07
1.8131e+07
1.81336e+07
1.81363e+07
1.8139e+07
1.81418e+07
1.81447e+07
1.81477e+07
1.81508e+07
1.81539e+07
1.81571e+07
1.81604e+07
1.81638e+07
1.81672e+07
1.81707e+07
1.81743e+07
1.8178e+07
1.81818e+07
1.81857e+07
1.81896e+07
1.81936e+07
1.81978e+07
1.8202e+07
1.82063e+07
1.82107e+07
1.82152e+07
1.82197e+07
1.82244e+07
1.82292e+07
1.8234e+07
1.8239e+07
1.82441e+07
1.82492e+07
1.82545e+07
1.82598e+07
1.82653e+07
1.82709e+07
1.82765e+07
1.82823e+07
1.82882e+07
1.82942e+07
1.83003e+07
1.83065e+07
1.83128e+07
1.83192e+07
1.83258e+07
1.83324e+07
1.83392e+07
1.83461e+07
1.83531e+07
1.83602e+07
1.83675e+07
1.83748e+07
1.83823e+07
1.83899e+07
1.83976e+07
1.84055e+07
1.84134e+07
1.84215e+07
1.84297e+07
1.84381e+07
1.84465e+07
1.84551e+07
1.84639e+07
1.84727e+07
1.84817e+07
1.84908e+07
1.85e+07
1.85094e+07
1.85189e+07
1.85285e+07
1.85382e+07
1.85481e+07
1.85581e+07
1.85683e+07
1.85785e+07
1.85889e+07
1.85995e+07
1.86101e+07
1.86209e+07
1.86318e+07
1.86429e+07
1.86541e+07
1.86653e+07
1.86768e+07
1.86883e+07
1.87e+07
1.87118e+07
1.87237e+07
1.87357e+07
1.87479e+07
1.87602e+07
1.87726e+07
1.87851e+07
1.87977e+07
1.88104e+07
1.88232e+07
1.88362e+07
1.88492e+07
1.88624e+07
1.88756e+07
1.8889e+07
1.89025e+07
1.8916e+07
1.89296e+07
1.89434e+07
1.89572e+07
1.89711e+07
1.89851e+07
1.89991e+07
1.90132e+07
1.90274e+07
1.90417e+07
1.9056e+07
1.90704e+07
1.90849e+07
1.90994e+07
1.9114e+07
1.91286e+07
1.91432e+07
1.91579e+07
1.91727e+07
1.91874e+07
1.92022e+07
1.92171e+07
1.92319e+07
1.92468e+07
1.92617e+07
1.92766e+07
1.92915e+07
1.93064e+07
1.93213e+07
1.93362e+07
1.93511e+07
1.9366e+07
1.93809e+07
1.93958e+07
1.94107e+07
1.94259e+07
1.94413e+07
1.80685e+07
1.80685e+07
1.80686e+07
1.80687e+07
1.80688e+07
1.80689e+07
1.8069e+07
1.80692e+07
1.80694e+07
1.80696e+07
1.80698e+07
1.807e+07
1.80703e+07
1.80706e+07
1.80709e+07
1.80713e+07
1.80716e+07
1.8072e+07
1.80725e+07
1.80729e+07
1.80734e+07
1.80739e+07
1.80745e+07
1.8075e+07
1.80757e+07
1.80763e+07
1.8077e+07
1.80777e+07
1.80785e+07
1.80793e+07
1.80801e+07
1.8081e+07
1.80819e+07
1.80829e+07
1.80839e+07
1.80849e+07
1.8086e+07
1.80872e+07
1.80883e+07
1.80896e+07
1.80909e+07
1.80922e+07
1.80936e+07
1.8095e+07
1.80965e+07
1.80981e+07
1.80997e+07
1.81013e+07
1.8103e+07
1.81048e+07
1.81067e+07
1.81085e+07
1.81105e+07
1.81125e+07
1.81146e+07
1.81167e+07
1.81189e+07
1.81212e+07
1.81235e+07
1.8126e+07
1.81284e+07
1.8131e+07
1.81336e+07
1.81363e+07
1.8139e+07
1.81418e+07
1.81447e+07
1.81477e+07
1.81508e+07
1.81539e+07
1.81571e+07
1.81604e+07
1.81638e+07
1.81672e+07
1.81707e+07
1.81743e+07
1.8178e+07
1.81818e+07
1.81857e+07
1.81896e+07
1.81936e+07
1.81978e+07
1.8202e+07
1.82063e+07
1.82107e+07
1.82152e+07
1.82197e+07
1.82244e+07
1.82292e+07
1.8234e+07
1.8239e+07
1.82441e+07
1.82492e+07
1.82545e+07
1.82598e+07
1.82653e+07
1.82709e+07
1.82765e+07
1.82823e+07
1.82882e+07
1.82942e+07
1.83003e+07
1.83065e+07
1.83128e+07
1.83192e+07
1.83258e+07
1.83324e+07
1.83392e+07
1.83461e+07
1.83531e+07
1.83602e+07
1.83675e+07
1.83748e+07
1.83823e+07
1.83899e+07
1.83976e+07
1.84055e+07
1.84134e+07
1.84215e+07
1.84297e+07
1.84381e+07
1.84465e+07
1.84551e+07
1.84639e+07
1.84727e+07
1.84817e+07
1.84908e+07
1.85e+07
1.85094e+07
1.85189e+07
1.85285e+07
1.85382e+07
1.85481e+07
1.85581e+07
1.85683e+07
1.85785e+07
1.85889e+07
1.85995e+07
1.86101e+07
1.86209e+07
1.86318e+07
1.86429e+07
1.86541e+07
1.86653e+07
1.86768e+07
1.86883e+07
1.87e+07
1.87118e+07
1.87237e+07
1.87357e+07
1.87479e+07
1.87602e+07
1.87726e+07
1.87851e+07
1.87977e+07
1.88104e+07
1.88232e+07
1.88362e+07
1.88492e+07
1.88624e+07
1.88756e+07
1.8889e+07
1.89025e+07
1.8916e+07
1.89296e+07
1.89434e+07
1.89572e+07
1.89711e+07
1.89851e+07
1.89991e+07
1.90132e+07
1.90274e+07
1.90417e+07
1.9056e+07
1.90704e+07
1.90849e+07
1.90994e+07
1.9114e+07
1.91286e+07
1.91432e+07
1.91579e+07
1.91727e+07
1.91874e+07
1.92022e+07
1.92171e+07
1.92319e+07
1.92468e+07
1.92617e+07
1.92766e+07
1.92915e+07
1.93064e+07
1.93213e+07
1.93362e+07
1.93511e+07
1.9366e+07
1.93809e+07
1.93958e+07
1.94107e+07
1.94259e+07
1.94413e+07
1.80685e+07
1.80685e+07
1.80686e+07
1.80687e+07
1.80688e+07
1.80689e+07
1.8069e+07
1.80692e+07
1.80694e+07
1.80696e+07
1.80698e+07
1.807e+07
1.80703e+07
1.80706e+07
1.80709e+07
1.80713e+07
1.80716e+07
1.8072e+07
1.80725e+07
1.80729e+07
1.80734e+07
1.80739e+07
1.80745e+07
1.8075e+07
1.80757e+07
1.80763e+07
1.8077e+07
1.80777e+07
1.80785e+07
1.80793e+07
1.80801e+07
1.8081e+07
1.80819e+07
1.80829e+07
1.80839e+07
1.80849e+07
1.8086e+07
1.80872e+07
1.80883e+07
1.80896e+07
1.80909e+07
1.80922e+07
1.80936e+07
1.8095e+07
1.80965e+07
1.80981e+07
1.80997e+07
1.81013e+07
1.8103e+07
1.81048e+07
1.81067e+07
1.81085e+07
1.81105e+07
1.81125e+07
1.81146e+07
1.81167e+07
1.81189e+07
1.81212e+07
1.81235e+07
1.8126e+07
1.81284e+07
1.8131e+07
1.81336e+07
1.81363e+07
1.8139e+07
1.81418e+07
1.81447e+07
1.81477e+07
1.81508e+07
1.81539e+07
1.81571e+07
1.81604e+07
1.81638e+07
1.81672e+07
1.81707e+07
1.81743e+07
1.8178e+07
1.81818e+07
1.81857e+07
1.81896e+07
1.81936e+07
1.81978e+07
1.8202e+07
1.82063e+07
1.82107e+07
1.82152e+07
1.82197e+07
1.82244e+07
1.82292e+07
1.8234e+07
1.8239e+07
1.82441e+07
1.82492e+07
1.82545e+07
1.82598e+07
1.82653e+07
1.82709e+07
1.82765e+07
1.82823e+07
1.82882e+07
1.82942e+07
1.83003e+07
1.83065e+07
1.83128e+07
1.83192e+07
1.83258e+07
1.83324e+07
1.83392e+07
1.83461e+07
1.83531e+07
1.83602e+07
1.83675e+07
1.83748e+07
1.83823e+07
1.83899e+07
1.83976e+07
1.84055e+07
1.84134e+07
1.84215e+07
1.84297e+07
1.84381e+07
1.84465e+07
1.84551e+07
1.84639e+07
1.84727e+07
1.84817e+07
1.84908e+07
1.85e+07
1.85094e+07
1.85189e+07
1.85285e+07
1.85382e+07
1.85481e+07
1.85581e+07
1.85683e+07
1.85785e+07
1.85889e+07
1.85995e+07
1.86101e+07
1.86209e+07
1.86318e+07
1.86429e+07
1.86541e+07
1.86653e+07
1.86768e+07
1.86883e+07
1.87e+07
1.87118e+07
1.87237e+07
1.87357e+07
1.87479e+07
1.87602e+07
1.87726e+07
1.87851e+07
1.87977e+07
1.88104e+07
1.88232e+07
1.88362e+07
1.88492e+07
1.88624e+07
1.88756e+07
1.8889e+07
1.89025e+07
1.8916e+07
1.89296e+07
1.89434e+07
1.89572e+07
1.89711e+07
1.89851e+07
1.89991e+07
1.90132e+07
1.90274e+07
1.90417e+07
1.9056e+07
1.90704e+07
1.90849e+07
1.90994e+07
1.9114e+07
1.91286e+07
1.91432e+07
1.91579e+07
1.91727e+07
1.91874e+07
1.92022e+07
1.92171e+07
1.92319e+07
1.92468e+07
1.92617e+07
1.92766e+07
1.92915e+07
1.93064e+07
1.93213e+07
1.93362e+07
1.93511e+07
1.9366e+07
1.93809e+07
1.93958e+07
1.94107e+07
1.94259e+07
1.94412e+07
1.80685e+07
1.80685e+07
1.80686e+07
1.80687e+07
1.80688e+07
1.80689e+07
1.8069e+07
1.80692e+07
1.80694e+07
1.80696e+07
1.80698e+07
1.807e+07
1.80703e+07
1.80706e+07
1.80709e+07
1.80713e+07
1.80716e+07
1.8072e+07
1.80725e+07
1.80729e+07
1.80734e+07
1.80739e+07
1.80745e+07
1.8075e+07
1.80757e+07
1.80763e+07
1.8077e+07
1.80777e+07
1.80785e+07
1.80793e+07
1.80801e+07
1.8081e+07
1.80819e+07
1.80829e+07
1.80839e+07
1.80849e+07
1.8086e+07
1.80872e+07
1.80883e+07
1.80896e+07
1.80909e+07
1.80922e+07
1.80936e+07
1.8095e+07
1.80965e+07
1.80981e+07
1.80997e+07
1.81013e+07
1.8103e+07
1.81048e+07
1.81067e+07
1.81085e+07
1.81105e+07
1.81125e+07
1.81146e+07
1.81167e+07
1.81189e+07
1.81212e+07
1.81235e+07
1.8126e+07
1.81284e+07
1.8131e+07
1.81336e+07
1.81363e+07
1.8139e+07
1.81418e+07
1.81447e+07
1.81477e+07
1.81508e+07
1.81539e+07
1.81571e+07
1.81604e+07
1.81638e+07
1.81672e+07
1.81707e+07
1.81743e+07
1.8178e+07
1.81818e+07
1.81857e+07
1.81896e+07
1.81936e+07
1.81978e+07
1.8202e+07
1.82063e+07
1.82107e+07
1.82152e+07
1.82197e+07
1.82244e+07
1.82292e+07
1.8234e+07
1.8239e+07
1.82441e+07
1.82492e+07
1.82545e+07
1.82598e+07
1.82653e+07
1.82709e+07
1.82765e+07
1.82823e+07
1.82882e+07
1.82942e+07
1.83003e+07
1.83065e+07
1.83128e+07
1.83192e+07
1.83258e+07
1.83324e+07
1.83392e+07
1.83461e+07
1.83531e+07
1.83602e+07
1.83675e+07
1.83748e+07
1.83823e+07
1.83899e+07
1.83976e+07
1.84055e+07
1.84134e+07
1.84215e+07
1.84297e+07
1.84381e+07
1.84465e+07
1.84551e+07
1.84639e+07
1.84727e+07
1.84817e+07
1.84908e+07
1.85e+07
1.85094e+07
1.85189e+07
1.85285e+07
1.85382e+07
1.85481e+07
1.85581e+07
1.85683e+07
1.85785e+07
1.85889e+07
1.85995e+07
1.86101e+07
1.86209e+07
1.86318e+07
1.86429e+07
1.86541e+07
1.86653e+07
1.86768e+07
1.86883e+07
1.87e+07
1.87118e+07
1.87237e+07
1.87357e+07
1.87479e+07
1.87602e+07
1.87726e+07
1.87851e+07
1.87977e+07
1.88104e+07
1.88232e+07
1.88362e+07
1.88492e+07
1.88624e+07
1.88756e+07
1.8889e+07
1.89025e+07
1.8916e+07
1.89296e+07
1.89434e+07
1.89572e+07
1.89711e+07
1.89851e+07
1.89991e+07
1.90132e+07
1.90274e+07
1.90417e+07
1.9056e+07
1.90704e+07
1.90849e+07
1.90994e+07
1.9114e+07
1.91286e+07
1.91432e+07
1.91579e+07
1.91727e+07
1.91874e+07
1.92022e+07
1.92171e+07
1.92319e+07
1.92468e+07
1.92617e+07
1.92766e+07
1.92915e+07
1.93064e+07
1.93213e+07
1.93362e+07
1.93511e+07
1.9366e+07
1.93809e+07
1.93958e+07
1.94107e+07
1.94258e+07
1.94411e+07
1.80685e+07
1.80685e+07
1.80686e+07
1.80687e+07
1.80688e+07
1.80689e+07
1.8069e+07
1.80692e+07
1.80694e+07
1.80696e+07
1.80698e+07
1.807e+07
1.80703e+07
1.80706e+07
1.80709e+07
1.80713e+07
1.80716e+07
1.8072e+07
1.80725e+07
1.80729e+07
1.80734e+07
1.80739e+07
1.80745e+07
1.8075e+07
1.80757e+07
1.80763e+07
1.8077e+07
1.80777e+07
1.80785e+07
1.80793e+07
1.80801e+07
1.8081e+07
1.80819e+07
1.80829e+07
1.80839e+07
1.80849e+07
1.8086e+07
1.80872e+07
1.80883e+07
1.80896e+07
1.80909e+07
1.80922e+07
1.80936e+07
1.8095e+07
1.80965e+07
1.80981e+07
1.80997e+07
1.81013e+07
1.8103e+07
1.81048e+07
1.81067e+07
1.81085e+07
1.81105e+07
1.81125e+07
1.81146e+07
1.81167e+07
1.81189e+07
1.81212e+07
1.81235e+07
1.8126e+07
1.81284e+07
1.8131e+07
1.81336e+07
1.81363e+07
1.8139e+07
1.81418e+07
1.81447e+07
1.81477e+07
1.81508e+07
1.81539e+07
1.81571e+07
1.81604e+07
1.81638e+07
1.81672e+07
1.81707e+07
1.81743e+07
1.8178e+07
1.81818e+07
1.81857e+07
1.81896e+07
1.81936e+07
1.81978e+07
1.8202e+07
1.82063e+07
1.82107e+07
1.82152e+07
1.82197e+07
1.82244e+07
1.82292e+07
1.8234e+07
1.8239e+07
1.82441e+07
1.82492e+07
1.82545e+07
1.82598e+07
1.82653e+07
1.82709e+07
1.82765e+07
1.82823e+07
1.82882e+07
1.82942e+07
1.83003e+07
1.83065e+07
1.83128e+07
1.83192e+07
1.83258e+07
1.83324e+07
1.83392e+07
1.83461e+07
1.83531e+07
1.83602e+07
1.83675e+07
1.83748e+07
1.83823e+07
1.83899e+07
1.83976e+07
1.84055e+07
1.84134e+07
1.84215e+07
1.84297e+07
1.84381e+07
1.84465e+07
1.84551e+07
1.84639e+07
1.84727e+07
1.84817e+07
1.84908e+07
1.85e+07
1.85094e+07
1.85189e+07
1.85285e+07
1.85382e+07
1.85481e+07
1.85581e+07
1.85683e+07
1.85785e+07
1.85889e+07
1.85995e+07
1.86101e+07
1.86209e+07
1.86318e+07
1.86429e+07
1.86541e+07
1.86653e+07
1.86768e+07
1.86883e+07
1.87e+07
1.87118e+07
1.87237e+07
1.87357e+07
1.87479e+07
1.87602e+07
1.87726e+07
1.87851e+07
1.87977e+07
1.88104e+07
1.88232e+07
1.88362e+07
1.88492e+07
1.88624e+07
1.88756e+07
1.8889e+07
1.89025e+07
1.8916e+07
1.89296e+07
1.89434e+07
1.89572e+07
1.89711e+07
1.89851e+07
1.89991e+07
1.90132e+07
1.90274e+07
1.90417e+07
1.9056e+07
1.90704e+07
1.90849e+07
1.90994e+07
1.9114e+07
1.91286e+07
1.91432e+07
1.91579e+07
1.91727e+07
1.91874e+07
1.92022e+07
1.92171e+07
1.92319e+07
1.92468e+07
1.92617e+07
1.92766e+07
1.92915e+07
1.93064e+07
1.93213e+07
1.93362e+07
1.93511e+07
1.9366e+07
1.93809e+07
1.93958e+07
1.94106e+07
1.94256e+07
1.94406e+07
1.80685e+07
1.80685e+07
1.80686e+07
1.80687e+07
1.80688e+07
1.80689e+07
1.8069e+07
1.80692e+07
1.80694e+07
1.80696e+07
1.80698e+07
1.807e+07
1.80703e+07
1.80706e+07
1.80709e+07
1.80713e+07
1.80716e+07
1.8072e+07
1.80725e+07
1.80729e+07
1.80734e+07
1.80739e+07
1.80745e+07
1.8075e+07
1.80757e+07
1.80763e+07
1.8077e+07
1.80777e+07
1.80785e+07
1.80793e+07
1.80801e+07
1.8081e+07
1.80819e+07
1.80829e+07
1.80839e+07
1.80849e+07
1.8086e+07
1.80872e+07
1.80883e+07
1.80896e+07
1.80909e+07
1.80922e+07
1.80936e+07
1.8095e+07
1.80965e+07
1.80981e+07
1.80997e+07
1.81013e+07
1.8103e+07
1.81048e+07
1.81067e+07
1.81085e+07
1.81105e+07
1.81125e+07
1.81146e+07
1.81167e+07
1.81189e+07
1.81212e+07
1.81235e+07
1.8126e+07
1.81284e+07
1.8131e+07
1.81336e+07
1.81363e+07
1.8139e+07
1.81418e+07
1.81447e+07
1.81477e+07
1.81508e+07
1.81539e+07
1.81571e+07
1.81604e+07
1.81638e+07
1.81672e+07
1.81707e+07
1.81743e+07
1.8178e+07
1.81818e+07
1.81857e+07
1.81896e+07
1.81936e+07
1.81978e+07
1.8202e+07
1.82063e+07
1.82107e+07
1.82152e+07
1.82197e+07
1.82244e+07
1.82292e+07
1.8234e+07
1.8239e+07
1.82441e+07
1.82492e+07
1.82545e+07
1.82598e+07
1.82653e+07
1.82709e+07
1.82765e+07
1.82823e+07
1.82882e+07
1.82942e+07
1.83003e+07
1.83065e+07
1.83128e+07
1.83192e+07
1.83258e+07
1.83324e+07
1.83392e+07
1.83461e+07
1.83531e+07
1.83602e+07
1.83675e+07
1.83748e+07
1.83823e+07
1.83899e+07
1.83976e+07
1.84055e+07
1.84134e+07
1.84215e+07
1.84297e+07
1.84381e+07
1.84465e+07
1.84551e+07
1.84639e+07
1.84727e+07
1.84817e+07
1.84908e+07
1.85e+07
1.85094e+07
1.85189e+07
1.85285e+07
1.85382e+07
1.85481e+07
1.85581e+07
1.85683e+07
1.85785e+07
1.85889e+07
1.85995e+07
1.86101e+07
1.86209e+07
1.86318e+07
1.86429e+07
1.86541e+07
1.86653e+07
1.86768e+07
1.86883e+07
1.87e+07
1.87118e+07
1.87237e+07
1.87357e+07
1.87479e+07
1.87602e+07
1.87726e+07
1.87851e+07
1.87977e+07
1.88104e+07
1.88232e+07
1.88362e+07
1.88492e+07
1.88624e+07
1.88756e+07
1.8889e+07
1.89025e+07
1.8916e+07
1.89296e+07
1.89434e+07
1.89572e+07
1.89711e+07
1.89851e+07
1.89991e+07
1.90132e+07
1.90274e+07
1.90417e+07
1.9056e+07
1.90704e+07
1.90849e+07
1.90994e+07
1.9114e+07
1.91286e+07
1.91432e+07
1.91579e+07
1.91727e+07
1.91874e+07
1.92022e+07
1.92171e+07
1.92319e+07
1.92468e+07
1.92617e+07
1.92766e+07
1.92915e+07
1.93064e+07
1.93213e+07
1.93362e+07
1.93511e+07
1.9366e+07
1.93809e+07
1.93958e+07
1.94106e+07
1.94253e+07
1.94397e+07
1.80685e+07
1.80685e+07
1.80686e+07
1.80687e+07
1.80688e+07
1.80689e+07
1.8069e+07
1.80692e+07
1.80694e+07
1.80696e+07
1.80698e+07
1.807e+07
1.80703e+07
1.80706e+07
1.80709e+07
1.80713e+07
1.80716e+07
1.8072e+07
1.80725e+07
1.80729e+07
1.80734e+07
1.80739e+07
1.80745e+07
1.8075e+07
1.80757e+07
1.80763e+07
1.8077e+07
1.80777e+07
1.80785e+07
1.80793e+07
1.80801e+07
1.8081e+07
1.80819e+07
1.80829e+07
1.80839e+07
1.80849e+07
1.8086e+07
1.80872e+07
1.80883e+07
1.80896e+07
1.80909e+07
1.80922e+07
1.80936e+07
1.8095e+07
1.80965e+07
1.80981e+07
1.80997e+07
1.81013e+07
1.8103e+07
1.81048e+07
1.81067e+07
1.81085e+07
1.81105e+07
1.81125e+07
1.81146e+07
1.81167e+07
1.81189e+07
1.81212e+07
1.81235e+07
1.8126e+07
1.81284e+07
1.8131e+07
1.81336e+07
1.81363e+07
1.8139e+07
1.81418e+07
1.81447e+07
1.81477e+07
1.81508e+07
1.81539e+07
1.81571e+07
1.81604e+07
1.81638e+07
1.81672e+07
1.81707e+07
1.81743e+07
1.8178e+07
1.81818e+07
1.81857e+07
1.81896e+07
1.81936e+07
1.81978e+07
1.8202e+07
1.82063e+07
1.82107e+07
1.82152e+07
1.82197e+07
1.82244e+07
1.82292e+07
1.8234e+07
1.8239e+07
1.82441e+07
1.82492e+07
1.82545e+07
1.82598e+07
1.82653e+07
1.82709e+07
1.82765e+07
1.82823e+07
1.82882e+07
1.82942e+07
1.83003e+07
1.83065e+07
1.83128e+07
1.83192e+07
1.83258e+07
1.83324e+07
1.83392e+07
1.83461e+07
1.83531e+07
1.83602e+07
1.83675e+07
1.83748e+07
1.83823e+07
1.83899e+07
1.83976e+07
1.84055e+07
1.84134e+07
1.84215e+07
1.84297e+07
1.84381e+07
1.84465e+07
1.84551e+07
1.84639e+07
1.84727e+07
1.84817e+07
1.84908e+07
1.85e+07
1.85094e+07
1.85189e+07
1.85285e+07
1.85382e+07
1.85481e+07
1.85581e+07
1.85683e+07
1.85785e+07
1.85889e+07
1.85995e+07
1.86101e+07
1.86209e+07
1.86318e+07
1.86429e+07
1.86541e+07
1.86653e+07
1.86768e+07
1.86883e+07
1.87e+07
1.87118e+07
1.87237e+07
1.87357e+07
1.87479e+07
1.87602e+07
1.87726e+07
1.87851e+07
1.87977e+07
1.88104e+07
1.88232e+07
1.88362e+07
1.88492e+07
1.88624e+07
1.88756e+07
1.8889e+07
1.89025e+07
1.8916e+07
1.89296e+07
1.89434e+07
1.89572e+07
1.89711e+07
1.89851e+07
1.89991e+07
1.90132e+07
1.90274e+07
1.90417e+07
1.9056e+07
1.90704e+07
1.90849e+07
1.90994e+07
1.9114e+07
1.91286e+07
1.91432e+07
1.91579e+07
1.91727e+07
1.91874e+07
1.92022e+07
1.92171e+07
1.92319e+07
1.92468e+07
1.92617e+07
1.92766e+07
1.92915e+07
1.93064e+07
1.93213e+07
1.93362e+07
1.93511e+07
1.9366e+07
1.93809e+07
1.93957e+07
1.94105e+07
1.9425e+07
1.94391e+07
1.80685e+07
1.80685e+07
1.80686e+07
1.80687e+07
1.80688e+07
1.80689e+07
1.8069e+07
1.80692e+07
1.80694e+07
1.80696e+07
1.80698e+07
1.807e+07
1.80703e+07
1.80706e+07
1.80709e+07
1.80713e+07
1.80716e+07
1.8072e+07
1.80725e+07
1.80729e+07
1.80734e+07
1.80739e+07
1.80745e+07
1.8075e+07
1.80757e+07
1.80763e+07
1.8077e+07
1.80777e+07
1.80785e+07
1.80793e+07
1.80801e+07
1.8081e+07
1.80819e+07
1.80829e+07
1.80839e+07
1.80849e+07
1.8086e+07
1.80872e+07
1.80883e+07
1.80896e+07
1.80909e+07
1.80922e+07
1.80936e+07
1.8095e+07
1.80965e+07
1.80981e+07
1.80997e+07
1.81013e+07
1.8103e+07
1.81048e+07
1.81067e+07
1.81085e+07
1.81105e+07
1.81125e+07
1.81146e+07
1.81167e+07
1.81189e+07
1.81212e+07
1.81235e+07
1.8126e+07
1.81284e+07
1.8131e+07
1.81336e+07
1.81363e+07
1.8139e+07
1.81418e+07
1.81447e+07
1.81477e+07
1.81508e+07
1.81539e+07
1.81571e+07
1.81604e+07
1.81638e+07
1.81672e+07
1.81707e+07
1.81743e+07
1.8178e+07
1.81818e+07
1.81857e+07
1.81896e+07
1.81936e+07
1.81978e+07
1.8202e+07
1.82063e+07
1.82107e+07
1.82152e+07
1.82197e+07
1.82244e+07
1.82292e+07
1.8234e+07
1.8239e+07
1.82441e+07
1.82492e+07
1.82545e+07
1.82598e+07
1.82653e+07
1.82709e+07
1.82765e+07
1.82823e+07
1.82882e+07
1.82942e+07
1.83003e+07
1.83065e+07
1.83128e+07
1.83192e+07
1.83258e+07
1.83324e+07
1.83392e+07
1.83461e+07
1.83531e+07
1.83602e+07
1.83675e+07
1.83748e+07
1.83823e+07
1.83899e+07
1.83976e+07
1.84055e+07
1.84134e+07
1.84215e+07
1.84297e+07
1.84381e+07
1.84465e+07
1.84551e+07
1.84639e+07
1.84727e+07
1.84817e+07
1.84908e+07
1.85e+07
1.85094e+07
1.85189e+07
1.85285e+07
1.85382e+07
1.85481e+07
1.85581e+07
1.85683e+07
1.85785e+07
1.85889e+07
1.85995e+07
1.86101e+07
1.86209e+07
1.86318e+07
1.86429e+07
1.86541e+07
1.86653e+07
1.86768e+07
1.86883e+07
1.87e+07
1.87118e+07
1.87237e+07
1.87357e+07
1.87479e+07
1.87602e+07
1.87726e+07
1.87851e+07
1.87977e+07
1.88104e+07
1.88232e+07
1.88362e+07
1.88492e+07
1.88624e+07
1.88756e+07
1.8889e+07
1.89025e+07
1.8916e+07
1.89296e+07
1.89434e+07
1.89572e+07
1.89711e+07
1.89851e+07
1.89991e+07
1.90132e+07
1.90274e+07
1.90417e+07
1.9056e+07
1.90704e+07
1.90849e+07
1.90994e+07
1.9114e+07
1.91286e+07
1.91432e+07
1.91579e+07
1.91727e+07
1.91874e+07
1.92022e+07
1.92171e+07
1.92319e+07
1.92468e+07
1.92617e+07
1.92766e+07
1.92915e+07
1.93064e+07
1.93213e+07
1.93362e+07
1.93511e+07
1.9366e+07
1.93809e+07
1.93957e+07
1.94105e+07
1.94249e+07
1.9439e+07
1.80685e+07
1.80685e+07
1.80686e+07
1.80687e+07
1.80688e+07
1.80689e+07
1.8069e+07
1.80692e+07
1.80694e+07
1.80696e+07
1.80698e+07
1.807e+07
1.80703e+07
1.80706e+07
1.80709e+07
1.80713e+07
1.80716e+07
1.8072e+07
1.80725e+07
1.80729e+07
1.80734e+07
1.80739e+07
1.80745e+07
1.8075e+07
1.80757e+07
1.80763e+07
1.8077e+07
1.80777e+07
1.80785e+07
1.80793e+07
1.80801e+07
1.8081e+07
1.80819e+07
1.80829e+07
1.80839e+07
1.80849e+07
1.8086e+07
1.80872e+07
1.80883e+07
1.80896e+07
1.80909e+07
1.80922e+07
1.80936e+07
1.8095e+07
1.80965e+07
1.80981e+07
1.80997e+07
1.81013e+07
1.8103e+07
1.81048e+07
1.81067e+07
1.81085e+07
1.81105e+07
1.81125e+07
1.81146e+07
1.81167e+07
1.81189e+07
1.81212e+07
1.81235e+07
1.8126e+07
1.81284e+07
1.8131e+07
1.81336e+07
1.81363e+07
1.8139e+07
1.81418e+07
1.81447e+07
1.81477e+07
1.81508e+07
1.81539e+07
1.81571e+07
1.81604e+07
1.81638e+07
1.81672e+07
1.81707e+07
1.81743e+07
1.8178e+07
1.81818e+07
1.81857e+07
1.81896e+07
1.81936e+07
1.81978e+07
1.8202e+07
1.82063e+07
1.82107e+07
1.82152e+07
1.82197e+07
1.82244e+07
1.82292e+07
1.8234e+07
1.8239e+07
1.82441e+07
1.82492e+07
1.82545e+07
1.82598e+07
1.82653e+07
1.82709e+07
1.82765e+07
1.82823e+07
1.82882e+07
1.82942e+07
1.83003e+07
1.83065e+07
1.83128e+07
1.83192e+07
1.83258e+07
1.83324e+07
1.83392e+07
1.83461e+07
1.83531e+07
1.83602e+07
1.83675e+07
1.83748e+07
1.83823e+07
1.83899e+07
1.83976e+07
1.84055e+07
1.84134e+07
1.84215e+07
1.84297e+07
1.84381e+07
1.84465e+07
1.84551e+07
1.84639e+07
1.84727e+07
1.84817e+07
1.84908e+07
1.85e+07
1.85094e+07
1.85189e+07
1.85285e+07
1.85382e+07
1.85481e+07
1.85581e+07
1.85683e+07
1.85785e+07
1.85889e+07
1.85995e+07
1.86101e+07
1.86209e+07
1.86318e+07
1.86429e+07
1.86541e+07
1.86653e+07
1.86768e+07
1.86883e+07
1.87e+07
1.87118e+07
1.87237e+07
1.87357e+07
1.87479e+07
1.87602e+07
1.87726e+07
1.87851e+07
1.87977e+07
1.88104e+07
1.88232e+07
1.88362e+07
1.88492e+07
1.88624e+07
1.88756e+07
1.8889e+07
1.89025e+07
1.8916e+07
1.89296e+07
1.89434e+07
1.89572e+07
1.89711e+07
1.89851e+07
1.89991e+07
1.90132e+07
1.90274e+07
1.90417e+07
1.9056e+07
1.90704e+07
1.90849e+07
1.90994e+07
1.9114e+07
1.91286e+07
1.91432e+07
1.91579e+07
1.91727e+07
1.91874e+07
1.92022e+07
1.92171e+07
1.92319e+07
1.92468e+07
1.92617e+07
1.92766e+07
1.92915e+07
1.93064e+07
1.93213e+07
1.93362e+07
1.93511e+07
1.9366e+07
1.93809e+07
1.93957e+07
1.94105e+07
1.94249e+07
1.9439e+07
1.80685e+07
1.80685e+07
1.80686e+07
1.80687e+07
1.80688e+07
1.80689e+07
1.8069e+07
1.80692e+07
1.80694e+07
1.80696e+07
1.80698e+07
1.807e+07
1.80703e+07
1.80706e+07
1.80709e+07
1.80713e+07
1.80716e+07
1.8072e+07
1.80725e+07
1.80729e+07
1.80734e+07
1.80739e+07
1.80745e+07
1.8075e+07
1.80757e+07
1.80763e+07
1.8077e+07
1.80777e+07
1.80785e+07
1.80793e+07
1.80801e+07
1.8081e+07
1.80819e+07
1.80829e+07
1.80839e+07
1.80849e+07
1.8086e+07
1.80872e+07
1.80883e+07
1.80896e+07
1.80909e+07
1.80922e+07
1.80936e+07
1.8095e+07
1.80965e+07
1.80981e+07
1.80997e+07
1.81013e+07
1.8103e+07
1.81048e+07
1.81067e+07
1.81085e+07
1.81105e+07
1.81125e+07
1.81146e+07
1.81167e+07
1.81189e+07
1.81212e+07
1.81235e+07
1.8126e+07
1.81284e+07
1.8131e+07
1.81336e+07
1.81363e+07
1.8139e+07
1.81418e+07
1.81447e+07
1.81477e+07
1.81508e+07
1.81539e+07
1.81571e+07
1.81604e+07
1.81638e+07
1.81672e+07
1.81707e+07
1.81743e+07
1.8178e+07
1.81818e+07
1.81857e+07
1.81896e+07
1.81936e+07
1.81978e+07
1.8202e+07
1.82063e+07
1.82107e+07
1.82152e+07
1.82197e+07
1.82244e+07
1.82292e+07
1.8234e+07
1.8239e+07
1.82441e+07
1.82492e+07
1.82545e+07
1.82598e+07
1.82653e+07
1.82709e+07
1.82765e+07
1.82823e+07
1.82882e+07
1.82942e+07
1.83003e+07
1.83065e+07
1.83128e+07
1.83192e+07
1.83258e+07
1.83324e+07
1.83392e+07
1.83461e+07
1.83531e+07
1.83602e+07
1.83675e+07
1.83748e+07
1.83823e+07
1.83899e+07
1.83976e+07
1.84055e+07
1.84134e+07
1.84215e+07
1.84297e+07
1.84381e+07
1.84465e+07
1.84551e+07
1.84639e+07
1.84727e+07
1.84817e+07
1.84908e+07
1.85e+07
1.85094e+07
1.85189e+07
1.85285e+07
1.85382e+07
1.85481e+07
1.85581e+07
1.85683e+07
1.85785e+07
1.85889e+07
1.85995e+07
1.86101e+07
1.86209e+07
1.86318e+07
1.86429e+07
1.86541e+07
1.86653e+07
1.86768e+07
1.86883e+07
1.87e+07
1.87118e+07
1.87237e+07
1.87357e+07
1.87479e+07
1.87602e+07
1.87726e+07
1.87851e+07
1.87977e+07
1.88104e+07
1.88232e+07
1.88362e+07
1.88492e+07
1.88624e+07
1.88756e+07
1.8889e+07
1.89025e+07
1.8916e+07
1.89296e+07
1.89434e+07
1.89572e+07
1.89711e+07
1.89851e+07
1.89991e+07
1.90132e+07
1.90274e+07
1.90417e+07
1.9056e+07
1.90704e+07
1.90849e+07
1.90994e+07
1.9114e+07
1.91286e+07
1.91432e+07
1.91579e+07
1.91727e+07
1.91874e+07
1.92022e+07
1.92171e+07
1.92319e+07
1.92468e+07
1.92617e+07
1.92766e+07
1.92915e+07
1.93064e+07
1.93213e+07
1.93362e+07
1.93511e+07
1.9366e+07
1.93809e+07
1.93957e+07
1.94105e+07
1.94249e+07
1.9439e+07
1.94575e+07
1.9464e+07
1.94681e+07
1.94711e+07
1.94738e+07
1.94766e+07
1.94793e+07
1.9482e+07
1.94847e+07
1.94873e+07
1.94898e+07
1.94924e+07
1.94949e+07
1.94974e+07
1.94998e+07
1.95021e+07
1.95043e+07
1.95064e+07
1.95082e+07
1.95096e+07
1.9457e+07
1.9463e+07
1.9467e+07
1.947e+07
1.94728e+07
1.94756e+07
1.94783e+07
1.9481e+07
1.94837e+07
1.94863e+07
1.94888e+07
1.94914e+07
1.9494e+07
1.94964e+07
1.94988e+07
1.95012e+07
1.95034e+07
1.95054e+07
1.95073e+07
1.95086e+07
1.94566e+07
1.94628e+07
1.9467e+07
1.947e+07
1.94728e+07
1.94755e+07
1.94783e+07
1.9481e+07
1.94836e+07
1.94863e+07
1.94887e+07
1.94914e+07
1.94938e+07
1.94963e+07
1.94987e+07
1.9501e+07
1.95031e+07
1.95051e+07
1.95069e+07
1.95082e+07
1.94544e+07
1.94588e+07
1.94621e+07
1.94648e+07
1.94676e+07
1.94703e+07
1.94731e+07
1.94758e+07
1.94786e+07
1.94813e+07
1.94837e+07
1.94865e+07
1.9489e+07
1.94915e+07
1.94939e+07
1.94962e+07
1.94984e+07
1.95004e+07
1.95022e+07
1.95038e+07
1.94527e+07
1.94571e+07
1.9461e+07
1.94645e+07
1.94677e+07
1.94706e+07
1.94733e+07
1.94759e+07
1.94784e+07
1.94811e+07
1.94835e+07
1.94858e+07
1.94882e+07
1.94906e+07
1.94928e+07
1.9495e+07
1.94971e+07
1.94991e+07
1.95011e+07
1.95029e+07
1.94463e+07
1.94478e+07
1.94491e+07
1.94506e+07
1.94523e+07
1.94545e+07
1.94568e+07
1.94594e+07
1.94619e+07
1.94648e+07
1.94675e+07
1.94705e+07
1.9473e+07
1.94761e+07
1.94788e+07
1.94815e+07
1.94843e+07
1.94872e+07
1.94901e+07
1.94932e+07
1.94425e+07
1.9444e+07
1.94466e+07
1.94495e+07
1.94523e+07
1.9455e+07
1.94575e+07
1.946e+07
1.94625e+07
1.94647e+07
1.94674e+07
1.94696e+07
1.94721e+07
1.94744e+07
1.94769e+07
1.94795e+07
1.94822e+07
1.94852e+07
1.94884e+07
1.94919e+07
1.9434e+07
1.94312e+07
1.94293e+07
1.94288e+07
1.94297e+07
1.94312e+07
1.94331e+07
1.94354e+07
1.9438e+07
1.94407e+07
1.94438e+07
1.94469e+07
1.94505e+07
1.9454e+07
1.94578e+07
1.94619e+07
1.94663e+07
1.94709e+07
1.9476e+07
1.94815e+07
1.94318e+07
1.94292e+07
1.9428e+07
1.94283e+07
1.94294e+07
1.9431e+07
1.9433e+07
1.94353e+07
1.94378e+07
1.94405e+07
1.94435e+07
1.94466e+07
1.945e+07
1.94534e+07
1.94571e+07
1.9461e+07
1.94652e+07
1.94698e+07
1.94748e+07
1.94803e+07
1.94294e+07
1.94242e+07
1.94219e+07
1.94217e+07
1.94224e+07
1.94239e+07
1.94258e+07
1.94281e+07
1.94306e+07
1.94334e+07
1.94365e+07
1.94397e+07
1.94433e+07
1.9447e+07
1.94509e+07
1.94551e+07
1.94596e+07
1.94646e+07
1.94701e+07
1.94762e+07
1.95095e+07
1.95171e+07
1.95275e+07
1.95385e+07
1.95496e+07
1.95608e+07
1.95719e+07
1.95831e+07
1.95942e+07
1.96053e+07
1.96164e+07
1.96274e+07
1.96384e+07
1.96494e+07
1.96604e+07
1.96713e+07
1.96821e+07
1.96929e+07
1.97037e+07
1.97145e+07
1.97251e+07
1.97358e+07
1.97464e+07
1.97569e+07
1.97674e+07
1.97779e+07
1.97882e+07
1.97986e+07
1.98089e+07
1.98191e+07
1.98292e+07
1.98394e+07
1.98494e+07
1.98594e+07
1.98693e+07
1.98792e+07
1.9889e+07
1.98988e+07
1.99085e+07
1.99181e+07
1.99277e+07
1.99372e+07
1.99466e+07
1.9956e+07
1.99653e+07
1.99746e+07
1.99838e+07
1.99929e+07
2.00019e+07
2.00109e+07
2.00199e+07
2.00287e+07
2.00375e+07
2.00463e+07
2.00549e+07
2.00635e+07
2.00721e+07
2.00805e+07
2.00889e+07
2.00973e+07
2.01055e+07
2.01137e+07
2.01219e+07
2.01299e+07
2.01379e+07
2.01459e+07
2.01537e+07
2.01615e+07
2.01693e+07
2.0177e+07
2.01846e+07
2.01921e+07
2.01996e+07
2.0207e+07
2.02143e+07
2.02216e+07
2.02288e+07
2.0236e+07
2.02431e+07
2.02501e+07
2.02571e+07
2.0264e+07
2.02708e+07
2.02776e+07
2.02843e+07
2.02909e+07
2.02975e+07
2.0304e+07
2.03104e+07
2.03168e+07
2.03231e+07
2.03294e+07
2.03356e+07
2.03417e+07
2.03478e+07
2.03538e+07
2.03598e+07
2.03657e+07
2.03715e+07
2.03772e+07
2.03829e+07
2.03886e+07
2.03942e+07
2.03997e+07
2.04052e+07
2.04106e+07
2.04159e+07
2.04212e+07
2.04264e+07
2.04316e+07
2.04367e+07
2.04417e+07
2.04467e+07
2.04516e+07
2.04565e+07
2.04613e+07
2.04661e+07
2.04708e+07
2.04754e+07
2.048e+07
2.04845e+07
2.0489e+07
2.04934e+07
2.04978e+07
2.05021e+07
2.05064e+07
2.05106e+07
2.05148e+07
2.05189e+07
2.0523e+07
2.0527e+07
2.05309e+07
2.05348e+07
2.05387e+07
2.05425e+07
2.05462e+07
2.05499e+07
2.05536e+07
2.05572e+07
2.05607e+07
2.05642e+07
2.05677e+07
2.05711e+07
2.05744e+07
2.05777e+07
2.0581e+07
2.05842e+07
2.05873e+07
2.05904e+07
2.05935e+07
2.05965e+07
2.05995e+07
2.06024e+07
2.06053e+07
2.06081e+07
2.06109e+07
2.06137e+07
2.06164e+07
2.06191e+07
2.06217e+07
2.06243e+07
2.06268e+07
2.06293e+07
2.06318e+07
2.06342e+07
2.06366e+07
2.06389e+07
2.06412e+07
2.06435e+07
2.06457e+07
2.06479e+07
2.065e+07
2.06521e+07
2.06541e+07
2.06561e+07
2.0658e+07
2.06599e+07
2.06618e+07
2.06636e+07
2.06654e+07
2.06671e+07
2.06688e+07
2.06705e+07
2.06721e+07
2.06737e+07
2.06752e+07
2.06767e+07
2.06782e+07
2.06796e+07
2.0681e+07
2.06824e+07
2.06837e+07
2.0685e+07
2.06863e+07
2.06876e+07
2.06888e+07
2.069e+07
2.06911e+07
2.06922e+07
2.06933e+07
1.95092e+07
1.95171e+07
1.95275e+07
1.95385e+07
1.95496e+07
1.95608e+07
1.95719e+07
1.95831e+07
1.95942e+07
1.96053e+07
1.96164e+07
1.96274e+07
1.96384e+07
1.96494e+07
1.96604e+07
1.96713e+07
1.96821e+07
1.96929e+07
1.97037e+07
1.97145e+07
1.97251e+07
1.97358e+07
1.97464e+07
1.97569e+07
1.97674e+07
1.97779e+07
1.97882e+07
1.97986e+07
1.98089e+07
1.98191e+07
1.98292e+07
1.98394e+07
1.98494e+07
1.98594e+07
1.98693e+07
1.98792e+07
1.9889e+07
1.98988e+07
1.99085e+07
1.99181e+07
1.99277e+07
1.99372e+07
1.99466e+07
1.9956e+07
1.99653e+07
1.99746e+07
1.99838e+07
1.99929e+07
2.00019e+07
2.00109e+07
2.00199e+07
2.00287e+07
2.00375e+07
2.00463e+07
2.00549e+07
2.00635e+07