/*--------------------------------*- C++ -*----------------------------------*\
| =========                 |                                                 |
| \\      /  F ield         | OpenFOAM: The Open Source CFD Toolbox           |
|  \\    /   O peration     | Version:  3.0.x                                 |
|   \\  /    A nd           | Web:      www.OpenFOAM.org                      |
|    \\/     M anipulation  |                                                 |
\*---------------------------------------------------------------------------*/
FoamFile
{
    version     2.0;
    format      ascii;
    class       volScalarField;
    location    "0.51";
    object      T;
}
// * * * * * * * * * * * * * * * * * * * * * * * * * * * * * * * * * * * * * //

dimensions      [0 0 0 1 0 0 0];

internalField   nonuniform List<scalar> 
13800
(
773.547
773.547
773.547
773.547
773.548
773.548
773.549
773.55
773.552
773.553
773.554
773.556
773.558
773.56
773.562
773.565
773.567
773.57
773.573
773.576
773.579
773.583
773.587
773.591
773.595
773.6
773.604
773.61
773.615
773.62
773.626
773.633
773.639
773.646
773.653
773.66
773.668
773.676
773.685
773.694
773.703
773.712
773.722
773.732
773.743
773.754
773.765
773.777
773.789
773.802
773.815
773.828
773.842
773.857
773.871
773.887
773.902
773.918
773.935
773.952
773.97
773.988
774.006
774.026
774.045
774.065
774.086
774.107
774.129
774.151
774.174
774.198
774.223
774.247
774.273
774.299
774.325
774.352
774.378
774.405
774.432
774.46
774.489
774.518
774.549
774.58
774.612
774.645
774.678
774.713
774.748
774.785
774.822
774.859
774.898
774.937
774.976
775.016
775.056
775.097
775.138
775.181
775.224
775.269
775.314
775.36
775.406
775.453
775.5
775.549
775.598
775.647
775.698
775.749
775.802
775.855
775.91
775.965
776.022
776.079
776.138
776.198
776.259
776.321
776.383
776.447
776.511
776.576
776.641
776.706
776.772
776.839
776.907
776.976
777.046
777.117
777.189
777.262
777.335
777.41
777.486
777.563
777.641
777.719
777.799
777.879
777.96
778.042
778.124
778.208
778.292
778.377
778.463
778.549
778.637
778.725
778.813
778.903
778.993
779.084
779.175
779.268
779.36
779.454
779.547
779.642
779.737
779.832
779.928
780.025
780.122
780.219
780.317
780.415
780.513
780.612
780.711
780.811
780.909
781.012
781.108
781.213
781.308
781.415
781.509
781.618
781.709
781.822
781.909
782.026
782.109
782.23
782.308
782.435
782.506
782.638
782.707
782.84
782.916
783.046
773.521
773.521
773.521
773.521
773.522
773.522
773.523
773.525
773.526
773.527
773.529
773.531
773.532
773.534
773.537
773.539
773.542
773.545
773.548
773.551
773.554
773.558
773.562
773.566
773.57
773.575
773.58
773.585
773.59
773.596
773.602
773.608
773.615
773.621
773.629
773.636
773.644
773.652
773.661
773.67
773.679
773.688
773.698
773.709
773.719
773.73
773.742
773.754
773.766
773.778
773.792
773.805
773.819
773.833
773.848
773.863
773.879
773.895
773.912
773.929
773.947
773.965
773.984
774.003
774.023
774.043
774.063
774.084
774.106
774.129
774.152
774.176
774.201
774.225
774.251
774.277
774.304
774.33
774.357
774.384
774.411
774.439
774.468
774.497
774.528
774.559
774.591
774.624
774.657
774.692
774.727
774.764
774.801
774.839
774.877
774.916
774.956
774.996
775.036
775.077
775.118
775.161
775.204
775.249
775.294
775.34
775.387
775.434
775.481
775.53
775.579
775.628
775.679
775.73
775.783
775.837
775.891
775.946
776.003
776.06
776.119
776.179
776.24
776.302
776.365
776.428
776.493
776.558
776.623
776.689
776.755
776.822
776.89
776.959
777.028
777.099
777.171
777.244
777.318
777.393
777.469
777.546
777.624
777.702
777.782
777.862
777.943
778.025
778.108
778.191
778.276
778.361
778.447
778.533
778.621
778.709
778.797
778.887
778.977
779.068
779.159
779.251
779.344
779.437
779.531
779.626
779.721
779.816
779.912
780.008
780.105
780.203
780.3
780.399
780.497
780.596
780.694
780.795
780.893
780.996
781.092
781.197
781.292
781.399
781.492
781.602
781.692
781.806
781.892
782.01
782.092
782.214
782.291
782.419
782.49
782.622
782.69
782.826
782.897
783.083
773.521
773.521
773.521
773.521
773.522
773.522
773.523
773.524
773.526
773.527
773.529
773.53
773.532
773.534
773.537
773.539
773.542
773.545
773.548
773.551
773.554
773.558
773.562
773.566
773.57
773.575
773.58
773.585
773.59
773.596
773.602
773.608
773.615
773.621
773.629
773.636
773.644
773.652
773.661
773.669
773.679
773.688
773.698
773.708
773.719
773.73
773.742
773.754
773.766
773.778
773.791
773.805
773.819
773.833
773.848
773.863
773.879
773.895
773.912
773.929
773.947
773.965
773.984
774.003
774.023
774.043
774.063
774.084
774.106
774.129
774.152
774.176
774.2
774.225
774.251
774.277
774.304
774.33
774.357
774.384
774.411
774.439
774.468
774.497
774.528
774.559
774.591
774.624
774.657
774.692
774.727
774.764
774.801
774.838
774.877
774.916
774.956
774.996
775.036
775.077
775.118
775.161
775.204
775.249
775.294
775.34
775.387
775.434
775.481
775.53
775.579
775.628
775.679
775.73
775.783
775.836
775.891
775.946
776.003
776.06
776.119
776.179
776.24
776.302
776.365
776.428
776.493
776.558
776.623
776.689
776.755
776.822
776.89
776.959
777.028
777.099
777.171
777.244
777.318
777.393
777.469
777.546
777.623
777.702
777.782
777.862
777.943
778.025
778.108
778.191
778.276
778.361
778.447
778.533
778.62
778.709
778.797
778.887
778.977
779.068
779.159
779.251
779.344
779.437
779.531
779.626
779.72
779.816
779.912
780.008
780.105
780.203
780.3
780.399
780.497
780.596
780.694
780.795
780.893
780.996
781.092
781.197
781.292
781.399
781.492
781.602
781.692
781.806
781.892
782.01
782.092
782.214
782.291
782.419
782.49
782.622
782.69
782.825
782.897
783.082
773.521
773.521
773.521
773.521
773.522
773.523
773.524
773.525
773.526
773.527
773.529
773.531
773.533
773.535
773.537
773.539
773.542
773.545
773.548
773.551
773.554
773.558
773.562
773.566
773.57
773.575
773.58
773.585
773.59
773.596
773.602
773.608
773.615
773.622
773.629
773.636
773.644
773.652
773.661
773.67
773.679
773.688
773.698
773.709
773.719
773.73
773.742
773.754
773.766
773.779
773.792
773.805
773.819
773.833
773.848
773.864
773.879
773.896
773.912
773.929
773.947
773.965
773.984
774.003
774.023
774.043
774.063
774.084
774.106
774.129
774.152
774.176
774.201
774.226
774.251
774.277
774.304
774.33
774.357
774.384
774.411
774.439
774.468
774.497
774.528
774.559
774.591
774.624
774.657
774.692
774.727
774.764
774.801
774.839
774.877
774.916
774.956
774.996
775.036
775.077
775.118
775.161
775.205
775.249
775.294
775.34
775.387
775.434
775.481
775.53
775.579
775.628
775.679
775.73
775.783
775.837
775.891
775.946
776.003
776.06
776.119
776.179
776.24
776.302
776.365
776.428
776.493
776.558
776.623
776.689
776.755
776.822
776.89
776.959
777.028
777.099
777.171
777.244
777.318
777.393
777.469
777.546
777.624
777.702
777.782
777.862
777.943
778.025
778.108
778.191
778.276
778.361
778.447
778.533
778.62
778.709
778.797
778.887
778.977
779.068
779.159
779.251
779.344
779.437
779.531
779.626
779.72
779.816
779.912
780.008
780.105
780.203
780.3
780.399
780.497
780.596
780.694
780.795
780.893
780.996
781.092
781.197
781.292
781.399
781.492
781.602
781.692
781.806
781.892
782.01
782.092
782.214
782.291
782.418
782.49
782.621
782.69
782.824
782.896
783.049
773.522
773.521
773.521
773.521
773.522
773.523
773.524
773.525
773.526
773.528
773.529
773.531
773.533
773.535
773.537
773.539
773.542
773.545
773.548
773.551
773.555
773.558
773.562
773.566
773.571
773.575
773.58
773.585
773.59
773.596
773.602
773.608
773.615
773.622
773.629
773.636
773.644
773.652
773.661
773.67
773.679
773.689
773.698
773.709
773.719
773.73
773.742
773.754
773.766
773.779
773.792
773.805
773.819
773.834
773.848
773.864
773.879
773.896
773.912
773.93
773.947
773.965
773.984
774.003
774.023
774.043
774.063
774.084
774.106
774.129
774.152
774.176
774.201
774.226
774.251
774.277
774.304
774.33
774.357
774.384
774.411
774.439
774.468
774.497
774.528
774.559
774.591
774.624
774.657
774.692
774.727
774.764
774.801
774.839
774.877
774.916
774.956
774.996
775.036
775.077
775.119
775.161
775.205
775.249
775.294
775.34
775.387
775.434
775.481
775.53
775.579
775.628
775.679
775.73
775.783
775.837
775.891
775.946
776.003
776.061
776.119
776.179
776.24
776.302
776.365
776.428
776.493
776.558
776.623
776.689
776.755
776.822
776.89
776.959
777.028
777.099
777.171
777.244
777.318
777.393
777.469
777.546
777.624
777.702
777.782
777.862
777.943
778.025
778.108
778.191
778.276
778.361
778.447
778.533
778.62
778.709
778.797
778.887
778.977
779.068
779.159
779.251
779.344
779.437
779.531
779.626
779.72
779.816
779.912
780.008
780.105
780.203
780.3
780.399
780.497
780.596
780.694
780.795
780.893
780.996
781.092
781.197
781.292
781.399
781.492
781.602
781.692
781.806
781.892
782.01
782.092
782.214
782.291
782.418
782.491
782.62
782.691
782.823
782.892
783.047
773.522
773.521
773.521
773.521
773.522
773.523
773.524
773.525
773.526
773.528
773.529
773.531
773.533
773.535
773.537
773.539
773.542
773.545
773.548
773.551
773.555
773.558
773.562
773.566
773.571
773.575
773.58
773.585
773.59
773.596
773.602
773.608
773.615
773.622
773.629
773.636
773.644
773.652
773.661
773.67
773.679
773.689
773.698
773.709
773.719
773.73
773.742
773.754
773.766
773.779
773.792
773.805
773.819
773.834
773.848
773.864
773.879
773.896
773.912
773.93
773.947
773.965
773.984
774.003
774.023
774.043
774.063
774.084
774.106
774.129
774.152
774.176
774.201
774.226
774.251
774.277
774.304
774.33
774.357
774.384
774.411
774.439
774.468
774.497
774.528
774.559
774.591
774.624
774.657
774.692
774.727
774.764
774.801
774.839
774.877
774.916
774.956
774.996
775.036
775.077
775.119
775.161
775.205
775.249
775.294
775.34
775.387
775.434
775.481
775.53
775.579
775.628
775.679
775.73
775.783
775.837
775.891
775.946
776.003
776.061
776.119
776.179
776.24
776.302
776.365
776.428
776.493
776.558
776.623
776.689
776.755
776.822
776.89
776.959
777.028
777.099
777.171
777.244
777.318
777.393
777.469
777.546
777.624
777.702
777.782
777.862
777.943
778.025
778.108
778.191
778.276
778.361
778.447
778.533
778.62
778.709
778.797
778.887
778.977
779.068
779.159
779.251
779.344
779.437
779.531
779.626
779.72
779.816
779.912
780.008
780.105
780.203
780.3
780.398
780.497
780.596
780.695
780.794
780.894
780.994
781.093
781.196
781.293
781.397
781.496
781.595
781.703
781.792
781.908
781.993
782.11
782.196
782.309
782.404
782.5
782.615
782.695
782.81
782.903
783
773.521
773.521
773.521
773.521
773.522
773.523
773.524
773.525
773.526
773.527
773.529
773.531
773.533
773.535
773.537
773.539
773.542
773.545
773.548
773.551
773.554
773.558
773.562
773.566
773.57
773.575
773.58
773.585
773.59
773.596
773.602
773.608
773.615
773.622
773.629
773.636
773.644
773.652
773.661
773.67
773.679
773.688
773.698
773.709
773.719
773.73
773.742
773.754
773.766
773.779
773.792
773.805
773.819
773.833
773.848
773.864
773.879
773.896
773.912
773.929
773.947
773.965
773.984
774.003
774.023
774.043
774.063
774.084
774.106
774.129
774.152
774.176
774.201
774.226
774.251
774.277
774.304
774.33
774.357
774.384
774.411
774.439
774.468
774.497
774.528
774.559
774.591
774.624
774.657
774.692
774.727
774.764
774.801
774.839
774.877
774.916
774.956
774.996
775.036
775.077
775.118
775.161
775.205
775.249
775.294
775.34
775.387
775.434
775.481
775.53
775.579
775.628
775.679
775.73
775.783
775.837
775.891
775.946
776.003
776.06
776.119
776.179
776.24
776.302
776.365
776.428
776.493
776.558
776.623
776.689
776.755
776.822
776.89
776.959
777.028
777.099
777.171
777.244
777.318
777.393
777.469
777.546
777.624
777.702
777.782
777.862
777.943
778.025
778.108
778.191
778.276
778.361
778.447
778.533
778.62
778.709
778.797
778.887
778.977
779.068
779.159
779.251
779.344
779.437
779.531
779.626
779.72
779.816
779.912
780.008
780.105
780.203
780.3
780.398
780.497
780.596
780.695
780.794
780.895
780.992
781.097
781.191
781.299
781.391
781.501
781.592
781.704
781.792
781.907
781.993
782.111
782.193
782.316
782.391
782.52
782.589
782.723
782.786
782.933
782.972
773.521
773.521
773.521
773.521
773.522
773.522
773.523
773.524
773.526
773.527
773.529
773.53
773.532
773.534
773.537
773.539
773.542
773.545
773.548
773.551
773.554
773.558
773.562
773.566
773.57
773.575
773.58
773.585
773.59
773.596
773.602
773.608
773.615
773.621
773.629
773.636
773.644
773.652
773.661
773.669
773.679
773.688
773.698
773.708
773.719
773.73
773.742
773.754
773.766
773.778
773.791
773.805
773.819
773.833
773.848
773.863
773.879
773.895
773.912
773.929
773.947
773.965
773.984
774.003
774.023
774.043
774.063
774.084
774.106
774.129
774.152
774.176
774.2
774.225
774.251
774.277
774.304
774.33
774.357
774.384
774.411
774.439
774.468
774.497
774.528
774.559
774.591
774.624
774.657
774.692
774.727
774.764
774.801
774.838
774.877
774.916
774.956
774.996
775.036
775.077
775.118
775.161
775.204
775.249
775.294
775.34
775.387
775.434
775.481
775.53
775.579
775.628
775.679
775.73
775.783
775.836
775.891
775.946
776.003
776.06
776.119
776.179
776.24
776.302
776.365
776.428
776.493
776.558
776.623
776.689
776.755
776.822
776.89
776.959
777.028
777.099
777.171
777.244
777.318
777.393
777.469
777.546
777.623
777.702
777.782
777.862
777.943
778.025
778.108
778.191
778.276
778.361
778.447
778.533
778.62
778.709
778.797
778.887
778.977
779.068
779.159
779.251
779.344
779.437
779.531
779.626
779.72
779.816
779.912
780.008
780.105
780.203
780.3
780.398
780.497
780.595
780.695
780.793
780.895
780.992
781.097
781.191
781.299
781.391
781.502
781.591
781.705
781.791
781.909
781.992
782.112
782.192
782.316
782.391
782.521
782.588
782.724
782.785
782.955
782.882
773.521
773.521
773.521
773.521
773.522
773.522
773.523
773.525
773.526
773.527
773.529
773.531
773.532
773.534
773.537
773.539
773.542
773.545
773.548
773.551
773.554
773.558
773.562
773.566
773.57
773.575
773.58
773.585
773.59
773.596
773.602
773.608
773.615
773.621
773.629
773.636
773.644
773.652
773.661
773.67
773.679
773.688
773.698
773.709
773.719
773.73
773.742
773.754
773.766
773.778
773.792
773.805
773.819
773.833
773.848
773.863
773.879
773.895
773.912
773.929
773.947
773.965
773.984
774.003
774.023
774.043
774.063
774.084
774.106
774.129
774.152
774.176
774.201
774.225
774.251
774.277
774.304
774.33
774.357
774.384
774.411
774.439
774.468
774.497
774.528
774.559
774.591
774.624
774.657
774.692
774.727
774.764
774.801
774.839
774.877
774.916
774.956
774.996
775.036
775.077
775.118
775.161
775.204
775.249
775.294
775.34
775.387
775.434
775.481
775.53
775.579
775.628
775.679
775.73
775.783
775.837
775.891
775.946
776.003
776.06
776.119
776.179
776.24
776.302
776.365
776.428
776.493
776.558
776.623
776.689
776.755
776.822
776.89
776.959
777.028
777.099
777.171
777.244
777.318
777.393
777.469
777.546
777.624
777.702
777.782
777.862
777.943
778.025
778.108
778.191
778.276
778.361
778.447
778.533
778.621
778.709
778.797
778.887
778.977
779.068
779.159
779.251
779.344
779.437
779.531
779.626
779.721
779.816
779.912
780.008
780.105
780.203
780.3
780.398
780.497
780.595
780.696
780.793
780.896
780.992
781.097
781.191
781.299
781.391
781.502
781.591
781.705
781.791
781.909
781.991
782.113
782.191
782.317
782.39
782.521
782.588
782.724
782.784
782.965
782.806
773.547
773.547
773.547
773.547
773.548
773.548
773.549
773.55
773.552
773.553
773.554
773.556
773.558
773.56
773.562
773.565
773.567
773.57
773.573
773.576
773.579
773.583
773.587
773.591
773.595
773.6
773.604
773.61
773.615
773.62
773.626
773.633
773.639
773.646
773.653
773.66
773.668
773.676
773.685
773.694
773.703
773.712
773.722
773.732
773.743
773.754
773.765
773.777
773.789
773.802
773.815
773.828
773.842
773.857
773.871
773.887
773.902
773.918
773.935
773.952
773.97
773.988
774.006
774.026
774.045
774.065
774.086
774.107
774.129
774.151
774.174
774.198
774.223
774.247
774.273
774.299
774.325
774.352
774.378
774.405
774.432
774.46
774.489
774.518
774.549
774.58
774.612
774.645
774.678
774.713
774.748
774.785
774.822
774.859
774.898
774.937
774.976
775.016
775.056
775.097
775.138
775.181
775.224
775.269
775.314
775.36
775.406
775.453
775.5
775.549
775.598
775.647
775.698
775.749
775.802
775.855
775.91
775.965
776.022
776.079
776.138
776.198
776.259
776.321
776.383
776.447
776.511
776.576
776.641
776.706
776.772
776.839
776.907
776.976
777.046
777.117
777.189
777.262
777.335
777.41
777.486
777.563
777.641
777.719
777.799
777.879
777.96
778.042
778.124
778.208
778.292
778.377
778.463
778.549
778.637
778.725
778.813
778.903
778.993
779.084
779.175
779.268
779.36
779.454
779.547
779.642
779.737
779.832
779.928
780.025
780.122
780.219
780.317
780.415
780.514
780.612
780.712
780.81
780.912
781.008
781.113
781.207
781.315
781.407
781.518
781.607
781.721
781.807
781.926
782.007
782.13
782.207
782.334
782.406
782.538
782.604
782.74
782.8
782.99
782.744
783.189
783.244
783.273
783.292
783.309
783.328
783.348
783.368
783.388
783.407
783.428
783.449
783.469
783.49
783.509
783.526
783.54
783.549
783.557
783.547
783.16
783.207
783.239
783.262
783.284
783.304
783.322
783.338
783.354
783.371
783.389
783.407
783.425
783.442
783.458
783.473
783.487
783.499
783.51
783.509
783.155
783.202
783.234
783.262
783.284
783.305
783.327
783.342
783.361
783.375
783.387
783.402
783.415
783.431
783.445
783.458
783.476
783.485
783.501
783.503
783.123
783.151
783.179
783.201
783.227
783.253
783.277
783.303
783.327
783.351
783.372
783.395
783.418
783.437
783.459
783.474
783.493
783.504
783.52
783.526
783.096
783.128
783.156
783.179
783.201
783.221
783.24
783.256
783.271
783.287
783.301
783.312
783.328
783.34
783.355
783.367
783.381
783.395
783.41
783.427
783.045
783.055
783.069
783.082
783.101
783.116
783.139
783.16
783.187
783.215
783.245
783.274
783.304
783.336
783.368
783.4
783.433
783.462
783.492
783.515
783.016
783.032
783.045
783.062
783.078
783.09
783.1
783.107
783.113
783.118
783.123
783.126
783.134
783.141
783.149
783.16
783.174
783.187
783.209
783.234
782.924
782.917
782.922
782.934
782.948
782.962
782.978
782.996
783.016
783.038
783.063
783.09
783.122
783.15
783.182
783.216
783.251
783.285
783.322
783.355
782.855
782.846
782.843
782.85
782.859
782.867
782.877
782.89
782.903
782.917
782.932
782.946
782.968
782.986
783.009
783.034
783.062
783.095
783.132
783.175
782.821
782.803
782.788
782.794
782.804
782.816
782.83
782.851
782.873
782.9
782.928
782.958
782.989
783.023
783.057
783.096
783.135
783.179
783.225
783.277
783.581
783.607
783.673
783.758
783.833
783.901
783.967
784.037
784.11
784.187
784.265
784.342
784.416
784.488
784.558
784.629
784.7
784.772
784.844
784.916
784.987
785.057
785.127
785.197
785.267
785.336
785.405
785.473
785.542
785.609
785.677
785.744
785.81
785.876
785.942
786.007
786.072
786.137
786.201
786.265
786.328
786.39
786.452
786.514
786.575
786.636
786.697
786.758
786.818
786.877
786.936
786.994
787.051
787.108
787.165
787.221
787.277
787.332
787.387
787.441
787.496
787.549
787.603
787.656
787.708
787.759
787.811
787.862
787.912
787.963
788.013
788.062
788.112
788.16
788.208
788.256
788.302
788.349
788.394
788.44
788.485
788.529
788.574
788.618
788.662
788.705
788.748
788.791
788.832
788.873
788.914
788.955
788.995
789.034
789.074
789.113
789.152
789.19
789.227
789.264
789.301
789.337
789.373
789.409
789.444
789.479
789.514
789.549
789.583
789.617
789.65
789.683
789.715
789.747
789.778
789.809
789.84
789.87
789.9
789.93
789.959
789.987
790.015
790.043
790.071
790.098
790.126
790.153
790.18
790.206
790.232
790.258
790.283
790.308
790.333
790.357
790.381
790.404
790.428
790.451
790.474
790.496
790.518
790.54
790.561
790.58
790.599
790.618
790.637
790.657
790.677
790.695
790.712
790.727
790.739
790.75
790.758
790.766
790.774
790.789
790.813
790.836
790.834
790.818
790.794
790.785
790.817
790.999
791.427
791.914
792.415
792.896
793.332
793.705
794.004
794.208
794.298
794.303
794.283
794.202
793.916
793.346
792.8
792.325
791.949
791.674
791.488
791.357
791.265
791.195
791.156
791.134
791.142
791.147
791.172
791.174
791.195
791.196
791.221
791.221
783.55
783.577
783.638
783.718
783.794
783.864
783.93
783.997
784.067
784.141
784.217
784.293
784.368
784.441
784.511
784.581
784.651
784.721
784.793
784.864
784.935
785.006
785.075
785.145
785.214
785.284
785.352
785.421
785.489
785.557
785.624
785.691
785.757
785.824
785.889
785.954
786.019
786.084
786.148
786.211
786.274
786.337
786.399
786.461
786.522
786.583
786.643
786.703
786.763
786.823
786.882
786.94
786.998
787.055
787.111
787.167
787.223
787.278
787.333
787.387
787.441
787.495
787.548
787.601
787.653
787.705
787.757
787.807
787.858
787.908
787.958
788.007
788.056
788.105
788.153
788.201
788.248
788.294
788.34
788.385
788.43
788.475
788.519
788.563
788.606
788.649
788.692
788.735
788.777
788.819
788.859
788.9
788.94
788.979
789.018
789.057
789.096
789.134
789.172
789.209
789.246
789.282
789.318
789.354
789.388
789.423
789.458
789.492
789.526
789.56
789.594
789.627
789.659
789.691
789.722
789.753
789.784
789.814
789.844
789.873
789.903
789.932
789.96
789.988
790.016
790.043
790.07
790.096
790.123
790.149
790.175
790.201
790.227
790.252
790.277
790.301
790.325
790.349
790.372
790.395
790.418
790.441
790.463
790.485
790.507
790.528
790.547
790.568
790.588
790.606
790.626
790.645
790.662
790.678
790.695
790.709
790.721
790.734
790.75
790.769
790.788
790.805
790.821
790.824
790.812
790.786
790.764
790.753
790.738
790.713
790.678
790.648
790.636
790.653
790.729
790.844
790.976
791.11
791.238
791.355
791.445
791.513
791.527
791.516
791.486
791.429
791.365
791.298
791.243
791.195
791.169
791.151
791.153
791.151
791.165
791.165
791.183
791.183
791.202
791.21
783.546
783.578
783.641
783.723
783.8
783.871
783.938
784.006
784.077
784.151
784.228
784.304
784.378
784.449
784.519
784.589
784.66
784.732
784.804
784.875
784.946
785.016
785.086
785.155
785.225
785.294
785.363
785.431
785.5
785.567
785.635
785.701
785.768
785.834
785.9
785.965
786.03
786.094
786.158
786.222
786.285
786.348
786.41
786.471
786.533
786.593
786.654
786.714
786.774
786.833
786.892
786.951
787.008
787.065
787.122
787.178
787.234
787.289
787.344
787.398
787.452
787.506
787.559
787.612
787.664
787.716
787.767
787.818
787.869
787.919
787.968
788.018
788.067
788.115
788.163
788.211
788.258
788.305
788.351
788.396
788.441
788.485
788.529
788.573
788.617
788.66
788.703
788.746
788.788
788.829
788.87
788.91
788.95
788.99
789.029
789.068
789.106
789.144
789.182
789.22
789.257
789.293
789.329
789.364
789.399
789.434
789.468
789.503
789.537
789.571
789.604
789.637
789.669
789.701
789.733
789.764
789.794
789.824
789.854
789.884
789.913
789.942
789.97
789.998
790.025
790.053
790.08
790.106
790.132
790.159
790.185
790.211
790.236
790.261
790.286
790.31
790.334
790.358
790.381
790.404
790.427
790.449
790.472
790.494
790.515
790.536
790.556
790.577
790.596
790.616
790.635
790.654
790.673
790.69
790.705
790.718
790.733
790.746
790.759
790.78
790.804
790.822
790.835
790.835
790.819
790.787
790.747
790.711
790.684
790.656
790.628
790.603
790.589
790.588
790.622
790.674
790.758
790.832
790.929
790.999
791.088
791.137
791.197
791.216
791.237
791.231
791.222
791.205
791.19
791.172
791.165
791.155
791.159
791.157
791.169
791.169
791.185
791.186
791.204
791.207
783.566
783.632
783.702
783.778
783.858
783.94
784.019
784.096
784.169
784.242
784.317
784.394
784.471
784.548
784.623
784.697
784.769
784.841
784.912
784.983
785.054
785.124
785.195
785.266
785.335
785.405
785.474
785.543
785.611
785.679
785.746
785.813
785.88
785.946
786.011
786.077
786.142
786.206
786.27
786.334
786.397
786.459
786.521
786.583
786.644
786.705
786.766
786.826
786.886
786.945
787.004
787.063
787.12
787.178
787.234
787.29
787.346
787.401
787.456
787.51
787.564
787.618
787.671
787.724
787.776
787.828
787.879
787.93
787.981
788.031
788.081
788.13
788.179
788.228
788.276
788.324
788.37
788.417
788.462
788.508
788.553
788.597
788.642
788.686
788.729
788.773
788.816
788.858
788.9
788.941
788.982
789.022
789.062
789.102
789.141
789.18
789.219
789.257
789.294
789.331
789.368
789.404
789.44
789.476
789.511
789.546
789.581
789.616
789.65
789.684
789.717
789.749
789.782
789.813
789.845
789.876
789.906
789.936
789.966
789.996
790.025
790.053
790.082
790.11
790.137
790.165
790.192
790.22
790.246
790.273
790.298
790.324
790.349
790.374
790.398
790.423
790.446
790.47
790.493
790.517
790.539
790.561
790.582
790.601
790.622
790.643
790.663
790.683
790.703
790.719
790.735
790.75
790.763
790.774
790.788
790.803
790.82
790.837
790.855
790.869
790.876
790.874
790.864
790.852
790.842
790.834
790.828
790.822
790.817
790.814
790.82
790.83
790.856
790.877
790.915
790.942
790.979
791.008
791.039
791.063
791.086
791.099
791.117
791.116
791.13
791.126
791.134
791.13
791.139
791.137
791.149
791.148
791.163
791.163
791.179
791.179
791.195
791.195
791.207
791.213
783.464
783.538
783.615
783.687
783.756
783.825
783.897
783.97
784.044
784.119
784.195
784.269
784.343
784.416
784.489
784.561
784.634
784.706
784.779
784.85
784.921
784.991
785.061
785.131
785.2
785.269
785.338
785.406
785.474
785.542
785.609
785.676
785.743
785.809
785.874
785.94
786.004
786.069
786.133
786.196
786.259
786.322
786.384
786.446
786.507
786.568
786.629
786.689
786.748
786.807
786.866
786.924
786.982
787.039
787.096
787.153
787.209
787.264
787.319
787.374
787.428
787.481
787.534
787.587
787.639
787.691
787.742
787.793
787.844
787.894
787.943
787.992
788.041
788.089
788.137
788.185
788.232
788.278
788.325
788.371
788.416
788.461
788.505
788.549
788.592
788.635
788.678
788.72
788.762
788.803
788.844
788.885
788.925
788.965
789.005
789.044
789.082
789.12
789.158
789.195
789.232
789.268
789.304
789.34
789.375
789.41
789.445
789.479
789.512
789.545
789.578
789.611
789.643
789.675
789.707
789.738
789.769
789.799
789.83
789.859
789.889
789.918
789.946
789.975
790.003
790.03
790.057
790.084
790.11
790.137
790.163
790.189
790.214
790.239
790.264
790.289
790.313
790.337
790.361
790.384
790.407
790.429
790.452
790.474
790.496
790.518
790.539
790.56
790.58
790.6
790.62
790.64
790.66
790.679
790.698
790.716
790.734
790.75
790.765
790.781
790.798
790.816
790.833
790.847
790.859
790.868
790.874
790.879
790.883
790.889
790.894
790.906
790.914
790.933
790.944
790.966
790.979
790.998
791.014
791.028
791.046
791.054
791.071
791.077
791.091
791.099
791.107
791.121
791.123
791.14
791.142
791.155
791.163
791.169
791.181
791.187
791.195
791.202
791.213
791.217
783.581
783.682
783.784
783.886
783.985
784.079
784.171
784.259
784.347
784.432
784.516
784.599
784.68
784.76
784.839
784.916
784.992
785.066
785.14
785.213
785.285
785.356
785.427
785.497
785.567
785.637
785.706
785.774
785.843
785.91
785.978
786.045
786.111
786.178
786.243
786.308
786.373
786.438
786.502
786.566
786.629
786.691
786.753
786.815
786.876
786.938
786.998
787.059
787.119
787.178
787.237
787.295
787.353
787.41
787.466
787.522
787.577
787.633
787.688
787.742
787.796
787.85
787.903
787.955
788.008
788.059
788.111
788.162
788.213
788.264
788.314
788.363
788.412
788.46
788.507
788.554
788.601
788.647
788.693
788.739
788.784
788.829
788.873
788.917
788.96
789.003
789.045
789.087
789.128
789.169
789.21
789.251
789.291
789.33
789.369
789.408
789.446
789.483
789.521
789.558
789.595
789.633
789.669
789.705
789.741
789.776
789.81
789.844
789.878
789.911
789.943
789.976
790.008
790.039
790.07
790.1
790.13
790.159
790.188
790.217
790.245
790.273
790.3
790.327
790.353
790.379
790.404
790.429
790.453
790.477
790.5
790.522
790.543
790.564
790.584
790.603
790.623
790.642
790.662
790.681
790.699
790.716
790.732
790.746
790.76
790.771
790.782
790.793
790.804
790.817
790.831
790.847
790.863
790.88
790.895
790.907
790.914
790.915
790.912
790.906
790.898
790.887
790.876
790.866
790.857
790.853
790.85
790.851
790.851
790.856
790.858
790.868
790.873
790.89
790.899
790.924
790.938
790.969
790.984
791.017
791.027
791.059
791.065
791.092
791.094
791.118
791.118
791.138
791.138
791.156
791.155
791.172
791.171
791.187
791.186
791.201
791.2
791.215
791.214
791.226
783.31
783.39
783.464
783.536
783.607
783.679
783.751
783.823
783.896
783.969
784.041
784.114
784.186
784.258
784.329
784.401
784.472
784.544
784.615
784.686
784.756
784.826
784.896
784.966
785.035
785.104
785.172
785.24
785.307
785.375
785.441
785.508
785.574
785.64
785.706
785.771
785.836
785.9
785.964
786.027
786.09
786.153
786.215
786.277
786.338
786.399
786.459
786.519
786.579
786.638
786.696
786.755
786.812
786.87
786.926
786.983
787.038
787.094
787.149
787.203
787.258
787.312
787.365
787.418
787.47
787.522
787.573
787.624
787.674
787.724
787.774
787.823
787.872
787.92
787.968
788.016
788.063
788.11
788.156
788.202
788.247
788.291
788.336
788.38
788.423
788.467
788.51
788.552
788.595
788.636
788.678
788.719
788.759
788.799
788.838
788.877
788.915
788.953
788.991
789.029
789.066
789.103
789.14
789.176
789.211
789.246
789.28
789.314
789.348
789.381
789.414
789.447
789.479
789.511
789.542
789.574
789.605
789.635
789.665
789.695
789.724
789.752
789.78
789.808
789.836
789.864
789.891
789.918
789.945
789.971
789.997
790.023
790.048
790.072
790.097
790.121
790.145
790.168
790.192
790.215
790.238
790.26
790.282
790.304
790.325
790.346
790.366
790.386
790.406
790.425
790.442
790.461
790.48
790.499
790.519
790.539
790.555
790.571
790.59
790.609
790.627
790.645
790.663
790.681
790.695
790.711
790.728
790.754
790.776
790.804
790.823
790.847
790.855
790.859
790.849
790.837
790.828
790.834
790.846
790.884
790.909
790.957
790.98
791.026
791.04
791.078
791.085
791.115
791.119
791.143
791.145
791.165
791.165
791.183
791.183
791.199
791.198
791.21
791.217
791.225
783.469
783.578
783.686
783.791
783.894
783.994
784.093
784.189
784.283
784.376
784.466
784.555
784.643
784.728
784.811
784.893
784.972
785.05
785.126
785.2
785.273
785.346
785.417
785.487
785.557
785.627
785.696
785.764
785.833
785.9
785.968
786.035
786.101
786.167
786.233
786.298
786.363
786.428
786.492
786.556
786.619
786.681
786.743
786.805
786.866
786.927
786.987
787.048
787.108
787.167
787.227
787.285
787.343
787.4
787.456
787.512
787.567
787.622
787.677
787.731
787.785
787.839
787.892
787.944
787.996
788.048
788.099
788.15
788.201
788.252
788.302
788.351
788.4
788.448
788.494
788.541
788.586
788.632
788.677
788.722
788.766
788.81
788.854
788.896
788.938
788.98
789.02
789.061
789.101