/*--------------------------------*- C++ -*----------------------------------*\
| =========                 |                                                 |
| \\      /  F ield         | OpenFOAM: The Open Source CFD Toolbox           |
|  \\    /   O peration     | Version:  3.0.x                                 |
|   \\  /    A nd           | Web:      www.OpenFOAM.org                      |
|    \\/     M anipulation  |                                                 |
\*---------------------------------------------------------------------------*/
FoamFile
{
    version     2.0;
    format      ascii;
    class       volVectorField;
    location    "0.51";
    object      U;
}
// * * * * * * * * * * * * * * * * * * * * * * * * * * * * * * * * * * * * * //

dimensions      [0 1 -1 0 0 0 0];

internalField   nonuniform List<vector> 
13800
(
(76.1934 0.000140749 0)
(76.1822 0.000123403 0)
(76.1695 0.000121544 0)
(76.1572 0.000124012 0)
(76.1451 0.000125945 0)
(76.1327 0.000127512 0)
(76.12 0.000128835 0)
(76.1069 0.000129936 0)
(76.0935 0.000130852 0)
(76.0797 0.00013162 0)
(76.0655 0.00013227 0)
(76.0508 0.000132823 0)
(76.0357 0.000133296 0)
(76.02 0.000133703 0)
(76.0038 0.000134055 0)
(75.9869 0.000134361 0)
(75.9694 0.000134627 0)
(75.9513 0.000134861 0)
(75.9325 0.000135067 0)
(75.9129 0.000135248 0)
(75.8926 0.000135408 0)
(75.8714 0.00013555 0)
(75.8494 0.000135677 0)
(75.8265 0.000135791 0)
(75.8027 0.000135892 0)
(75.778 0.000135984 0)
(75.7523 0.000136067 0)
(75.7255 0.000136142 0)
(75.6977 0.000136211 0)
(75.6688 0.000136274 0)
(75.6388 0.000136332 0)
(75.6076 0.000136386 0)
(75.5752 0.000136436 0)
(75.5416 0.000136484 0)
(75.5067 0.000136528 0)
(75.4705 0.000136571 0)
(75.433 0.000136612 0)
(75.3941 0.000136651 0)
(75.3538 0.00013669 0)
(75.3121 0.000136727 0)
(75.2689 0.000136764 0)
(75.2243 0.000136801 0)
(75.1781 0.000136838 0)
(75.1304 0.000136875 0)
(75.0811 0.000136913 0)
(75.0301 0.000136951 0)
(74.9775 0.000136989 0)
(74.9233 0.000137029 0)
(74.8673 0.000137069 0)
(74.8097 0.00013711 0)
(74.7502 0.000137153 0)
(74.689 0.000137196 0)
(74.6259 0.000137241 0)
(74.561 0.000137287 0)
(74.4943 0.000137335 0)
(74.4256 0.000137384 0)
(74.355 0.000137434 0)
(74.2825 0.000137486 0)
(74.2079 0.00013754 0)
(74.1314 0.000137595 0)
(74.0528 0.000137652 0)
(73.9722 0.000137711 0)
(73.8894 0.000137773 0)
(73.8046 0.000137837 0)
(73.7176 0.000137903 0)
(73.6284 0.000137972 0)
(73.537 0.000138043 0)
(73.4434 0.000138115 0)
(73.3475 0.000138189 0)
(73.2494 0.000138265 0)
(73.1489 0.000138344 0)
(73.0461 0.000138428 0)
(72.9409 0.000138516 0)
(72.8334 0.000138607 0)
(72.7234 0.0001387 0)
(72.6109 0.000138795 0)
(72.496 0.000138893 0)
(72.3785 0.000138995 0)
(72.2586 0.000139102 0)
(72.136 0.000139213 0)
(72.0109 0.000139329 0)
(71.8831 0.000139449 0)
(71.7527 0.000139571 0)
(71.6197 0.000139696 0)
(71.4839 0.000139824 0)
(71.3454 0.000139956 0)
(71.2041 0.000140092 0)
(71.06 0.00014023 0)
(70.9131 0.000140368 0)
(70.7634 0.000140507 0)
(70.6108 0.000140648 0)
(70.4552 0.000140794 0)
(70.2968 0.000140945 0)
(70.1354 0.000141098 0)
(69.9709 0.000141254 0)
(69.8035 0.00014141 0)
(69.633 0.000141571 0)
(69.4594 0.00014174 0)
(69.2828 0.000141916 0)
(69.1029 0.000142103 0)
(68.9199 0.000142293 0)
(68.7338 0.000142483 0)
(68.5444 0.00014267 0)
(68.3517 0.000142857 0)
(68.1558 0.000143045 0)
(67.9565 0.000143241 0)
(67.7539 0.000143445 0)
(67.548 0.000143657 0)
(67.3387 0.000143873 0)
(67.126 0.000144094 0)
(66.9099 0.000144321 0)
(66.6903 0.000144552 0)
(66.4672 0.000144783 0)
(66.2407 0.000145014 0)
(66.0106 0.000145245 0)
(65.777 0.000145477 0)
(65.5398 0.000145711 0)
(65.2991 0.000145942 0)
(65.0547 0.00014616 0)
(64.8068 0.00014636 0)
(64.5553 0.000146544 0)
(64.3001 0.000146716 0)
(64.0413 0.00014687 0)
(63.7788 0.000147 0)
(63.5127 0.000147091 0)
(63.2428 0.000147138 0)
(62.9694 0.000147137 0)
(62.6922 0.000147087 0)
(62.4114 0.000146982 0)
(62.1268 0.00014681 0)
(61.8386 0.000146556 0)
(61.5468 0.000146204 0)
(61.2512 0.000145736 0)
(60.952 0.000145135 0)
(60.6491 0.000144385 0)
(60.3426 0.000143472 0)
(60.0325 0.000142382 0)
(59.7187 0.000141104 0)
(59.4014 0.000139625 0)
(59.0805 0.000137936 0)
(58.756 0.000136024 0)
(58.4281 0.000133884 0)
(58.0966 0.000131512 0)
(57.7618 0.000128907 0)
(57.4235 0.000126072 0)
(57.0818 0.000123011 0)
(56.7368 0.000119733 0)
(56.3885 0.00011625 0)
(56.037 0.000112576 0)
(55.6823 0.000108731 0)
(55.3244 0.000104734 0)
(54.9634 0.000100611 0)
(54.5994 9.63854e-05 0)
(54.2324 9.20854e-05 0)
(53.8625 8.77394e-05 0)
(53.4896 8.33773e-05 0)
(53.114 7.90277e-05 0)
(52.7356 7.47216e-05 0)
(52.3544 7.04841e-05 0)
(51.9707 6.6345e-05 0)
(51.5843 6.23258e-05 0)
(51.1954 5.84515e-05 0)
(50.8041 5.47398e-05 0)
(50.4104 5.12088e-05 0)
(50.0145 4.78691e-05 0)
(49.6163 4.47327e-05 0)
(49.2159 4.18028e-05 0)
(48.8136 3.90867e-05 0)
(48.4092 3.65807e-05 0)
(48.003 3.42872e-05 0)
(47.5949 3.21948e-05 0)
(47.1851 3.03053e-05 0)
(46.7737 2.85959e-05 0)
(46.3608 2.70777e-05 0)
(45.9464 2.571e-05 0)
(45.5307 2.45177e-05 0)
(45.1137 2.34527e-05 0)
(44.6956 2.25167e-05 0)
(44.2764 2.1739e-05 0)
(43.8562 2.09625e-05 0)
(43.4352 2.04645e-05 0)
(43.0134 1.97747e-05 0)
(42.591 1.95186e-05 0)
(42.168 1.88716e-05 0)
(41.7446 1.88516e-05 0)
(41.3208 1.81079e-05 0)
(40.8968 1.84528e-05 0)
(40.4725 1.74287e-05 0)
(40.0483 1.81963e-05 0)
(39.6241 1.68976e-05 0)
(39.2001 1.80584e-05 0)
(38.7762 1.68223e-05 0)
(38.3529 1.97859e-05 0)
(37.9295 2.59802e-05 0)
(37.5059 6.5852e-05 0)
(37.0775 0.000246496 0)
(36.6269 0.00110325 0)
(36.066 0.0050736 0)
(35.2926 0.0275337 0)
(30.7722 0.0919715 0)
(76.1973 0.000221829 0)
(76.19 0.000163942 0)
(76.1812 0.000149206 0)
(76.1728 0.000147951 0)
(76.1645 0.000146293 0)
(76.156 0.000144792 0)
(76.1472 0.000143666 0)
(76.1381 0.000142761 0)
(76.1286 0.000142006 0)
(76.1187 0.000141373 0)
(76.1083 0.000140838 0)
(76.0976 0.000140383 0)
(76.0863 0.000139994 0)
(76.0745 0.00013966 0)
(76.0622 0.000139373 0)
(76.0492 0.000139125 0)
(76.0356 0.000138912 0)
(76.0214 0.000138728 0)
(76.0064 0.00013857 0)
(75.9908 0.000138434 0)
(75.9743 0.000138318 0)
(75.9571 0.000138219 0)
(75.939 0.000138135 0)
(75.92 0.000138066 0)
(75.9001 0.000138008 0)
(75.8792 0.000137962 0)
(75.8574 0.000137926 0)
(75.8345 0.000137899 0)
(75.8106 0.00013788 0)
(75.7856 0.000137869 0)
(75.7595 0.000137864 0)
(75.7322 0.000137866 0)
(75.7037 0.000137874 0)
(75.6739 0.000137888 0)
(75.643 0.000137907 0)
(75.6107 0.00013793 0)
(75.577 0.000137959 0)
(75.5421 0.000137992 0)
(75.5057 0.000138029 0)
(75.4679 0.00013807 0)
(75.4286 0.000138115 0)
(75.3878 0.000138164 0)
(75.3456 0.000138216 0)
(75.3017 0.000138273 0)
(75.2563 0.000138332 0)
(75.2093 0.000138396 0)
(75.1606 0.000138463 0)
(75.1103 0.000138533 0)
(75.0582 0.000138606 0)
(75.0044 0.000138682 0)
(74.9489 0.000138762 0)
(74.8916 0.000138845 0)
(74.8324 0.000138932 0)
(74.7714 0.000139021 0)
(74.7086 0.000139114 0)
(74.6438 0.000139209 0)
(74.5771 0.000139308 0)
(74.5085 0.00013941 0)
(74.4379 0.000139515 0)
(74.3653 0.000139623 0)
(74.2906 0.000139734 0)
(74.2139 0.000139849 0)
(74.1351 0.000139968 0)
(74.0541 0.00014009 0)
(73.971 0.000140217 0)
(73.8858 0.000140348 0)
(73.7983 0.000140481 0)
(73.7086 0.000140617 0)
(73.6167 0.000140755 0)
(73.5225 0.000140896 0)
(73.4259 0.000141041 0)
(73.3271 0.000141194 0)
(73.2258 0.000141353 0)
(73.1222 0.000141516 0)
(73.0161 0.000141682 0)
(72.9076 0.000141848 0)
(72.7966 0.00014202 0)
(72.6831 0.000142198 0)
(72.5671 0.000142383 0)
(72.4485 0.000142574 0)
(72.3273 0.000142772 0)
(72.2035 0.000142975 0)
(72.0771 0.00014318 0)
(71.9479 0.00014339 0)
(71.8161 0.000143604 0)
(71.6816 0.000143824 0)
(71.5443 0.00014405 0)
(71.4042 0.000144279 0)
(71.2612 0.000144506 0)
(71.1155 0.000144734 0)
(70.9668 0.000144967 0)
(70.8153 0.000145206 0)
(70.6608 0.000145453 0)
(70.5034 0.000145701 0)
(70.343 0.000145955 0)
(70.1795 0.000146207 0)
(70.013 0.000146468 0)
(69.8435 0.000146738 0)
(69.6708 0.000147021 0)
(69.495 0.000147319 0)
(69.316 0.000147621 0)
(69.1338 0.000147919 0)
(68.9485 0.000148214 0)
(68.7598 0.000148509 0)
(68.5679 0.000148803 0)
(68.3727 0.00014911 0)
(68.1742 0.000149427 0)
(67.9723 0.000149758 0)
(67.7671 0.000150092 0)
(67.5584 0.000150435 0)
(67.3463 0.000150785 0)
(67.1308 0.000151141 0)
(66.9118 0.000151497 0)
(66.6893 0.000151852 0)
(66.4633 0.000152206 0)
(66.2338 0.000152565 0)
(66.0007 0.000152929 0)
(65.764 0.000153289 0)
(65.5238 0.000153629 0)
(65.28 0.000153947 0)
(65.0325 0.000154245 0)
(64.7815 0.000154531 0)
(64.5268 0.000154799 0)
(64.2684 0.000155037 0)
(64.0064 0.000155229 0)
(63.7407 0.000155367 0)
(63.4713 0.000155451 0)
(63.1982 0.000155481 0)
(62.9215 0.000155452 0)
(62.6411 0.00015535 0)
(62.357 0.000155159 0)
(62.0692 0.000154855 0)
(61.7777 0.00015442 0)
(61.4825 0.000153832 0)
(61.1836 0.000153077 0)
(60.8811 0.000152137 0)
(60.575 0.000151001 0)
(60.2651 0.000149657 0)
(59.9517 0.000148091 0)
(59.6346 0.000146296 0)
(59.314 0.000144258 0)
(58.9897 0.000141974 0)
(58.6619 0.000139441 0)
(58.3306 0.000136659 0)
(57.9959 0.000133636 0)
(57.6576 0.000130376 0)
(57.3159 0.000126893 0)
(56.9708 0.000123199 0)
(56.6224 0.000119311 0)
(56.2707 0.000115255 0)
(55.9157 0.000111048 0)
(55.5575 0.000106723 0)
(55.1961 0.000102301 0)
(54.8316 9.78156e-05 0)
(54.4641 9.32951e-05 0)
(54.0935 8.87723e-05 0)
(53.7199 8.42742e-05 0)
(53.3435 7.9837e-05 0)
(52.9642 7.54792e-05 0)
(52.5822 7.12383e-05 0)
(52.1974 6.7128e-05 0)
(51.8101 6.31788e-05 0)
(51.4201 5.94029e-05 0)
(51.0277 5.58217e-05 0)
(50.6329 5.2439e-05 0)
(50.2358 4.92717e-05 0)
(49.8364 4.63147e-05 0)
(49.4349 4.35812e-05 0)
(49.0314 4.10595e-05 0)
(48.6258 3.87576e-05 0)
(48.2185 3.66562e-05 0)
(47.8093 3.4763e-05 0)
(47.3984 3.3047e-05 0)
(46.986 3.15253e-05 0)
(46.5721 3.01565e-05 0)
(46.1567 2.89425e-05 0)
(45.7401 2.79155e-05 0)
(45.3223 2.68719e-05 0)
(44.9034 2.62652e-05 0)
(44.4836 2.51823e-05 0)
(44.0628 2.50724e-05 0)
(43.6413 2.3849e-05 0)
(43.2191 2.4188e-05 0)
(42.7963 2.27947e-05 0)
(42.3731 2.36573e-05 0)
(41.9495 2.16858e-05 0)
(41.5256 2.3611e-05 0)
(41.1016 2.05194e-05 0)
(40.6775 2.3756e-05 0)
(40.2534 1.96094e-05 0)
(39.8296 2.41349e-05 0)
(39.4059 2.03119e-05 0)
(38.9827 3.14155e-05 0)
(38.5595 5.37291e-05 0)
(38.1359 0.000190807 0)
(37.7077 0.000806455 0)
(37.2572 0.00372452 0)
(36.6965 0.0172271 0)
(35.915 0.0899801 0)
(31.6365 0.283179 0)
(76.1973 0.00016349 0)
(76.19 0.000115739 0)
(76.1812 0.000105521 0)
(76.1728 0.000109943 0)
(76.1645 0.000111387 0)
(76.156 0.000111833 0)
(76.1472 0.000112242 0)
(76.1381 0.000112593 0)
(76.1286 0.000112878 0)
(76.1187 0.000113117 0)
(76.1083 0.000113324 0)
(76.0976 0.000113505 0)
(76.0863 0.000113664 0)
(76.0745 0.000113805 0)
(76.0622 0.000113931 0)
(76.0492 0.000114045 0)
(76.0357 0.000114149 0)
(76.0214 0.000114243 0)
(76.0065 0.000114329 0)
(75.9908 0.000114409 0)
(75.9744 0.000114484 0)
(75.9571 0.000114553 0)
(75.939 0.000114618 0)
(75.92 0.00011468 0)
(75.9001 0.000114739 0)
(75.8793 0.000114796 0)
(75.8574 0.00011485 0)
(75.8346 0.000114903 0)
(75.8107 0.000114954 0)
(75.7857 0.000115004 0)
(75.7595 0.000115054 0)
(75.7323 0.000115103 0)
(75.7038 0.000115152 0)
(75.674 0.0001152 0)
(75.6431 0.000115249 0)
(75.6108 0.000115298 0)
(75.5772 0.000115347 0)
(75.5422 0.000115397 0)
(75.5058 0.000115447 0)
(75.468 0.000115499 0)
(75.4288 0.000115551 0)
(75.388 0.000115604 0)
(75.3457 0.000115659 0)
(75.3019 0.000115714 0)
(75.2565 0.000115771 0)
(75.2095 0.00011583 0)
(75.1608 0.00011589 0)
(75.1105 0.000115951 0)
(75.0584 0.000116014 0)
(75.0047 0.000116078 0)
(74.9491 0.000116145 0)
(74.8918 0.000116213 0)
(74.8327 0.000116282 0)
(74.7717 0.000116354 0)
(74.7089 0.000116427 0)
(74.6441 0.000116502 0)
(74.5774 0.000116579 0)
(74.5088 0.000116658 0)
(74.4382 0.000116739 0)
(74.3656 0.000116821 0)
(74.291 0.000116906 0)
(74.2142 0.000116993 0)
(74.1354 0.000117083 0)
(74.0545 0.000117175 0)
(73.9714 0.00011727 0)
(73.8862 0.000117368 0)
(73.7988 0.000117468 0)
(73.7091 0.00011757 0)
(73.6172 0.000117672 0)
(73.5229 0.000117778 0)
(73.4264 0.000117886 0)
(73.3276 0.000117999 0)
(73.2263 0.000118116 0)
(73.1227 0.000118237 0)
(73.0167 0.00011836 0)
(72.9082 0.000118483 0)
(72.7972 0.000118611 0)
(72.6837 0.000118742 0)
(72.5677 0.000118879 0)
(72.4491 0.00011902 0)
(72.3279 0.000119167 0)
(72.2042 0.000119317 0)
(72.0777 0.000119468 0)
(71.9486 0.000119623 0)
(71.8168 0.00011978 0)
(71.6823 0.000119942 0)
(71.545 0.000120109 0)
(71.4049 0.000120277 0)
(71.262 0.000120444 0)
(71.1163 0.000120612 0)
(70.9677 0.000120783 0)
(70.8161 0.000120959 0)
(70.6617 0.000121141 0)
(70.5043 0.000121323 0)
(70.3439 0.000121509 0)
(70.1804 0.000121694 0)
(70.014 0.000121886 0)
(69.8444 0.000122085 0)
(69.6718 0.000122293 0)
(69.496 0.000122513 0)
(69.317 0.000122734 0)
(69.1349 0.000122953 0)
(68.9495 0.00012317 0)
(68.7609 0.000123386 0)
(68.569 0.000123602 0)
(68.3738 0.000123828 0)
(68.1753 0.000124061 0)
(67.9735 0.000124304 0)
(67.7682 0.00012455 0)
(67.5596 0.000124801 0)
(67.3475 0.000125058 0)
(67.132 0.000125319 0)
(66.913 0.000125579 0)
(66.6906 0.000125839 0)
(66.4646 0.000126097 0)
(66.2351 0.000126357 0)
(66.002 0.00012662 0)
(65.7654 0.000126879 0)
(65.5252 0.000127121 0)
(65.2814 0.000127344 0)
(65.034 0.000127551 0)
(64.7829 0.000127746 0)
(64.5283 0.000127923 0)
(64.2699 0.000128073 0)
(64.0079 0.000128182 0)
(63.7422 0.000128245 0)
(63.4729 0.000128261 0)
(63.1999 0.000128228 0)
(62.9232 0.000128141 0)
(62.6427 0.000127989 0)
(62.3587 0.000127758 0)
(62.0709 0.000127427 0)
(61.7794 0.000126983 0)
(61.4842 0.000126407 0)
(61.1854 0.000125689 0)
(60.8829 0.000124812 0)
(60.5767 0.000123767 0)
(60.2669 0.000122545 0)
(59.9535 0.000121135 0)
(59.6364 0.00011953 0)
(59.3158 0.000117721 0)
(58.9915 0.000115704 0)
(58.6638 0.00011348 0)
(58.3324 0.000111047 0)
(57.9976 0.000108416 0)
(57.6594 0.000105587 0)
(57.3177 0.000102577 0)
(56.9726 9.93945e-05 0)
(56.6241 9.60549e-05 0)
(56.2724 9.25849e-05 0)
(55.9174 8.8993e-05 0)
(55.5591 8.53152e-05 0)
(55.1977 8.15642e-05 0)
(54.8332 7.77726e-05 0)
(54.4656 7.39623e-05 0)
(54.095 7.01637e-05 0)
(53.7214 6.63944e-05 0)
(53.3449 6.26935e-05 0)
(52.9656 5.9064e-05 0)
(52.5835 5.55503e-05 0)
(52.1987 5.21509e-05 0)
(51.8113 4.89001e-05 0)
(51.4213 4.57993e-05 0)
(51.0289 4.28733e-05 0)
(50.634 4.01142e-05 0)
(50.2368 3.75467e-05 0)
(49.8375 3.51533e-05 0)
(49.4359 3.29542e-05 0)
(49.0324 3.09303e-05 0)
(48.6268 2.90915e-05 0)
(48.2194 2.74216e-05 0)
(47.8102 2.59165e-05 0)
(47.3993 2.45731e-05 0)
(46.9869 2.33559e-05 0)
(46.5729 2.23258e-05 0)
(46.1576 2.13013e-05 0)
(45.741 2.0652e-05 0)
(45.3232 1.95912e-05 0)
(44.9043 1.95373e-05 0)
(44.4844 1.81054e-05 0)
(44.0637 1.88061e-05 0)
(43.6421 1.68989e-05 0)
(43.2199 1.82719e-05 0)
(42.7971 1.58721e-05 0)
(42.3739 1.8177e-05 0)
(41.9503 1.43722e-05 0)
(41.5264 1.88587e-05 0)
(41.1024 1.2586e-05 0)
(40.6783 1.97804e-05 0)
(40.2542 1.12645e-05 0)
(39.8304 2.09418e-05 0)
(39.4067 1.27725e-05 0)
(38.9835 3.46239e-05 0)
(38.5603 7.8343e-05 0)
(38.1368 0.000350208 0)
(37.7089 0.00156739 0)
(37.2595 0.00734303 0)
(36.7051 0.0340459 0)
(35.9474 0.177136 0)
(31.9006 0.55142 0)
(76.1972 0.000118191 0)
(76.1899 0.000104767 0)
(76.1811 9.74162e-05 0)
(76.1728 0.000102772 0)
(76.1645 0.000105601 0)
(76.156 0.000106899 0)
(76.1472 0.000107983 0)
(76.138 0.000108919 0)
(76.1285 0.000109698 0)
(76.1186 0.000110352 0)
(76.1083 0.000110908 0)
(76.0975 0.000111385 0)
(76.0863 0.000111797 0)
(76.0745 0.000112153 0)
(76.0621 0.000112465 0)
(76.0492 0.000112737 0)
(76.0356 0.000112978 0)
(76.0214 0.00011319 0)
(76.0064 0.000113379 0)
(75.9908 0.000113548 0)
(75.9743 0.000113699 0)
(75.9571 0.000113835 0)
(75.939 0.000113957 0)
(75.92 0.000114069 0)
(75.9001 0.00011417 0)
(75.8792 0.000114264 0)
(75.8574 0.000114349 0)
(75.8346 0.000114429 0)
(75.8106 0.000114503 0)
(75.7856 0.000114572 0)
(75.7595 0.000114637 0)
(75.7322 0.000114698 0)
(75.7037 0.000114756 0)
(75.674 0.000114812 0)
(75.643 0.000114866 0)
(75.6107 0.000114918 0)
(75.5771 0.000114969 0)
(75.5422 0.000115018 0)
(75.5058 0.000115067 0)
(75.468 0.000115115 0)
(75.4287 0.000115163 0)
(75.388 0.000115211 0)
(75.3457 0.000115259 0)
(75.3019 0.000115307 0)
(75.2565 0.000115356 0)
(75.2094 0.000115405 0)
(75.1608 0.000115455 0)
(75.1104 0.000115506 0)
(75.0584 0.000115558 0)
(75.0046 0.00011561 0)
(74.9491 0.000115664 0)
(74.8918 0.000115719 0)
(74.8326 0.000115775 0)
(74.7717 0.000115832 0)
(74.7088 0.000115891 0)
(74.6441 0.000115951 0)
(74.5774 0.000116012 0)
(74.5088 0.000116075 0)
(74.4382 0.000116139 0)
(74.3656 0.000116205 0)
(74.2909 0.000116272 0)
(74.2142 0.000116341 0)
(74.1354 0.000116413 0)
(74.0545 0.000116486 0)
(73.9714 0.000116562 0)
(73.8862 0.00011664 0)
(73.7987 0.00011672 0)
(73.709 0.000116802 0)
(73.6171 0.000116885 0)
(73.5229 0.00011697 0)
(73.4264 0.000117057 0)
(73.3275 0.00011715 0)
(73.2263 0.000117245 0)
(73.1227 0.000117344 0)
(73.0166 0.000117444 0)
(72.9081 0.000117546 0)
(72.7971 0.000117652 0)
(72.6837 0.000117761 0)
(72.5677 0.000117875 0)
(72.4491 0.000117992 0)
(72.3279 0.000118114 0)
(72.2041 0.000118239 0)
(72.0777 0.000118367 0)
(71.9486 0.000118497 0)
(71.8168 0.000118629 0)
(71.6823 0.000118765 0)
(71.545 0.000118905 0)
(71.4049 0.000119047 0)
(71.262 0.000119188 0)
(71.1162 0.000119331 0)
(70.9676 0.000119476 0)
(70.8161 0.000119625 0)
(70.6616 0.000119779 0)
(70.5042 0.000119933 0)
(70.3438 0.000120091 0)
(70.1804 0.000120249 0)
(70.0139 0.000120413 0)
(69.8444 0.000120583 0)
(69.6717 0.00012076 0)
(69.4959 0.000120946 0)
(69.317 0.000121135 0)
(69.1348 0.000121323 0)
(68.9495 0.00012151 0)
(68.7609 0.000121697 0)
(68.569 0.000121885 0)
(68.3738 0.000122081 0)
(68.1753 0.000122282 0)
(67.9734 0.000122492 0)
(67.7682 0.000122705 0)
(67.5596 0.000122923 0)
(67.3475 0.000123145 0)
(67.132 0.000123372 0)
(66.913 0.000123598 0)
(66.6905 0.000123825 0)
(66.4646 0.00012405 0)
(66.2351 0.000124277 0)
(66.002 0.000124506 0)
(65.7654 0.000124732 0)
(65.5252 0.000124946 0)
(65.2814 0.000125146 0)
(65.034 0.000125331 0)
(64.7829 0.000125506 0)
(64.5282 0.000125665 0)
(64.2699 0.000125801 0)
(64.0079 0.000125903 0)
(63.7422 0.000125966 0)
(63.4729 0.000125989 0)
(63.1998 0.000125969 0)
(62.9231 0.000125902 0)
(62.6427 0.000125775 0)
(62.3586 0.000125578 0)
(62.0708 0.000125294 0)
(61.7794 0.000124908 0)
(61.4842 0.000124409 0)
(61.1854 0.000123777 0)
(60.8829 0.000123009 0)
(60.5767 0.000122081 0)
(60.2669 0.000120997 0)
(59.9535 0.000119732 0)
(59.6364 0.000118293 0)
(59.3157 0.000116656 0)
(58.9915 0.000114829 0)
(58.6637 0.0001128 0)
(58.3324 0.000110572 0)
(57.9976 0.000108148 0)
(57.6593 0.000105531 0)
(57.3176 0.000102728 0)
(56.9726 9.97556e-05 0)
(56.6241 9.66136e-05 0)
(56.2724 9.33375e-05 0)
(55.9173 8.99232e-05 0)
(55.5591 8.64139e-05 0)
(55.1977 8.28106e-05 0)
(54.8332 7.91558e-05 0)
(54.4656 7.54552e-05 0)
(54.0949 7.17573e-05 0)
(53.7214 6.80551e-05 0)
(53.3449 6.44175e-05 0)
(52.9656 6.08125e-05 0)
(52.5835 5.73245e-05 0)
(52.1987 5.39134e-05 0)
(51.8113 5.0652e-05 0)
(51.4213 4.75093e-05 0)
(51.0288 4.45459e-05 0)
(50.634 4.17181e-05 0)
(50.2368 3.90975e-05 0)
(49.8375 3.66182e-05 0)
(49.4359 3.43552e-05 0)
(49.0323 3.22401e-05 0)
(48.6268 3.03341e-05 0)
(48.2194 2.85693e-05 0)
(47.8102 2.70097e-05 0)
(47.3993 2.55643e-05 0)
(46.9869 2.43108e-05 0)
(46.5729 2.31937e-05 0)
(46.1576 2.20641e-05 0)
(45.741 2.15399e-05 0)
(45.3232 1.99434e-05 0)
(44.9043 2.07763e-05 0)
(44.4844 1.78261e-05 0)
(44.0637 2.0621e-05 0)
(43.6421 1.61772e-05 0)
(43.2199 2.06794e-05 0)
(42.7971 1.49693e-05 0)
(42.3739 2.13948e-05 0)
(41.9503 1.35564e-05 0)
(41.5264 2.32987e-05 0)
(41.1024 1.0375e-05 0)
(40.6783 2.53397e-05 0)
(40.2542 8.33064e-06 0)
(39.8304 2.93555e-05 0)
(39.4067 1.54702e-05 0)
(38.9835 7.08202e-05 0)
(38.5603 0.000177518 0)
(38.137 0.000868163 0)
(37.7098 0.0039517 0)
(37.2637 0.0185127 0)
(36.7271 0.0843276 0)
(36.0181 0.389558 0)
(32.9572 1.20902 0)
(76.1972 3.57832e-05 0)
(76.1899 2.9558e-05 0)
(76.1811 1.95385e-05 0)
(76.1727 1.67414e-05 0)
(76.1645 1.45251e-05 0)
(76.156 1.23016e-05 0)
(76.1472 1.05174e-05 0)
(76.138 9.08801e-06 0)
(76.1285 7.90197e-06 0)
(76.1186 6.90464e-06 0)
(76.1083 6.05942e-06 0)
(76.0975 5.33767e-06 0)
(76.0862 4.71737e-06 0)
(76.0745 4.18138e-06 0)
(76.0621 3.71614e-06 0)
(76.0492 3.31076e-06 0)
(76.0356 2.95639e-06 0)
(76.0214 2.64575e-06 0)
(76.0064 2.37284e-06 0)
(75.9907 2.1326e-06 0)
(75.9743 1.92084e-06 0)
(75.957 1.73396e-06 0)
(75.9389 1.56893e-06 0)
(75.92 1.42314e-06 0)
(75.9001 1.29435e-06 0)
(75.8792 1.1806e-06 0)
(75.8574 1.08017e-06 0)
(75.8345 9.91574e-07 0)
(75.8106 9.13512e-07 0)
(75.7856 8.44856e-07 0)
(75.7595 7.84612e-07 0)
(75.7322 7.31902e-07 0)
(75.7037 6.85929e-07 0)
(75.674 6.46037e-07 0)
(75.643 6.1159e-07 0)
(75.6107 5.82068e-07 0)
(75.5771 5.56995e-07 0)
(75.5421 5.3595e-07 0)
(75.5058 5.18575e-07 0)
(75.468 5.04539e-07 0)
(75.4287 4.93537e-07 0)
(75.388 4.85325e-07 0)
(75.3457 4.79657e-07 0)
(75.3019 4.76328e-07 0)
(75.2564 4.75132e-07 0)
(75.2094 4.75912e-07 0)
(75.1608 4.78489e-07 0)
(75.1104 4.82727e-07 0)
(75.0584 4.88508e-07 0)
(75.0046 4.95722e-07 0)
(74.9491 5.04307e-07 0)
(74.8918 5.14163e-07 0)
(74.8326 5.25236e-07 0)
(74.7717 5.37349e-07 0)
(74.7088 5.5054e-07 0)
(74.6441 5.64684e-07 0)
(74.5774 5.79816e-07 0)
(74.5088 5.95907e-07 0)
(74.4382 6.12831e-07 0)
(74.3656 6.30565e-07 0)
(74.2909 6.49124e-07 0)
(74.2142 6.68496e-07 0)
(74.1354 6.88604e-07 0)
(74.0545 7.09513e-07 0)
(73.9714 7.31221e-07 0)
(73.8861 7.53777e-07 0)
(73.7987 7.76933e-07 0)
(73.709 8.00556e-07 0)
(73.6171 8.24492e-07 0)
(73.5229 8.48848e-07 0)
(73.4264 8.73727e-07 0)
(73.3275 8.99645e-07 0)
(73.2263 9.26257e-07 0)
(73.1226 9.5351e-07 0)
(73.0166 9.80957e-07 0)
(72.9081 1.00843e-06 0)
(72.7971 1.03661e-06 0)
(72.6836 1.06561e-06 0)
(72.5676 1.09572e-06 0)
(72.4491 1.12659e-06 0)
(72.3279 1.15857e-06 0)
(72.2041 1.19116e-06 0)
(72.0777 1.22402e-06 0)
(71.9486 1.25749e-06 0)
(71.8168 1.29124e-06 0)
(71.6822 1.32593e-06 0)
(71.5449 1.36159e-06 0)
(71.4049 1.39755e-06 0)
(71.262 1.43346e-06 0)
(71.1162 1.46956e-06 0)
(70.9676 1.5063e-06 0)
(70.8161 1.54386e-06 0)
(70.6616 1.58253e-06 0)
(70.5042 1.62113e-06 0)
(70.3438 1.66048e-06 0)
(70.1804 1.69965e-06 0)
(70.0139 1.74015e-06 0)
(69.8444 1.78228e-06 0)
(69.6717 1.8262e-06 0)
(69.4959 1.87211e-06 0)
(69.317 1.91816e-06 0)
(69.1348 1.96327e-06 0)
(68.9495 2.00766e-06 0)
(68.7608 2.05178e-06 0)
(68.569 2.09574e-06 0)
(68.3738 2.14148e-06 0)
(68.1753 2.18864e-06 0)
(67.9734 2.23776e-06 0)
(67.7682 2.28713e-06 0)
(67.5595 2.33775e-06 0)
(67.3475 2.38944e-06 0)
(67.132 2.44224e-06 0)
(66.913 2.49463e-06 0)
(66.6905 2.54742e-06 0)
(66.4646 2.59913e-06 0)
(66.235 2.65231e-06 0)
(66.002 2.70596e-06 0)
(65.7654 2.76006e-06 0)
(65.5252 2.81124e-06 0)
(65.2814 2.8602e-06 0)
(65.0339 2.90662e-06 0)
(64.7829 2.95292e-06 0)
(64.5282 2.99756e-06 0)
(64.2699 3.03902e-06 0)
(64.0079 3.07656e-06 0)
(63.7422 3.10772e-06 0)
(63.4728 3.13643e-06 0)
(63.1998 3.16082e-06 0)
(62.9231 3.18383e-06 0)
(62.6427 3.20075e-06 0)
(62.3586 3.21509e-06 0)
(62.0708 3.21805e-06 0)
(61.7793 3.21488e-06 0)
(61.4842 3.19987e-06 0)
(61.1854 3.17278e-06 0)
(60.8829 3.13741e-06 0)
(60.5767 3.0847e-06 0)
(60.2669 3.02773e-06 0)
(59.9534 2.9517e-06 0)
(59.6364 2.87188e-06 0)
(59.3157 2.77743e-06 0)
(58.9915 2.67481e-06 0)
(58.6637 2.56551e-06 0)
(58.3324 2.44665e-06 0)
(57.9976 2.3256e-06 0)
(57.6593 2.19883e-06 0)
(57.3176 2.07023e-06 0)
(56.9725 1.94435e-06 0)
(56.6241 1.81387e-06 0)
(56.2723 1.69567e-06 0)
(55.9173 1.57362e-06 0)
(55.5591 1.46668e-06 0)
(55.1977 1.35968e-06 0)
(54.8331 1.27134e-06 0)
(54.4655 1.18039e-06 0)
(54.0949 1.11759e-06 0)
(53.7213 1.04239e-06 0)
(53.3449 1.00736e-06 0)
(52.9656 9.51517e-07 0)
(52.5835 9.35998e-07 0)
(52.1987 9.03104e-07 0)
(51.8113 9.04961e-07 0)
(51.4213 8.86446e-07 0)
(51.0288 9.07896e-07 0)
(50.634 8.95899e-07 0)
(50.2368 9.28567e-07 0)
(49.8374 9.30613e-07 0)
(49.4359 9.50544e-07 0)
(49.0323 9.82231e-07 0)
(48.6268 9.62729e-07 0)
(48.2194 1.05664e-06 0)
(47.8102 9.34461e-07 0)
(47.3993 1.18911e-06 0)
(46.9869 7.73604e-07 0)
(46.5729 1.52958e-06 0)
(46.1576 2.24747e-07 0)
(45.741 2.39442e-06 0)
(45.3232 -1.03137e-06 0)
(44.9043 3.93164e-06 0)
(44.4844 -2.88331e-06 0)
(44.0637 5.41133e-06 0)
(43.6421 -4.76624e-06 0)
(43.2199 6.93197e-06 0)
(42.7971 -7.65285e-06 0)
(42.3739 1.15674e-05 0)
(41.9503 -1.47179e-05 0)
(41.5264 2.2398e-05 0)
(41.1024 -2.6569e-05 0)
(40.6783 3.42123e-05 0)
(40.2542 -3.55494e-05 0)
(39.8304 4.41748e-05 0)
(39.4067 -2.93991e-05 0)
(38.9835 0.000106523 0)
(38.5605 0.000252452 0)
(38.1379 0.00142881 0)
(37.714 0.00653661 0)
(37.2828 0.0308871 0)
(36.8107 0.141601 0)
(36.2629 0.635185 0)
(33.9603 2.00944 0)
(76.1972 -3.57832e-05 0)
(76.1899 -2.9558e-05 0)
(76.1811 -1.95385e-05 0)
(76.1727 -1.67414e-05 0)
(76.1645 -1.45251e-05 0)
(76.156 -1.23016e-05 0)
(76.1472 -1.05174e-05 0)
(76.138 -9.08801e-06 0)
(76.1285 -7.90197e-06 0)
(76.1186 -6.90464e-06 0)
(76.1083 -6.05942e-06 0)
(76.0975 -5.33767e-06 0)
(76.0862 -4.71736e-06 0)
(76.0745 -4.18138e-06 0)
(76.0621 -3.71614e-06 0)
(76.0492 -3.31076e-06 0)
(76.0356 -2.95639e-06 0)
(76.0214 -2.64575e-06 0)
(76.0064 -2.37283e-06 0)
(75.9907 -2.1326e-06 0)
(75.9743 -1.92084e-06 0)
(75.957 -1.73396e-06 0)
(75.9389 -1.56893e-06 0)
(75.92 -1.42314e-06 0)
(75.9001 -1.29435e-06 0)
(75.8792 -1.1806e-06 0)
(75.8574 -1.08017e-06 0)
(75.8345 -9.91574e-07 0)
(75.8106 -9.13511e-07 0)
(75.7856 -8.44856e-07 0)
(75.7595 -7.84613e-07 0)
(75.7322 -7.31904e-07 0)
(75.7037 -6.8593e-07 0)
(75.674 -6.46038e-07 0)
(75.643 -6.11591e-07 0)
(75.6107 -5.82069e-07 0)
(75.5771 -5.56997e-07 0)
(75.5421 -5.35951e-07 0)
(75.5058 -5.18575e-07 0)
(75.468 -5.04539e-07 0)
(75.4287 -4.93537e-07 0)
(75.388 -4.85324e-07 0)
(75.3457 -4.79657e-07 0)
(75.3019 -4.76329e-07 0)
(75.2564 -4.75133e-07 0)
(75.2094 -4.75911e-07 0)
(75.1608 -4.78488e-07 0)
(75.1104 -4.82726e-07 0)
(75.0584 -4.88508e-07 0)
(75.0046 -4.95722e-07 0)
(74.9491 -5.04307e-07 0)
(74.8918 -5.14162e-07 0)
(74.8326 -5.25235e-07 0)
(74.7717 -5.37349e-07 0)
(74.7088 -5.50541e-07 0)
(74.6441 -5.64683e-07 0)
(74.5774 -5.79815e-07 0)
(74.5088 -5.95905e-07 0)
(74.4382 -6.12831e-07 0)
(74.3656 -6.30565e-07 0)
(74.2909 -6.49123e-07 0)
(74.2142 -6.68495e-07 0)
(74.1354 -6.88603e-07 0)
(74.0545 -7.09512e-07 0)
(73.9714 -7.31221e-07 0)
(73.8861 -7.53777e-07 0)
(73.7987 -7.76932e-07 0)
(73.709 -8.00556e-07 0)
(73.6171 -8.24492e-07 0)
(73.5229 -8.48847e-07 0)
(73.4264 -8.73728e-07 0)
(73.3275 -8.99646e-07 0)
(73.2263 -9.26257e-07 0)
(73.1226 -9.53511e-07 0)
(73.0166 -9.80957e-07 0)
(72.9081 -1.00844e-06 0)
(72.7971 -1.03661e-06 0)
(72.6836 -1.06561e-06 0)
(72.5676 -1.09572e-06 0)
(72.4491 -1.12659e-06 0)
(72.3279 -1.15857e-06 0)
(72.2041 -1.19116e-06 0)
(72.0777 -1.22402e-06 0)
(71.9486 -1.25749e-06 0)
(71.8168 -1.29124e-06 0)
(71.6822 -1.32593e-06 0)
(71.5449 -1.36159e-06 0)
(71.4049 -1.39755e-06 0)
(71.262 -1.43346e-06 0)
(71.1162 -1.46956e-06 0)
(70.9676 -1.5063e-06 0)
(70.8161 -1.54387e-06 0)
(70.6616 -1.58253e-06 0)
(70.5042 -1.62113e-06 0)
(70.3438 -1.66048e-06 0)
(70.1804 -1.69966e-06 0)
(70.0139 -1.74015e-06 0)
(69.8444 -1.78228e-06 0)
(69.6717 -1.8262e-06 0)
(69.4959 -1.87211e-06 0)
(69.317 -1.91816e-06 0)
(69.1348 -1.96327e-06 0)
(68.9495 -2.00766e-06 0)
(68.7608 -2.05178e-06 0)
(68.569 -2.09575e-06 0)
(68.3738 -2.14148e-06 0)
(68.1753 -2.18866e-06 0)
(67.9734 -2.23772e-06 0)
(67.7682 -2.28719e-06 0)
(67.5595 -2.33765e-06 0)
(67.3475 -2.38957e-06 0)
(67.132 -2.44208e-06 0)
(66.913 -2.49481e-06 0)
(66.6905 -2.54725e-06 0)
(66.4646 -2.59928e-06 0)
(66.235 -2.65222e-06 0)
(66.002 -2.70603e-06 0)
(65.7654 -2.75997e-06 0)
(65.5252 -2.81137e-06 0)
(65.2814 -2.86004e-06 0)
(65.0339 -2.90677e-06 0)
(64.7829 -2.95289e-06 0)
(64.5282 -2.99735e-06 0)
(64.2699 -3.03964e-06 0)
(64.0079 -3.07558e-06 0)
(63.7422 -3.1088e-06 0)
(63.4728 -3.13543e-06 0)
(63.1998 -3.16196e-06 0)
(62.9231 -3.18203e-06 0)
(62.6427 -3.20345e-06 0)
(62.3586 -3.21172e-06 0)
(62.0708 -3.22161e-06 0)
(61.7793 -3.21165e-06 0)
(61.4842 -3.2025e-06 0)
(61.1854 -3.1708e-06 0)
(60.8829 -3.13868e-06 0)
(60.5767 -3.08443e-06 0)
(60.2669 -3.02707e-06 0)
(59.9534 -2.9529e-06 0)
(59.6364 -2.87102e-06 0)
(59.3157 -2.77723e-06 0)
(58.9915 -2.67582e-06 0)
(58.6637 -2.56384e-06 0)
(58.3324 -2.44885e-06 0)
(57.9976 -2.32315e-06 0)
(57.6593 -2.20112e-06 0)
(57.3176 -2.06917e-06 0)
(56.9725 -1.94331e-06 0)
(56.6241 -1.81698e-06 0)
(56.2723 -1.69182e-06 0)
(55.9173 -1.57709e-06 0)
(55.5591 -1.46359e-06 0)
(55.1977 -1.36288e-06 0)
(54.8331 -1.26737e-06 0)
(54.4655 -1.18595e-06 0)
(54.0949 -1.10929e-06 0)
(53.7213 -1.05403e-06 0)
(53.3449 -9.94176e-07 0)
(52.9656 -9.63342e-07 0)
(52.5835 -9.26079e-07 0)
(52.1987 -9.12723e-07 0)
(51.8113 -8.93948e-07 0)
(51.4213 -9.00148e-07 0)
(51.0288 -8.91269e-07 0)
(50.634 -9.13714e-07 0)
(50.2368 -9.14107e-07 0)
(49.8374 -9.35364e-07 0)
(49.4359 -9.5819e-07 0)
(49.0323 -9.53851e-07 0)
(48.6268 -1.02898e-06 0)
(48.2194 -9.2791e-07 0)
(47.8102 -1.16397e-06 0)
(47.3993 -7.95347e-07 0)
(46.9869 -1.45051e-06 0)
(46.5729 -3.7564e-07 0)
(46.1576 -2.18519e-06 0)
(45.741 8.16471e-07 0)
(45.3232 -3.99355e-06 0)
(44.9043 3.58965e-06 0)
(44.4844 -7.16852e-06 0)
(44.0636 8.72917e-06 0)
(43.6421 -1.16972e-05 0)
(43.2199 1.34494e-05 0)
(42.7971 -1.62773e-05 0)
(42.3739 1.7772e-05 0)
(41.9503 -2.2042e-05 0)
(41.5264 2.4545e-05 0)
(41.1024 -3.05268e-05 0)
(40.6783 3.22524e-05 0)
(40.2543 -3.77856e-05 0)
(39.8304 4.34863e-05 0)
(39.4068 -3.62808e-05 0)
(38.9835 0.000113281 0)
(38.5608 0.000237479 0)
(38.139 0.00146262 0)
(37.7193 0.00661955 0)
(37.3073 0.0320753 0)
(36.9238 0.152218 0)
(36.6334 0.730892 0)
(36.7712 2.24448 0)
(76.1972 -0.000118191 0)
(76.1899 -0.000104767 0)
(76.1811 -9.74162e-05 0)
(76.1728 -0.000102772 0)
(76.1645 -0.000105601 0)
(76.156 -0.000106899 0)
(76.1472 -0.000107982 0)
(76.138 -0.000108919 0)
(76.1285 -0.000109698 0)
(76.1186 -0.000110352 0)
(76.1083 -0.000110908 0)
(76.0975 -0.000111385 0)
(76.0863 -0.000111797 0)
(76.0745 -0.000112153 0)
(76.0621 -0.000112465 0)
(76.0492 -0.000112737 0)
(76.0356 -0.000112978 0)
(76.0214 -0.00011319 0)