/*--------------------------------*- C++ -*----------------------------------*\
| =========                 |                                                 |
| \\      /  F ield         | OpenFOAM: The Open Source CFD Toolbox           |
|  \\    /   O peration     | Version:  3.0.x                                 |
|   \\  /    A nd           | Web:      www.OpenFOAM.org                      |
|    \\/     M anipulation  |                                                 |
\*---------------------------------------------------------------------------*/
FoamFile
{
    version     2.0;
    format      ascii;
    class       volVectorField;
    location    "0.01995";
    object      U;
}
// * * * * * * * * * * * * * * * * * * * * * * * * * * * * * * * * * * * * * //

dimensions      [0 1 -1 0 0 0 0];

internalField   nonuniform List<vector> 
13800
(
(76.1962 0.000140015 0)
(76.1926 0.000118785 0)
(76.1891 0.00010966 0)
(76.1859 9.83465e-05 0)
(76.1832 8.20463e-05 0)
(76.181 6.32608e-05 0)
(76.1794 4.50248e-05 0)
(76.1783 2.9635e-05 0)
(76.1777 1.81174e-05 0)
(76.1773 1.03666e-05 0)
(76.177 5.61475e-06 0)
(76.1769 2.94127e-06 0)
(76.1769 1.54813e-06 0)
(76.1768 8.70231e-07 0)
(76.1768 5.62235e-07 0)
(76.1768 4.30381e-07 0)
(76.1767 3.77022e-07 0)
(76.1767 3.56535e-07 0)
(76.1767 3.49047e-07 0)
(76.1767 3.46434e-07 0)
(76.1767 3.45564e-07 0)
(76.1767 3.45286e-07 0)
(76.1766 3.45203e-07 0)
(76.1766 3.45181e-07 0)
(76.1766 3.45178e-07 0)
(76.1766 3.45181e-07 0)
(76.1766 3.45184e-07 0)
(76.1765 3.45186e-07 0)
(76.1765 3.45188e-07 0)
(76.1765 3.45189e-07 0)
(76.1765 3.45192e-07 0)
(76.1765 3.45195e-07 0)
(76.1765 3.452e-07 0)
(76.1764 3.45204e-07 0)
(76.1764 3.45203e-07 0)
(76.1764 3.45207e-07 0)
(76.1764 3.45209e-07 0)
(76.1764 3.45213e-07 0)
(76.1763 3.45218e-07 0)
(76.1763 3.45222e-07 0)
(76.1763 3.45225e-07 0)
(76.1763 3.45229e-07 0)
(76.1763 3.45231e-07 0)
(76.1762 3.45235e-07 0)
(76.1762 3.45236e-07 0)
(76.1762 3.45238e-07 0)
(76.1762 3.45242e-07 0)
(76.1762 3.45241e-07 0)
(76.1762 3.45247e-07 0)
(76.1761 3.45252e-07 0)
(76.1761 3.45257e-07 0)
(76.1761 3.45265e-07 0)
(76.1761 3.45268e-07 0)
(76.1761 3.45273e-07 0)
(76.1761 3.45274e-07 0)
(76.176 3.45277e-07 0)
(76.176 3.45281e-07 0)
(76.176 3.45285e-07 0)
(76.176 3.45292e-07 0)
(76.176 3.45295e-07 0)
(76.176 3.45301e-07 0)
(76.176 3.45304e-07 0)
(76.176 3.45307e-07 0)
(76.176 3.45308e-07 0)
(76.176 3.45309e-07 0)
(76.176 3.45312e-07 0)
(76.176 3.4531e-07 0)
(76.176 3.45315e-07 0)
(76.176 3.45314e-07 0)
(76.176 3.45316e-07 0)
(76.176 3.45314e-07 0)
(76.176 3.45312e-07 0)
(76.176 3.45313e-07 0)
(76.176 3.45312e-07 0)
(76.176 3.45314e-07 0)
(76.176 3.45312e-07 0)
(76.176 3.45311e-07 0)
(76.176 3.45315e-07 0)
(76.176 3.45298e-07 0)
(76.176 3.45304e-07 0)
(76.176 3.45308e-07 0)
(76.176 3.4531e-07 0)
(76.176 3.45311e-07 0)
(76.176 3.45315e-07 0)
(76.176 3.45315e-07 0)
(76.176 3.45315e-07 0)
(76.176 3.45313e-07 0)
(76.176 3.45312e-07 0)
(76.176 3.45311e-07 0)
(76.176 3.45311e-07 0)
(76.176 3.45312e-07 0)
(76.176 3.45313e-07 0)
(76.176 3.45315e-07 0)
(76.176 3.45311e-07 0)
(76.176 3.45313e-07 0)
(76.176 3.45311e-07 0)
(76.176 3.45311e-07 0)
(76.176 3.45312e-07 0)
(76.176 3.45312e-07 0)
(76.176 3.45312e-07 0)
(76.176 3.45313e-07 0)
(76.176 3.45315e-07 0)
(76.176 3.45314e-07 0)
(76.176 3.45311e-07 0)
(76.176 3.45314e-07 0)
(76.176 3.45316e-07 0)
(76.176 3.45314e-07 0)
(76.176 3.45314e-07 0)
(76.176 3.45315e-07 0)
(76.176 3.45328e-07 0)
(76.176 3.45325e-07 0)
(76.176 3.45319e-07 0)
(76.176 3.45317e-07 0)
(76.176 3.45315e-07 0)
(76.176 3.4531e-07 0)
(76.176 3.45315e-07 0)
(76.176 3.45314e-07 0)
(76.176 3.45314e-07 0)
(76.176 3.45313e-07 0)
(76.176 3.45313e-07 0)
(76.176 3.45314e-07 0)
(76.176 3.45313e-07 0)
(76.176 3.45314e-07 0)
(76.176 3.45315e-07 0)
(76.176 3.45313e-07 0)
(76.176 3.45312e-07 0)
(76.176 3.45312e-07 0)
(76.176 3.45318e-07 0)
(76.1759 3.4532e-07 0)
(76.1759 3.45335e-07 0)
(76.1759 3.4535e-07 0)
(76.1758 3.45385e-07 0)
(76.1757 3.45448e-07 0)
(76.1755 3.45562e-07 0)
(76.175 3.45769e-07 0)
(76.1743 3.46121e-07 0)
(76.1729 3.46713e-07 0)
(76.1706 3.47672e-07 0)
(76.1668 3.49189e-07 0)
(76.1606 3.51498e-07 0)
(76.1508 3.54902e-07 0)
(76.1357 3.59724e-07 0)
(76.1133 3.66267e-07 0)
(76.081 3.74722e-07 0)
(76.0362 3.84999e-07 0)
(75.9762 3.96553e-07 0)
(75.8989 4.08176e-07 0)
(75.8036 4.17838e-07 0)
(75.6914 4.22704e-07 0)
(75.5661 4.19401e-07 0)
(75.4342 4.04577e-07 0)
(75.3051 3.75747e-07 0)
(75.19 3.32339e-07 0)
(75.1004 2.76901e-07 0)
(75.0466 2.11441e-07 0)
(75.0334 1.52342e-07 0)
(75.0581 7.19205e-08 0)
(75.1201 -2.83123e-08 0)
(75.2183 -7.35733e-08 0)
(75.3424 -9.52216e-08 0)
(75.4784 -9.23737e-08 0)
(75.6121 -6.65314e-08 0)
(75.7315 -2.29717e-08 0)
(75.8281 3.3471e-08 0)
(75.898 9.04483e-08 0)
(75.9419 1.45401e-07 0)
(75.9633 1.92257e-07 0)
(75.9684 2.23091e-07 0)
(75.964 2.46977e-07 0)
(75.9539 2.64498e-07 0)
(75.9407 2.72913e-07 0)
(75.9274 2.75411e-07 0)
(75.9155 2.74914e-07 0)
(75.9056 2.73345e-07 0)
(75.8978 2.71129e-07 0)
(75.8918 2.68905e-07 0)
(75.8876 2.67015e-07 0)
(75.8848 2.65885e-07 0)
(75.8832 2.64839e-07 0)
(75.8826 2.64115e-07 0)
(75.8829 2.64047e-07 0)
(75.8838 2.63583e-07 0)
(75.8854 2.63651e-07 0)
(75.8875 2.6373e-07 0)
(75.89 2.64228e-07 0)
(75.8928 2.65007e-07 0)
(75.8958 2.66105e-07 0)
(75.8988 2.68285e-07 0)
(75.9017 2.75705e-07 0)
(75.9045 2.9687e-07 0)
(75.9071 4.30313e-07 0)
(75.9095 9.42287e-07 0)
(75.9116 4.15817e-06 0)
(75.9131 1.80628e-05 0)
(75.9123 8.7143e-05 0)
(75.9018 0.000423919 0)
(75.8499 0.0020139 0)
(75.6058 0.00916424 0)
(74.7804 0.046044 0)
(67.1727 0.188428 0)
(76.2001 0.000220902 0)
(76.2003 0.000157554 0)
(76.2005 0.000135926 0)
(76.2006 0.00011858 0)
(76.2007 9.66812e-05 0)
(76.2008 7.3187e-05 0)
(76.2009 5.13473e-05 0)
(76.2009 3.34104e-05 0)
(76.2009 2.02311e-05 0)
(76.2009 1.1489e-05 0)
(76.2009 6.18637e-06 0)
(76.2009 3.23129e-06 0)
(76.2009 1.70283e-06 0)
(76.2008 9.62607e-07 0)
(76.2008 6.28214e-07 0)
(76.2008 4.85585e-07 0)
(76.2008 4.28025e-07 0)
(76.2008 4.05975e-07 0)
(76.2007 3.97935e-07 0)
(76.2007 3.95137e-07 0)
(76.2007 3.94205e-07 0)
(76.2007 3.9391e-07 0)
(76.2007 3.93818e-07 0)
(76.2007 3.93794e-07 0)
(76.2006 3.93785e-07 0)
(76.2006 3.93788e-07 0)
(76.2006 3.93789e-07 0)
(76.2006 3.93792e-07 0)
(76.2006 3.93796e-07 0)
(76.2005 3.93797e-07 0)
(76.2005 3.93798e-07 0)
(76.2005 3.93802e-07 0)
(76.2005 3.93804e-07 0)
(76.2005 3.93808e-07 0)
(76.2005 3.93812e-07 0)
(76.2004 3.93813e-07 0)
(76.2004 3.93816e-07 0)
(76.2004 3.93818e-07 0)
(76.2004 3.93822e-07 0)
(76.2004 3.93823e-07 0)
(76.2003 3.93826e-07 0)
(76.2003 3.9383e-07 0)
(76.2003 3.93833e-07 0)
(76.2003 3.93833e-07 0)
(76.2003 3.93837e-07 0)
(76.2002 3.93839e-07 0)
(76.2002 3.93845e-07 0)
(76.2002 3.93845e-07 0)
(76.2002 3.93848e-07 0)
(76.2002 3.93853e-07 0)
(76.2002 3.93855e-07 0)
(76.2001 3.93858e-07 0)
(76.2001 3.93861e-07 0)
(76.2001 3.93864e-07 0)
(76.2001 3.93869e-07 0)
(76.2001 3.93875e-07 0)
(76.2001 3.93882e-07 0)
(76.2001 3.93887e-07 0)
(76.2 3.93891e-07 0)
(76.2 3.93894e-07 0)
(76.2 3.93897e-07 0)
(76.2 3.93903e-07 0)
(76.2 3.93905e-07 0)
(76.2 3.93909e-07 0)
(76.2 3.93913e-07 0)
(76.2 3.93916e-07 0)
(76.2 3.93919e-07 0)
(76.2 3.93915e-07 0)
(76.2 3.93918e-07 0)
(76.2 3.93919e-07 0)
(76.2 3.93921e-07 0)
(76.2 3.9392e-07 0)
(76.2 3.93921e-07 0)
(76.2 3.93921e-07 0)
(76.2 3.93922e-07 0)
(76.2 3.93923e-07 0)
(76.2 3.93924e-07 0)
(76.2 3.93924e-07 0)
(76.2 3.93925e-07 0)
(76.2 3.93931e-07 0)
(76.2 3.93928e-07 0)
(76.2 3.93926e-07 0)
(76.2 3.93922e-07 0)
(76.2 3.93923e-07 0)
(76.2 3.93925e-07 0)
(76.2 3.93922e-07 0)
(76.2 3.93924e-07 0)
(76.2 3.93924e-07 0)
(76.2 3.93924e-07 0)
(76.2 3.93925e-07 0)
(76.2 3.93925e-07 0)
(76.2 3.93926e-07 0)
(76.2 3.93921e-07 0)
(76.2 3.93925e-07 0)
(76.2 3.93921e-07 0)
(76.2 3.93923e-07 0)
(76.2 3.93924e-07 0)
(76.2 3.93927e-07 0)
(76.2 3.93924e-07 0)
(76.2 3.93922e-07 0)
(76.2 3.93923e-07 0)
(76.2 3.93923e-07 0)
(76.2 3.93924e-07 0)
(76.2 3.93926e-07 0)
(76.2 3.93922e-07 0)
(76.2 3.93921e-07 0)
(76.2 3.93924e-07 0)
(76.2 3.93924e-07 0)
(76.2 3.93924e-07 0)
(76.2 3.9392e-07 0)
(76.2 3.93916e-07 0)
(76.2 3.93917e-07 0)
(76.2 3.93918e-07 0)
(76.2 3.93922e-07 0)
(76.2 3.93924e-07 0)
(76.2 3.93921e-07 0)
(76.2 3.93923e-07 0)
(76.2 3.93923e-07 0)
(76.2 3.93921e-07 0)
(76.2 3.93922e-07 0)
(76.2 3.93922e-07 0)
(76.2 3.93923e-07 0)
(76.2 3.93922e-07 0)
(76.2 3.93923e-07 0)
(76.2 3.93925e-07 0)
(76.2 3.93927e-07 0)
(76.2 3.93932e-07 0)
(76.2 3.93933e-07 0)
(76.2 3.93946e-07 0)
(76.2 3.93965e-07 0)
(76.1999 3.94006e-07 0)
(76.1999 3.94086e-07 0)
(76.1997 3.94228e-07 0)
(76.1995 3.9449e-07 0)
(76.1991 3.94954e-07 0)
(76.1983 3.95756e-07 0)
(76.197 3.97104e-07 0)
(76.1947 3.99312e-07 0)
(76.1909 4.02815e-07 0)
(76.1846 4.08199e-07 0)
(76.1748 4.16182e-07 0)
(76.1597 4.27586e-07 0)
(76.1373 4.43209e-07 0)
(76.1051 4.63622e-07 0)
(76.0603 4.88877e-07 0)
(76.0003 5.18086e-07 0)
(75.923 5.49009e-07 0)
(75.8277 5.77766e-07 0)
(75.7155 5.98837e-07 0)
(75.5901 6.05513e-07 0)
(75.4582 5.90944e-07 0)
(75.3291 5.49644e-07 0)
(75.214 4.79349e-07 0)
(75.1244 3.82811e-07 0)
(75.0706 2.64813e-07 0)
(75.0574 1.66131e-07 0)
(75.0821 3.42926e-08 0)
(75.1441 -1.23455e-07 0)
(75.2423 -2.0255e-07 0)
(75.3664 -2.41333e-07 0)
(75.5024 -2.37004e-07 0)
(75.636 -1.91267e-07 0)
(75.7554 -1.11645e-07 0)
(75.852 -6.44738e-11 0)
(75.922 9.56552e-08 0)
(75.9658 1.84728e-07 0)
(75.9872 2.59283e-07 0)
(75.9924 3.0559e-07 0)
(75.9879 3.41171e-07 0)
(75.9779 3.66083e-07 0)
(75.9647 3.74592e-07 0)
(75.9513 3.73236e-07 0)
(75.9394 3.67149e-07 0)
(75.9295 3.59709e-07 0)
(75.9217 3.51586e-07 0)
(75.9158 3.43786e-07 0)
(75.9115 3.36954e-07 0)
(75.9087 3.31662e-07 0)
(75.9071 3.26742e-07 0)
(75.9066 3.22654e-07 0)
(75.9068 3.20063e-07 0)
(75.9077 3.16724e-07 0)
(75.9093 3.14568e-07 0)
(75.9114 3.12651e-07 0)
(75.9139 3.11677e-07 0)
(75.9167 3.11404e-07 0)
(75.9197 3.11929e-07 0)
(75.9226 3.16072e-07 0)
(75.9256 3.35121e-07 0)
(75.9284 4.19566e-07 0)
(75.931 8.51145e-07 0)
(75.9334 2.76498e-06 0)
(75.9355 1.32937e-05 0)
(75.937 6.11e-05 0)
(75.9362 0.000296502 0)
(75.9258 0.00144338 0)
(75.8742 0.00686365 0)
(75.6315 0.0311767 0)
(74.8115 0.154048 0)
(67.6246 0.595677 0)
(76.2001 0.000162776 0)
(76.2003 0.000109939 0)
(76.2005 9.6727e-05 0)
(76.2006 8.80325e-05 0)
(76.2007 7.34243e-05 0)
(76.2008 5.64325e-05 0)
(76.2009 4.01155e-05 0)
(76.2009 2.64203e-05 0)
(76.2009 1.61736e-05 0)
(76.2009 9.27781e-06 0)
(76.2009 5.03816e-06 0)
(76.2009 2.64717e-06 0)
(76.2009 1.39588e-06 0)
(76.2008 7.8307e-07 0)
(76.2008 5.03269e-07 0)
(76.2008 3.82674e-07 0)
(76.2008 3.33511e-07 0)
(76.2008 3.14489e-07 0)
(76.2007 3.07481e-07 0)
(76.2007 3.05014e-07 0)
(76.2007 3.04184e-07 0)
(76.2007 3.03917e-07 0)
(76.2007 3.03836e-07 0)
(76.2007 3.03815e-07 0)
(76.2006 3.03808e-07 0)
(76.2006 3.03809e-07 0)
(76.2006 3.03812e-07 0)
(76.2006 3.03814e-07 0)
(76.2006 3.03817e-07 0)
(76.2005 3.03818e-07 0)
(76.2005 3.03821e-07 0)
(76.2005 3.03823e-07 0)
(76.2005 3.03828e-07 0)
(76.2005 3.0383e-07 0)
(76.2005 3.0383e-07 0)
(76.2004 3.03834e-07 0)
(76.2004 3.03836e-07 0)
(76.2004 3.0384e-07 0)
(76.2004 3.03843e-07 0)
(76.2004 3.03845e-07 0)
(76.2003 3.03845e-07 0)
(76.2003 3.03848e-07 0)
(76.2003 3.0385e-07 0)
(76.2003 3.03848e-07 0)
(76.2003 3.03852e-07 0)
(76.2002 3.03854e-07 0)
(76.2002 3.03859e-07 0)
(76.2002 3.03861e-07 0)
(76.2002 3.03862e-07 0)
(76.2002 3.03864e-07 0)
(76.2002 3.0387e-07 0)
(76.2001 3.03874e-07 0)
(76.2001 3.03875e-07 0)
(76.2001 3.03881e-07 0)
(76.2001 3.03885e-07 0)
(76.2001 3.03889e-07 0)
(76.2001 3.03893e-07 0)
(76.2001 3.03899e-07 0)
(76.2 3.03902e-07 0)
(76.2 3.03909e-07 0)
(76.2 3.03913e-07 0)
(76.2 3.03916e-07 0)
(76.2 3.03916e-07 0)
(76.2 3.0392e-07 0)
(76.2 3.03924e-07 0)
(76.2 3.03928e-07 0)
(76.2 3.03925e-07 0)
(76.2 3.03926e-07 0)
(76.2 3.03928e-07 0)
(76.2 3.03929e-07 0)
(76.2 3.0393e-07 0)
(76.2 3.03929e-07 0)
(76.2 3.03929e-07 0)
(76.2 3.0393e-07 0)
(76.2 3.0393e-07 0)
(76.2 3.03932e-07 0)
(76.2 3.03932e-07 0)
(76.2 3.03931e-07 0)
(76.2 3.03929e-07 0)
(76.2 3.0393e-07 0)
(76.2 3.03927e-07 0)
(76.2 3.0393e-07 0)
(76.2 3.0393e-07 0)
(76.2 3.03929e-07 0)
(76.2 3.03933e-07 0)
(76.2 3.03931e-07 0)
(76.2 3.0393e-07 0)
(76.2 3.03929e-07 0)
(76.2 3.03929e-07 0)
(76.2 3.03929e-07 0)
(76.2 3.03932e-07 0)
(76.2 3.0393e-07 0)
(76.2 3.03929e-07 0)
(76.2 3.03929e-07 0)
(76.2 3.03932e-07 0)
(76.2 3.03932e-07 0)
(76.2 3.03931e-07 0)
(76.2 3.03931e-07 0)
(76.2 3.03932e-07 0)
(76.2 3.03931e-07 0)
(76.2 3.03931e-07 0)
(76.2 3.03933e-07 0)
(76.2 3.03932e-07 0)
(76.2 3.03929e-07 0)
(76.2 3.0393e-07 0)
(76.2 3.03931e-07 0)
(76.2 3.03931e-07 0)
(76.2 3.03933e-07 0)
(76.2 3.03931e-07 0)
(76.2 3.03931e-07 0)
(76.2 3.03934e-07 0)
(76.2 3.03933e-07 0)
(76.2 3.03932e-07 0)
(76.2 3.03932e-07 0)
(76.2 3.0393e-07 0)
(76.2 3.0393e-07 0)
(76.2 3.03931e-07 0)
(76.2 3.03932e-07 0)
(76.2 3.03933e-07 0)
(76.2 3.03933e-07 0)
(76.2 3.03931e-07 0)
(76.2 3.03931e-07 0)
(76.2 3.0393e-07 0)
(76.2 3.0393e-07 0)
(76.2 3.0393e-07 0)
(76.2 3.03932e-07 0)
(76.2 3.03935e-07 0)
(76.2 3.03936e-07 0)
(76.2 3.03946e-07 0)
(76.2 3.03968e-07 0)
(76.1999 3.04001e-07 0)
(76.1999 3.04069e-07 0)
(76.1997 3.04192e-07 0)
(76.1995 3.04421e-07 0)
(76.1991 3.04822e-07 0)
(76.1983 3.05513e-07 0)
(76.197 3.06668e-07 0)
(76.1947 3.08549e-07 0)
(76.1909 3.11516e-07 0)
(76.1846 3.16041e-07 0)
(76.1748 3.22683e-07 0)
(76.1597 3.3205e-07 0)
(76.1373 3.44672e-07 0)
(76.1051 3.60812e-07 0)
(76.0603 3.80205e-07 0)
(76.0003 4.01746e-07 0)
(75.923 4.23213e-07 0)
(75.8277 4.41105e-07 0)
(75.7155 4.50749e-07 0)
(75.5901 4.46799e-07 0)
(75.4582 4.24129e-07 0)
(75.3291 3.79087e-07 0)
(75.214 3.10816e-07 0)
(75.1244 2.22296e-07 0)
(75.0706 1.21585e-07 0)
(75.0574 5.45789e-08 0)
(75.0821 -2.64839e-08 0)
(75.1441 -1.18226e-07 0)
(75.2423 -1.69048e-07 0)
(75.3664 -1.84598e-07 0)
(75.5024 -1.6432e-07 0)
(75.636 -1.12302e-07 0)
(75.7554 -3.90019e-08 0)
(75.852 4.08878e-08 0)
(75.922 1.16387e-07 0)
(75.9658 1.86259e-07 0)
(75.9872 2.40984e-07 0)
(75.9924 2.70355e-07 0)
(75.9879 2.91246e-07 0)
(75.9779 3.04058e-07 0)
(75.9647 3.03121e-07 0)
(75.9513 2.95438e-07 0)
(75.9394 2.85068e-07 0)
(75.9295 2.74714e-07 0)
(75.9217 2.6502e-07 0)
(75.9158 2.56656e-07 0)
(75.9115 2.49998e-07 0)
(75.9087 2.45098e-07 0)
(75.9071 2.4099e-07 0)
(75.9066 2.37849e-07 0)
(75.9068 2.36284e-07 0)
(75.9077 2.33867e-07 0)
(75.9093 2.32673e-07 0)
(75.9114 2.31788e-07 0)
(75.9139 2.31672e-07 0)
(75.9167 2.32326e-07 0)
(75.9197 2.34214e-07 0)
(75.9227 2.4283e-07 0)
(75.9256 2.78792e-07 0)
(75.9284 4.54186e-07 0)
(75.931 1.2907e-06 0)
(75.9334 5.27503e-06 0)
(75.9355 2.55641e-05 0)
(75.937 0.000121183 0)
(75.9363 0.000588665 0)
(75.9261 0.00286543 0)
(75.8755 0.0136449 0)
(75.6382 0.0619616 0)
(74.8373 0.305102 0)
(68.0265 1.15102 0)
(76.2001 0.000117503 0)
(76.2003 9.92248e-05 0)
(76.2005 8.97762e-05 0)
(76.2006 8.27876e-05 0)
(76.2007 6.99669e-05 0)
(76.2008 5.42789e-05 0)
(76.2009 3.88934e-05 0)
(76.2009 2.58107e-05 0)
(76.2009 1.59048e-05 0)
(76.2009 9.17418e-06 0)
(76.2009 5.00397e-06 0)
(76.2009 2.63485e-06 0)
(76.2009 1.3873e-06 0)
(76.2008 7.73539e-07 0)
(76.2008 4.91669e-07 0)
(76.2008 3.69636e-07 0)
(76.2008 3.19675e-07 0)
(76.2008 3.00264e-07 0)
(76.2007 2.93085e-07 0)
(76.2007 2.9055e-07 0)
(76.2007 2.89692e-07 0)
(76.2007 2.89415e-07 0)
(76.2007 2.89329e-07 0)
(76.2007 2.89304e-07 0)
(76.2006 2.89296e-07 0)
(76.2006 2.89297e-07 0)
(76.2006 2.89299e-07 0)
(76.2006 2.89301e-07 0)
(76.2006 2.89302e-07 0)
(76.2005 2.89304e-07 0)
(76.2005 2.89305e-07 0)
(76.2005 2.89306e-07 0)
(76.2005 2.89309e-07 0)
(76.2005 2.8931e-07 0)
(76.2005 2.89312e-07 0)
(76.2004 2.89313e-07 0)
(76.2004 2.89314e-07 0)
(76.2004 2.89314e-07 0)
(76.2004 2.89316e-07 0)
(76.2004 2.89319e-07 0)
(76.2003 2.89322e-07 0)
(76.2003 2.89323e-07 0)
(76.2003 2.89326e-07 0)
(76.2003 2.89328e-07 0)
(76.2003 2.89328e-07 0)
(76.2002 2.8933e-07 0)
(76.2002 2.89332e-07 0)
(76.2002 2.89335e-07 0)
(76.2002 2.89337e-07 0)
(76.2002 2.89337e-07 0)
(76.2002 2.8934e-07 0)
(76.2001 2.89342e-07 0)
(76.2001 2.89343e-07 0)
(76.2001 2.89347e-07 0)
(76.2001 2.8935e-07 0)
(76.2001 2.89353e-07 0)
(76.2001 2.89357e-07 0)
(76.2001 2.8936e-07 0)
(76.2 2.89362e-07 0)
(76.2 2.89364e-07 0)
(76.2 2.89367e-07 0)
(76.2 2.89369e-07 0)
(76.2 2.8937e-07 0)
(76.2 2.89373e-07 0)
(76.2 2.89375e-07 0)
(76.2 2.89378e-07 0)
(76.2 2.89378e-07 0)
(76.2 2.8938e-07 0)
(76.2 2.89379e-07 0)
(76.2 2.89381e-07 0)
(76.2 2.89382e-07 0)
(76.2 2.89382e-07 0)
(76.2 2.89382e-07 0)
(76.2 2.89383e-07 0)
(76.2 2.89382e-07 0)
(76.2 2.89384e-07 0)
(76.2 2.89383e-07 0)
(76.2 2.89384e-07 0)
(76.2 2.89384e-07 0)
(76.2 2.89385e-07 0)
(76.2 2.89385e-07 0)
(76.2 2.89385e-07 0)
(76.2 2.89386e-07 0)
(76.2 2.89384e-07 0)
(76.2 2.89385e-07 0)
(76.2 2.89384e-07 0)
(76.2 2.89384e-07 0)
(76.2 2.89384e-07 0)
(76.2 2.89384e-07 0)
(76.2 2.89382e-07 0)
(76.2 2.89383e-07 0)
(76.2 2.89384e-07 0)
(76.2 2.89383e-07 0)
(76.2 2.89383e-07 0)
(76.2 2.89382e-07 0)
(76.2 2.89383e-07 0)
(76.2 2.89383e-07 0)
(76.2 2.89384e-07 0)
(76.2 2.89385e-07 0)
(76.2 2.89383e-07 0)
(76.2 2.89385e-07 0)
(76.2 2.89386e-07 0)
(76.2 2.89386e-07 0)
(76.2 2.89385e-07 0)
(76.2 2.89384e-07 0)
(76.2 2.89384e-07 0)
(76.2 2.89384e-07 0)
(76.2 2.89384e-07 0)
(76.2 2.89384e-07 0)
(76.2 2.89385e-07 0)
(76.2 2.89383e-07 0)
(76.2 2.89381e-07 0)
(76.2 2.89381e-07 0)
(76.2 2.89382e-07 0)
(76.2 2.89382e-07 0)
(76.2 2.89383e-07 0)
(76.2 2.89384e-07 0)
(76.2 2.89384e-07 0)
(76.2 2.89383e-07 0)
(76.2 2.89383e-07 0)
(76.2 2.89383e-07 0)
(76.2 2.89384e-07 0)
(76.2 2.89385e-07 0)
(76.2 2.89386e-07 0)
(76.2 2.89387e-07 0)
(76.2 2.89388e-07 0)
(76.2 2.8939e-07 0)
(76.2 2.89391e-07 0)
(76.2 2.89399e-07 0)
(76.2 2.89413e-07 0)
(76.1999 2.89438e-07 0)
(76.1999 2.89485e-07 0)
(76.1997 2.89574e-07 0)
(76.1995 2.89736e-07 0)
(76.1991 2.90021e-07 0)
(76.1983 2.90514e-07 0)
(76.197 2.9134e-07 0)
(76.1947 2.92685e-07 0)
(76.1909 2.94811e-07 0)
(76.1846 2.98053e-07 0)
(76.1748 3.02821e-07 0)
(76.1597 3.09555e-07 0)
(76.1373 3.18649e-07 0)
(76.1051 3.30318e-07 0)
(76.0603 3.44419e-07 0)
(76.0003 3.60228e-07 0)
(75.923 3.76246e-07 0)
(75.8277 3.90087e-07 0)
(75.7155 3.98545e-07 0)
(75.5901 3.97916e-07 0)
(75.4582 3.84619e-07 0)
(75.3291 3.56046e-07 0)
(75.214 3.11505e-07 0)
(75.1244 2.53002e-07 0)
(75.0706 1.86513e-07 0)
(75.0574 1.40639e-07 0)
(75.0821 8.37975e-08 0)
(75.1441 8.93849e-09 0)
(75.2423 -3.36396e-08 0)
(75.3664 -5.12311e-08 0)
(75.5024 -4.45011e-08 0)
(75.636 -1.66432e-08 0)
(75.7554 2.37397e-08 0)
(75.852 6.07763e-08 0)
(75.922 1.14192e-07 0)
(75.9658 1.63766e-07 0)
(75.9872 2.02803e-07 0)
(75.9924 2.24686e-07 0)
(75.9879 2.40485e-07 0)
(75.9779 2.51728e-07 0)
(75.9647 2.5339e-07 0)
(75.9513 2.50756e-07 0)
(75.9394 2.46237e-07 0)
(75.9295 2.41603e-07 0)
(75.9217 2.37417e-07 0)
(75.9158 2.3403e-07 0)
(75.9115 2.31697e-07 0)
(75.9087 2.30359e-07 0)
(75.9071 2.29462e-07 0)
(75.9066 2.28993e-07 0)
(75.9068 2.29532e-07 0)
(75.9077 2.29219e-07 0)
(75.9093 2.29707e-07 0)
(75.9114 2.30282e-07 0)
(75.9139 2.31268e-07 0)
(75.9167 2.33182e-07 0)
(75.9197 2.37969e-07 0)
(75.9227 2.58111e-07 0)
(75.9256 3.47945e-07 0)
(75.9284 7.87018e-07 0)
(75.931 2.9062e-06 0)
(75.9334 1.31639e-05 0)
(75.9355 6.36715e-05 0)
(75.937 0.00030705 0)
(75.9366 0.00148967 0)
(75.9277 0.00723339 0)
(75.8831 0.0345803 0)
(75.676 0.154734 0)
(74.9826 0.703248 0)
(69.8236 2.58932 0)
(76.2001 3.56147e-05 0)
(76.2003 2.80481e-05 0)
(76.2004 1.9301e-05 0)
(76.2006 1.49684e-05 0)
(76.2007 1.11521e-05 0)
(76.2008 7.74546e-06 0)
(76.2008 5.0752e-06 0)
(76.2009 3.14504e-06 0)
(76.2009 1.8296e-06 0)
(76.2009 1.00857e-06 0)
(76.2009 5.31131e-07 0)
(76.2009 2.74106e-07 0)
(76.2009 1.4418e-07 0)
(76.2008 8.18221e-08 0)
(76.2008 5.38234e-08 0)
(76.2008 4.18356e-08 0)
(76.2008 3.69416e-08 0)
(76.2008 3.50365e-08 0)
(76.2007 3.43285e-08 0)
(76.2007 3.40771e-08 0)
(76.2007 3.39906e-08 0)
(76.2007 3.39614e-08 0)
(76.2007 3.39539e-08 0)
(76.2007 3.39516e-08 0)
(76.2006 3.39512e-08 0)
(76.2006 3.39523e-08 0)
(76.2006 3.39529e-08 0)
(76.2006 3.39532e-08 0)
(76.2006 3.39547e-08 0)
(76.2005 3.3955e-08 0)
(76.2005 3.39553e-08 0)
(76.2005 3.39558e-08 0)
(76.2005 3.3957e-08 0)
(76.2005 3.39584e-08 0)
(76.2005 3.39593e-08 0)
(76.2004 3.39603e-08 0)
(76.2004 3.39612e-08 0)
(76.2004 3.39613e-08 0)
(76.2004 3.39622e-08 0)
(76.2004 3.39616e-08 0)
(76.2003 3.39616e-08 0)
(76.2003 3.3962e-08 0)
(76.2003 3.39622e-08 0)
(76.2003 3.39615e-08 0)
(76.2003 3.39619e-08 0)
(76.2002 3.39637e-08 0)
(76.2002 3.39634e-08 0)
(76.2002 3.39641e-08 0)
(76.2002 3.3965e-08 0)
(76.2002 3.39657e-08 0)
(76.2002 3.39669e-08 0)
(76.2001 3.39685e-08 0)
(76.2001 3.39689e-08 0)
(76.2001 3.39699e-08 0)
(76.2001 3.39715e-08 0)
(76.2001 3.39727e-08 0)
(76.2001 3.39731e-08 0)
(76.2001 3.39747e-08 0)
(76.2 3.39756e-08 0)
(76.2 3.39779e-08 0)
(76.2 3.39796e-08 0)
(76.2 3.39807e-08 0)
(76.2 3.3981e-08 0)
(76.2 3.39809e-08 0)
(76.2 3.39827e-08 0)
(76.2 3.3982e-08 0)
(76.2 3.39823e-08 0)
(76.2 3.39824e-08 0)
(76.2 3.39833e-08 0)
(76.2 3.39829e-08 0)
(76.2 3.39828e-08 0)
(76.2 3.39819e-08 0)
(76.2 3.39815e-08 0)
(76.2 3.39814e-08 0)
(76.2 3.39821e-08 0)
(76.2 3.39826e-08 0)
(76.2 3.39823e-08 0)
(76.2 3.39822e-08 0)
(76.2 3.39822e-08 0)
(76.2 3.39813e-08 0)
(76.2 3.39814e-08 0)
(76.2 3.39817e-08 0)
(76.2 3.39802e-08 0)
(76.2 3.39799e-08 0)
(76.2 3.39817e-08 0)
(76.2 3.39818e-08 0)
(76.2 3.39814e-08 0)
(76.2 3.39813e-08 0)
(76.2 3.39816e-08 0)
(76.2 3.39812e-08 0)
(76.2 3.39813e-08 0)
(76.2 3.39806e-08 0)
(76.2 3.39808e-08 0)
(76.2 3.39829e-08 0)
(76.2 3.39829e-08 0)
(76.2 3.39825e-08 0)
(76.2 3.39816e-08 0)
(76.2 3.39829e-08 0)
(76.2 3.39825e-08 0)
(76.2 3.39818e-08 0)
(76.2 3.39808e-08 0)
(76.2 3.39804e-08 0)
(76.2 3.39805e-08 0)
(76.2 3.39815e-08 0)
(76.2 3.39815e-08 0)
(76.2 3.39813e-08 0)
(76.2 3.39824e-08 0)
(76.2 3.39822e-08 0)
(76.2 3.39811e-08 0)
(76.2 3.39813e-08 0)
(76.2 3.39809e-08 0)
(76.2 3.398e-08 0)
(76.2 3.39813e-08 0)
(76.2 3.39817e-08 0)
(76.2 3.39816e-08 0)
(76.2 3.39817e-08 0)
(76.2 3.39809e-08 0)
(76.2 3.39806e-08 0)
(76.2 3.39809e-08 0)
(76.2 3.39803e-08 0)
(76.2 3.39806e-08 0)
(76.2 3.39807e-08 0)
(76.2 3.39804e-08 0)
(76.2 3.3981e-08 0)
(76.2 3.39816e-08 0)
(76.2 3.39819e-08 0)
(76.2 3.39819e-08 0)
(76.2 3.39819e-08 0)
(76.2 3.39831e-08 0)
(76.2 3.39885e-08 0)
(76.1999 3.39967e-08 0)
(76.1999 3.40143e-08 0)
(76.1997 3.40437e-08 0)
(76.1995 3.40994e-08 0)
(76.1991 3.41945e-08 0)
(76.1983 3.43608e-08 0)
(76.197 3.46372e-08 0)
(76.1947 3.50891e-08 0)
(76.1909 3.58002e-08 0)
(76.1846 3.68853e-08 0)
(76.1748 3.8482e-08 0)
(76.1597 4.07372e-08 0)
(76.1373 4.37835e-08 0)
(76.1051 4.76909e-08 0)
(76.0603 5.24105e-08 0)
(76.0003 5.76961e-08 0)
(75.923 6.30415e-08 0)
(75.8277 6.76382e-08 0)
(75.7155 7.03983e-08 0)
(75.5901 7.00553e-08 0)
(75.4582 6.53716e-08 0)
(75.3291 5.54125e-08 0)
(75.214 3.98412e-08 0)
(75.1244 1.91528e-08 0)
(75.0706 -4.94267e-09 0)
(75.0574 -2.49476e-08 0)
(75.0821 -4.95354e-08 0)
(75.1441 -8.33567e-08 0)
(75.2423 -9.82664e-08 0)
(75.3664 -1.04006e-07 0)
(75.5024 -1.01366e-07 0)
(75.636 -9.11576e-08 0)
(75.7554 -7.50691e-08 0)
(75.852 -5.22877e-08 0)
(75.922 -2.7975e-08 0)
(75.9658 -9.31507e-09 0)
(75.9872 5.13002e-09 0)
(75.9924 1.37979e-08 0)
(75.9879 1.99928e-08 0)
(75.9779 2.47364e-08 0)
(75.9647 2.60075e-08 0)
(75.9513 2.57591e-08 0)
(75.9394 2.47322e-08 0)
(75.9295 2.34872e-08 0)
(75.9217 2.22181e-08 0)
(75.9158 2.09739e-08 0)
(75.9115 1.98952e-08 0)
(75.9087 1.89695e-08 0)
(75.9071 1.81158e-08 0)
(75.9066 1.73752e-08 0)
(75.9068 1.7013e-08 0)
(75.9077 1.63635e-08 0)
(75.9093 1.60156e-08 0)
(75.9114 1.5789e-08 0)
(75.9139 1.58972e-08 0)
(75.9167 1.7253e-08 0)
(75.9197 2.34604e-08 0)
(75.9227 5.46339e-08 0)
(75.9256 2.01926e-07 0)
(75.9284 9.28328e-07 0)
(75.931 4.45627e-06 0)
(75.9334 2.15762e-05 0)
(75.9356 0.000105128 0)
(75.9374 0.000510811 0)
(75.9383 0.00247809 0)
(75.9357 0.0120018 0)
(75.9185 0.0574442 0)
(75.8307 0.260274 0)
(75.5291 1.14955 0)
(72.4703 4.17389 0)
(76.2001 -3.56147e-05 0)
(76.2003 -2.80481e-05 0)
(76.2004 -1.9301e-05 0)
(76.2006 -1.49684e-05 0)
(76.2007 -1.11521e-05 0)
(76.2008 -7.74546e-06 0)
(76.2008 -5.07524e-06 0)
(76.2009 -3.14502e-06 0)
(76.2009 -1.8296e-06 0)
(76.2009 -1.00857e-06 0)
(76.2009 -5.31131e-07 0)
(76.2009 -2.74106e-07 0)
(76.2009 -1.4418e-07 0)
(76.2008 -8.1823e-08 0)
(76.2008 -5.38252e-08 0)
(76.2008 -4.18366e-08 0)
(76.2008 -3.69432e-08 0)
(76.2008 -3.50379e-08 0)
(76.2007 -3.43288e-08 0)
(76.2007 -3.40765e-08 0)
(76.2007 -3.39901e-08 0)
(76.2007 -3.39622e-08 0)
(76.2007 -3.39533e-08 0)
(76.2007 -3.3951e-08 0)
(76.2006 -3.39524e-08 0)
(76.2006 -3.3953e-08 0)
(76.2006 -3.39528e-08 0)
(76.2006 -3.39533e-08 0)
(76.2006 -3.39534e-08 0)
(76.2005 -3.39534e-08 0)
(76.2005 -3.39546e-08 0)
(76.2005 -3.39551e-08 0)
(76.2005 -3.39565e-08 0)
(76.2005 -3.39579e-08 0)
(76.2005 -3.39588e-08 0)
(76.2004 -3.39595e-08 0)
(76.2004 -3.39613e-08 0)
(76.2004 -3.39618e-08 0)
(76.2004 -3.39632e-08 0)
(76.2004 -3.39625e-08 0)
(76.2003 -3.39621e-08 0)
(76.2003 -3.39631e-08 0)
(76.2003 -3.39625e-08 0)
(76.2003 -3.39625e-08 0)
(76.2003 -3.39637e-08 0)
(76.2002 -3.39637e-08 0)
(76.2002 -3.39645e-08 0)
(76.2002 -3.3965e-08 0)
(76.2002 -3.39655e-08 0)
(76.2002 -3.39677e-08 0)
(76.2002 -3.39682e-08 0)
(76.2001 -3.39694e-08 0)
(76.2001 -3.39691e-08 0)
(76.2001 -3.39702e-08 0)
(76.2001 -3.39709e-08 0)
(76.2001 -3.39724e-08 0)
(76.2001 -3.39725e-08 0)
(76.2001 -3.39747e-08 0)
(76.2 -3.39764e-08 0)
(76.2 -3.39782e-08 0)
(76.2 -3.39787e-08 0)
(76.2 -3.39798e-08 0)
(76.2 -3.39812e-08 0)
(76.2 -3.39827e-08 0)
(76.2 -3.39827e-08 0)
(76.2 -3.39816e-08 0)
(76.2 -3.39816e-08 0)
(76.2 -3.39822e-08 0)
(76.2 -3.39829e-08 0)
(76.2 -3.39822e-08 0)
(76.2 -3.39825e-08 0)
(76.2 -3.39825e-08 0)
(76.2 -3.39831e-08 0)
(76.2 -3.39826e-08 0)
(76.2 -3.39828e-08 0)
(76.2 -3.39818e-08 0)
(76.2 -3.39827e-08 0)
(76.2 -3.39825e-08 0)
(76.2 -3.39825e-08 0)
(76.2 -3.39812e-08 0)
(76.2 -3.39815e-08 0)
(76.2 -3.39818e-08 0)
(76.2 -3.39804e-08 0)
(76.2 -3.39815e-08 0)
(76.2 -3.39813e-08 0)
(76.2 -3.39817e-08 0)
(76.2 -3.39818e-08 0)
(76.2 -3.39826e-08 0)
(76.2 -3.39813e-08 0)
(76.2 -3.39816e-08 0)
(76.2 -3.39815e-08 0)
(76.2 -3.39814e-08 0)
(76.2 -3.39824e-08 0)
(76.2 -3.39828e-08 0)
(76.2 -3.39839e-08 0)
(76.2 -3.39824e-08 0)
(76.2 -3.39824e-08 0)
(76.2 -3.39826e-08 0)
(76.2 -3.39815e-08 0)
(76.2 -3.39826e-08 0)
(76.2 -3.39811e-08 0)
(76.2 -3.39809e-08 0)
(76.2 -3.39809e-08 0)
(76.2 -3.39807e-08 0)
(76.2 -3.3981e-08 0)
(76.2 -3.39819e-08 0)
(76.2 -3.3982e-08 0)
(76.2 -3.39815e-08 0)
(76.2 -3.39818e-08 0)
(76.2 -3.39814e-08 0)
(76.2 -3.39816e-08 0)
(76.2 -3.39825e-08 0)
(76.2 -3.39824e-08 0)
(76.2 -3.39822e-08 0)
(76.2 -3.39824e-08 0)
(76.2 -3.39816e-08 0)
(76.2 -3.39814e-08 0)
(76.2 -3.39804e-08 0)
(76.2 -3.39804e-08 0)
(76.2 -3.39803e-08 0)
(76.2 -3.39796e-08 0)
(76.2 -3.39799e-08 0)
(76.2 -3.39805e-08 0)
(76.2 -3.39804e-08 0)
(76.2 -3.39801e-08 0)
(76.2 -3.39796e-08 0)
(76.2 -3.39809e-08 0)
(76.2 -3.39822e-08 0)
(76.2 -3.39844e-08 0)
(76.2 -3.39878e-08 0)
(76.1999 -3.39972e-08 0)
(76.1999 -3.4014e-08 0)
(76.1997 -3.40446e-08 0)
(76.1995 -3.40991e-08 0)
(76.1991 -3.41963e-08 0)
(76.1983 -3.4361e-08 0)
(76.197 -3.46388e-08 0)
(76.1947 -3.50895e-08 0)
(76.1909 -3.57999e-08 0)
(76.1846 -3.68853e-08 0)
(76.1748 -3.84813e-08 0)
(76.1597 -4.07372e-08 0)
(76.1373 -4.37831e-08 0)
(76.1051 -4.76909e-08 0)
(76.0603 -5.24099e-08 0)
(76.0003 -5.76955e-08 0)
(75.923 -6.3041e-08 0)
(75.8277 -6.76398e-08 0)
(75.7155 -7.03993e-08 0)
(75.5901 -7.0056e-08 0)
(75.4582 -6.53717e-08 0)
(75.3291 -5.54134e-08 0)
(75.214 -3.98412e-08 0)
(75.1244 -1.91522e-08 0)
(75.0706 4.94348e-09 0)
(75.0574 2.49487e-08 0)
(75.0821 4.95362e-08 0)
(75.1441 8.33568e-08 0)
(75.2423 9.82666e-08 0)
(75.3664 1.04007e-07 0)
(75.5024 1.01367e-07 0)
(75.636 9.11576e-08 0)
(75.7554 7.50692e-08 0)
(75.852 5.22862e-08 0)
(75.922 2.79742e-08 0)
(75.9658 9.31624e-09 0)
(75.9872 -5.12918e-09 0)
(75.9924 -1.37973e-08 0)
(75.9879 -1.9993e-08 0)
(75.9779 -2.47369e-08 0)
(75.9647 -2.60069e-08 0)
(75.9513 -2.57586e-08 0)
(75.9394 -2.47325e-08 0)
(75.9295 -2.34872e-08 0)
(75.9217 -2.22173e-08 0)
(75.9158 -2.09732e-08 0)
(75.9115 -1.98955e-08 0)
(75.9087 -1.89694e-08 0)
(75.9071 -1.81163e-08 0)
(75.9066 -1.73755e-08 0)
(75.9068 -1.70117e-08 0)
(75.9077 -1.63599e-08 0)
(75.9093 -1.59957e-08 0)
(75.9114 -1.56447e-08 0)
(75.9139 -1.52723e-08 0)
(75.9167 -1.38524e-08 0)
(75.9197 -7.53199e-09 0)
(75.9227 2.44628e-08 0)
(75.9256 1.77702e-07 0)
(75.9284 9.06993e-07 0)
(75.931 4.43812e-06 0)
(75.9334 2.15709e-05 0)
(75.9357 0.000105079 0)
(75.9378 0.000512592 0)
(75.9403 0.00249245 0)
(75.9455 0.0121323 0)
(75.9637 0.0589592 0)
(76.0326 0.277052 0)
(76.2777 1.29603 0)
(77.1665 4.68655 0)
(76.2001 -0.000117503 0)
(76.2003 -9.92248e-05 0)
(76.2005 -8.97762e-05 0)
(76.2006 -8.27876e-05 0)
(76.2007 -6.99669e-05 0)
(76.2008 -5.42789e-05 0)
(76.2009 -3.88934e-05 0)
(76.2009 -2.58107e-05 0)
(76.2009 -1.59048e-05 0)
(76.2009 -9.17418e-06 0)
(76.2009 -5.00397e-06 0)
(76.2009 -2.63485e-06 0)
(76.2009 -1.3873e-06 0)
(76.2008 -7.73538e-07 0)
(76.2008 -4.9167e-07 0)
(76.2008 -3.69636e-07 0)
(76.2008 -3.19676e-07 0)
(76.2008 -3.00265e-07 0)
(76.2007 -2.93084e-07 0)
(76.2007 -2.90548e-07 0)
(76.2007 -2.8969e-07 0)
(76.2007 -2.89414e-07 0)
(76.2007 -2.89328e-07 0)
(76.2007 -2.89303e-07 0)
(76.2006 -2.89299e-07 0)
(76.2006 -2.89298e-07 0)
(76.2006 -2.89299e-07 0)
(76.2006 -2.89299e-07 0)
(76.2006 -2.893e-07 0)
(76.2005 -2.89303e-07 0)
(76.2005 -2.89305e-07 0)
(76.2005 -2.89305e-07 0)
(76.2005 -2.89307e-07 0)
(76.2005 -2.89309e-07 0)
(76.2005 -2.8931e-07 0)
(76.2004 -2.89311e-07 0)
(76.2004 -2.89312e-07 0)
(76.2004 -2.89315e-07 0)
(76.2004 -2.89316e-07 0)
(76.2004 -2.89319e-07 0)
(76.2003 -2.89322e-07 0)
(76.2003 -2.89323e-07 0)
(76.2003 -2.89326e-07 0)
(76.2003 -2.89325e-07 0)
(76.2003 -2.89327e-07 0)
(76.2002 -2.89329e-07 0)
(76.2002 -2.89332e-07 0)
(76.2002 -2.89334e-07 0)
(76.2002 -2.89335e-07 0)
(76.2002 -2.89338e-07 0)
(76.2002 -2.89339e-07 0)
(76.2001 -2.89341e-07 0)
(76.2001 -2.89344e-07 0)
(76.2001 -2.89348e-07 0)
(76.2001 -2.8935e-07 0)
(76.2001 -2.89354e-07 0)
(76.2001 -2.89357e-07 0)
(76.2001 -2.8936e-07 0)
(76.2 -2.89364e-07 0)
(76.2 -2.89366e-07 0)
(76.2 -2.89368e-07 0)