/*--------------------------------*- C++ -*----------------------------------*\
| =========                 |                                                 |
| \\      /  F ield         | OpenFOAM: The Open Source CFD Toolbox           |
|  \\    /   O peration     | Version:  3.0.x                                 |
|   \\  /    A nd           | Web:      www.OpenFOAM.org                      |
|    \\/     M anipulation  |                                                 |
\*---------------------------------------------------------------------------*/
FoamFile
{
    version     2.0;
    format      ascii;
    class       volScalarField;
    location    "0.6";
    object      rho;
}
// * * * * * * * * * * * * * * * * * * * * * * * * * * * * * * * * * * * * * //

dimensions      [1 -3 0 0 0 0 0];

internalField   nonuniform List<scalar> 
27600
(
55.4485
55.4513
55.456
55.4608
55.4657
55.4706
55.4756
55.4806
55.4856
55.4905
55.4955
55.5003
55.505
55.5096
55.5141
55.5184
55.5224
55.5263
55.5299
55.5333
55.5365
55.5394
55.542
55.5445
55.5466
55.5485
55.5502
55.5516
55.5528
55.5539
55.5546
55.5552
55.5555
55.5556
55.5556
55.5555
55.5553
55.5549
55.5544
55.5539
55.5532
55.5525
55.5518
55.5509
55.5501
55.5492
55.5483
55.5473
55.5463
55.5452
55.5441
55.543
55.5419
55.5407
55.5394
55.5382
55.5369
55.5355
55.5342
55.5327
55.5313
55.5298
55.5283
55.5268
55.5252
55.5235
55.5219
55.5202
55.5185
55.5167
55.5149
55.5131
55.5112
55.5093
55.5074
55.5054
55.5034
55.5014
55.4993
55.4972
55.4951
55.4929
55.4907
55.4885
55.4863
55.484
55.4816
55.4793
55.4769
55.4745
55.472
55.4695
55.467
55.4645
55.4619
55.4593
55.4566
55.454
55.4513
55.4485
55.4458
55.443
55.4402
55.4373
55.4344
55.4315
55.4285
55.4255
55.4225
55.4194
55.4163
55.4133
55.4102
55.407
55.4039
55.4008
55.3976
55.3944
55.3911
55.3879
55.3846
55.3813
55.3779
55.3745
55.3711
55.3676
55.3641
55.3606
55.357
55.3534
55.3498
55.3462
55.3426
55.339
55.3353
55.3316
55.3279
55.3242
55.3204
55.3166
55.3128
55.309
55.3052
55.3013
55.2975
55.2936
55.2897
55.2858
55.2819
55.2779
55.2739
55.2699
55.2659
55.2618
55.2577
55.2536
55.2494
55.2453
55.2411
55.2368
55.2326
55.2284
55.2241
55.2199
55.2156
55.2114
55.2071
55.2028
55.1985
55.1942
55.1898
55.1855
55.1811
55.1767
55.1723
55.1678
55.1634
55.1589
55.1544
55.1499
55.1454
55.1409
55.1363
55.1318
55.1272
55.1226
55.118
55.1134
55.1088
55.1042
55.0995
55.0949
55.0902
55.0856
55.0809
55.0762
55.0715
55.0667
55.062
55.0573
55.0525
55.0478
55.043
55.0382
55.0335
55.0287
55.0239
55.0191
55.0142
55.0094
55.0046
54.9998
54.9949
54.9901
54.9852
54.9803
54.9755
54.9706
54.9657
54.9608
54.956
54.9511
54.9462
54.9413
54.9364
54.9314
54.9265
54.9216
54.9167
54.9118
54.9068
54.9019
54.897
54.892
54.8871
54.8822
54.8772
54.8723
54.8673
54.8624
54.8575
54.8525
54.8476
54.8426
54.8377
54.8327
54.8278
54.8229
54.8179
54.813
54.808
54.8031
54.7982
54.7932
54.7883
54.7834
54.7785
54.7735
54.7686
54.7637
54.7588
54.7539
54.749
54.7441
54.7392
54.7343
54.7294
54.7246
54.7197
54.7148
54.71
54.7051
54.7003
54.6954
54.6906
54.6858
54.6809
54.6761
54.6713
54.6665
54.6617
54.657
54.6522
54.6474
54.6427
54.6379
54.6332
54.6284
54.6237
54.619
54.6143
54.6096
54.6049
54.6003
54.5956
54.591
54.5863
54.5817
54.5771
54.5725
54.5679
54.5633
54.5587
54.5542
54.5496
54.5451
54.5406
54.5361
54.5316
54.5271
54.5226
54.5181
54.5137
54.5093
54.5048
54.5004
54.4961
54.4917
54.4873
54.483
54.4786
54.4743
54.47
54.4657
54.4614
54.4572
54.4529
54.4487
54.4445
54.4403
54.4361
54.4319
54.4278
54.4236
54.4195
54.4154
54.4113
54.4072
54.4031
54.3991
54.395
54.391
54.387
54.383
54.3791
54.3751
54.3712
54.3673
54.3634
54.3595
54.3556
54.3517
54.3479
54.3441
54.3403
54.3365
54.3327
54.3289
54.3252
54.3215
54.3178
54.3141
54.3104
54.3067
54.3031
54.2994
54.2959
54.2922
54.2887
54.2851
54.2816
54.278
54.2746
54.271
54.2676
54.264
54.2607
54.2572
54.2539
54.2504
54.2471
54.2436
54.2404
54.2369
54.2338
54.2303
54.2272
54.2238
54.2207
54.2173
54.2143
54.2109
54.2079
54.2046
54.2016
54.1983
54.1954
54.1922
54.1893
54.1862
55.4492
55.4519
55.4567
55.4615
55.4664
55.4713
55.4762
55.4812
55.4862
55.4912
55.4961
55.501
55.5057
55.5103
55.5147
55.519
55.5231
55.5269
55.5306
55.534
55.5371
55.54
55.5427
55.5451
55.5473
55.5492
55.5508
55.5522
55.5535
55.5545
55.5552
55.5558
55.5561
55.5563
55.5563
55.5561
55.5559
55.5555
55.5551
55.5545
55.5539
55.5531
55.5524
55.5516
55.5507
55.5498
55.5489
55.5479
55.5469
55.5458
55.5448
55.5436
55.5425
55.5413
55.54
55.5388
55.5375
55.5361
55.5348
55.5333
55.5319
55.5304
55.5289
55.5273
55.5258
55.5241
55.5225
55.5208
55.5191
55.5173
55.5155
55.5137
55.5118
55.5099
55.508
55.506
55.504
55.502
55.4999
55.4978
55.4957
55.4935
55.4913
55.4891
55.4868
55.4845
55.4822
55.4798
55.4774
55.475
55.4726
55.4701
55.4676
55.465
55.4624
55.4598
55.4572
55.4545
55.4518
55.4491
55.4463
55.4435
55.4407
55.4378
55.4349
55.432
55.429
55.426
55.423
55.4199
55.4169
55.4138
55.4107
55.4075
55.4044
55.4012
55.3981
55.3949
55.3916
55.3884
55.3851
55.3817
55.3784
55.375
55.3716
55.3681
55.3646
55.3611
55.3575
55.3539
55.3503
55.3467
55.3431
55.3394
55.3358
55.3321
55.3284
55.3246
55.3209
55.3171
55.3133
55.3095
55.3056
55.3018
55.2979
55.294
55.2901
55.2862
55.2823
55.2783
55.2743
55.2703
55.2663
55.2622
55.2582
55.254
55.2499
55.2457
55.2415
55.2373
55.2331
55.2288
55.2246
55.2203
55.216
55.2118
55.2075
55.2032
55.1989
55.1946
55.1902
55.1859
55.1815
55.1771
55.1727
55.1682
55.1638
55.1593
55.1548
55.1503
55.1458
55.1413
55.1367
55.1322
55.1276
55.123
55.1184
55.1138
55.1092
55.1046
55.0999
55.0953
55.0906
55.0859
55.0812
55.0765
55.0718
55.0671
55.0624
55.0577
55.0529
55.0482
55.0434
55.0386
55.0338
55.029
55.0242
55.0194
55.0146
55.0098
55.005
55.0001
54.9953
54.9904
54.9856
54.9807
54.9759
54.971
54.9661
54.9612
54.9563
54.9514
54.9465
54.9416
54.9367
54.9318
54.9269
54.922
54.9171
54.9121
54.9072
54.9023
54.8974
54.8924
54.8875
54.8825
54.8776
54.8727
54.8677
54.8628
54.8578
54.8529
54.8479
54.843
54.8381
54.8331
54.8282
54.8232
54.8183
54.8134
54.8084
54.8035
54.7985
54.7936
54.7887
54.7838
54.7788
54.7739
54.769
54.7641
54.7592
54.7543
54.7494
54.7445
54.7396
54.7347
54.7298
54.7249
54.7201
54.7152
54.7103
54.7055
54.7006
54.6958
54.691
54.6861
54.6813
54.6765
54.6717
54.6669
54.6621
54.6573
54.6525
54.6478
54.643
54.6383
54.6335
54.6288
54.6241
54.6194
54.6147
54.61
54.6053
54.6006
54.596
54.5913
54.5867
54.5821
54.5774
54.5728
54.5682
54.5637
54.5591
54.5545
54.55
54.5454
54.5409
54.5364
54.5319
54.5274
54.523
54.5185
54.5141
54.5096
54.5052
54.5008
54.4964
54.492
54.4877
54.4833
54.479
54.4747
54.4704
54.4661
54.4618
54.4575
54.4533
54.449
54.4448
54.4406
54.4364
54.4323
54.4281
54.424
54.4198
54.4157
54.4116
54.4075
54.4035
54.3994
54.3954
54.3914
54.3874
54.3834
54.3794
54.3755
54.3715
54.3676
54.3637
54.3598
54.3559
54.3521
54.3482
54.3444
54.3406
54.3368
54.333
54.3293
54.3255
54.3218
54.3181
54.3144
54.3107
54.3071
54.3034
54.2998
54.2962
54.2926
54.2891
54.2854
54.282
54.2784
54.2749
54.2713
54.268
54.2644
54.2611
54.2575
54.2542
54.2507
54.2475
54.244
54.2408
54.2373
54.2341
54.2307
54.2276
54.2241
54.2211
54.2177
54.2146
54.2113
54.2082
54.2049
54.2019
54.1987
54.1957
54.1925
54.1896
54.1866
55.4492
55.4519
55.4567
55.4615
55.4664
55.4713
55.4762
55.4812
55.4862
55.4912
55.4961
55.501
55.5057
55.5103
55.5147
55.519
55.5231
55.5269
55.5306
55.534
55.5371
55.54
55.5427
55.5451
55.5473
55.5492
55.5508
55.5522
55.5535
55.5545
55.5552
55.5558
55.5561
55.5563
55.5563
55.5561
55.5559
55.5555
55.5551
55.5545
55.5539
55.5531
55.5524
55.5516
55.5507
55.5498
55.5489
55.5479
55.5469
55.5458
55.5448
55.5436
55.5425
55.5413
55.54
55.5388
55.5375
55.5361
55.5348
55.5333
55.5319
55.5304
55.5289
55.5273
55.5258
55.5241
55.5225
55.5208
55.5191
55.5173
55.5155
55.5137
55.5118
55.5099
55.508
55.506
55.504
55.502
55.4999
55.4978
55.4957
55.4935
55.4913
55.4891
55.4868
55.4845
55.4822
55.4798
55.4774
55.475
55.4726
55.4701
55.4676
55.465
55.4624
55.4598
55.4572
55.4545
55.4518
55.4491
55.4463
55.4435
55.4407
55.4378
55.4349
55.432
55.429
55.426
55.423
55.4199
55.4169
55.4138
55.4107
55.4075
55.4044
55.4012
55.3981
55.3948
55.3916
55.3884
55.3851
55.3817
55.3784
55.375
55.3716
55.3681
55.3646
55.3611
55.3575
55.3539
55.3503
55.3467
55.3431
55.3394
55.3358
55.3321
55.3284
55.3246
55.3209
55.3171
55.3133
55.3095
55.3056
55.3018
55.2979
55.294
55.2901
55.2862
55.2823
55.2783
55.2743
55.2703
55.2663
55.2622
55.2582
55.254
55.2499
55.2457
55.2415
55.2373
55.2331
55.2288
55.2246
55.2203
55.216
55.2118
55.2075
55.2032
55.1989
55.1946
55.1902
55.1859
55.1815
55.1771
55.1727
55.1682
55.1638
55.1593
55.1548
55.1503
55.1458
55.1413
55.1367
55.1322
55.1276
55.123
55.1184
55.1138
55.1092
55.1046
55.0999
55.0953
55.0906
55.0859
55.0812
55.0765
55.0718
55.0671
55.0624
55.0577
55.0529
55.0482
55.0434
55.0386
55.0338
55.029
55.0242
55.0194
55.0146
55.0098
55.005
55.0001
54.9953
54.9904
54.9856
54.9807
54.9759
54.971
54.9661
54.9612
54.9563
54.9514
54.9465
54.9416
54.9367
54.9318
54.9269
54.922
54.9171
54.9121
54.9072
54.9023
54.8974
54.8924
54.8875
54.8825
54.8776
54.8727
54.8677
54.8628
54.8578
54.8529
54.848
54.843
54.8381
54.8331
54.8282
54.8232
54.8183
54.8134
54.8084
54.8035
54.7985
54.7936
54.7887
54.7838
54.7788
54.7739
54.769
54.7641
54.7592
54.7543
54.7494
54.7445
54.7396
54.7347
54.7298
54.7249
54.7201
54.7152
54.7103
54.7055
54.7006
54.6958
54.691
54.6861
54.6813
54.6765
54.6717
54.6669
54.6621
54.6573
54.6525
54.6478
54.643
54.6383
54.6335
54.6288
54.6241
54.6194
54.6147
54.61
54.6053
54.6006
54.596
54.5913
54.5867
54.5821
54.5774
54.5728
54.5682
54.5637
54.5591
54.5545
54.55
54.5454
54.5409
54.5364
54.5319
54.5274
54.523
54.5185
54.5141
54.5096
54.5052
54.5008
54.4964
54.492
54.4877
54.4833
54.479
54.4747
54.4704
54.4661
54.4618
54.4575
54.4533
54.4491
54.4448
54.4406
54.4364
54.4323
54.4281
54.424
54.4198
54.4157
54.4116
54.4076
54.4035
54.3994
54.3954
54.3914
54.3874
54.3834
54.3794
54.3755
54.3715
54.3676
54.3637
54.3598
54.3559
54.3521
54.3482
54.3444
54.3406
54.3368
54.333
54.3293
54.3255
54.3218
54.3181
54.3144
54.3107
54.3071
54.3034
54.2998
54.2962
54.2926
54.2891
54.2854
54.282
54.2784
54.2749
54.2713
54.268
54.2644
54.2611
54.2575
54.2542
54.2507
54.2475
54.244
54.2408
54.2373
54.2341
54.2307
54.2276
54.2241
54.2211
54.2177
54.2146
54.2113
54.2082
54.2049
54.2019
54.1987
54.1957
54.1925
54.1896
54.1867
55.4492
55.4519
55.4567
55.4615
55.4663
55.4712
55.4762
55.4812
55.4862
55.4912
55.4961
55.501
55.5057
55.5103
55.5147
55.519
55.5231
55.5269
55.5305
55.5339
55.5371
55.54
55.5426
55.5451
55.5472
55.5491
55.5508
55.5522
55.5534
55.5545
55.5552
55.5558
55.5561
55.5562
55.5562
55.5561
55.5559
55.5555
55.555
55.5545
55.5538
55.5531
55.5524
55.5516
55.5507
55.5498
55.5489
55.5479
55.5469
55.5458
55.5447
55.5436
55.5425
55.5413
55.54
55.5388
55.5375
55.5361
55.5347
55.5333
55.5319
55.5304
55.5289
55.5273
55.5257
55.5241
55.5225
55.5208
55.519
55.5173
55.5155
55.5137
55.5118
55.5099
55.508
55.506
55.504
55.502
55.4999
55.4978
55.4957
55.4935
55.4913
55.4891
55.4868
55.4845
55.4822
55.4798
55.4774
55.475
55.4725
55.4701
55.4675
55.465
55.4624
55.4598
55.4572
55.4545
55.4518
55.4491
55.4463
55.4435
55.4407
55.4378
55.4349
55.432
55.429
55.426
55.423
55.4199
55.4169
55.4138
55.4107
55.4075
55.4044
55.4012
55.3981
55.3948
55.3916
55.3883
55.3851
55.3817
55.3784
55.375
55.3716
55.3681
55.3646
55.3611
55.3575
55.3539
55.3503
55.3467
55.3431
55.3394
55.3358
55.3321
55.3284
55.3246
55.3209
55.3171
55.3133
55.3095
55.3056
55.3018
55.2979
55.294
55.2901
55.2862
55.2823
55.2783
55.2743
55.2703
55.2663
55.2622
55.2581
55.254
55.2499
55.2457
55.2415
55.2373
55.2331
55.2288
55.2246
55.2203
55.216
55.2118
55.2075
55.2032
55.1989
55.1946
55.1902
55.1859
55.1815
55.1771
55.1727
55.1682
55.1638
55.1593
55.1548
55.1503
55.1458
55.1413
55.1367
55.1322
55.1276
55.123
55.1184
55.1138
55.1092
55.1046
55.0999
55.0953
55.0906
55.0859
55.0812
55.0765
55.0718
55.0671
55.0624
55.0577
55.0529
55.0482
55.0434
55.0386
55.0338
55.029
55.0242
55.0194
55.0146
55.0098
55.005
55.0001
54.9953
54.9904
54.9856
54.9807
54.9759
54.971
54.9661
54.9612
54.9563
54.9514
54.9465
54.9416
54.9367
54.9318
54.9269
54.922
54.9171
54.9121
54.9072
54.9023
54.8974
54.8924
54.8875
54.8825
54.8776
54.8727
54.8677
54.8628
54.8578
54.8529
54.848
54.843
54.8381
54.8331
54.8282
54.8232
54.8183
54.8134
54.8084
54.8035
54.7985
54.7936
54.7887
54.7838
54.7788
54.7739
54.769
54.7641
54.7592
54.7543
54.7494
54.7445
54.7396
54.7347
54.7298
54.7249
54.7201
54.7152
54.7103
54.7055
54.7006
54.6958
54.691
54.6861
54.6813
54.6765
54.6717
54.6669
54.6621
54.6573
54.6525
54.6478
54.643
54.6383
54.6335
54.6288
54.6241
54.6194
54.6147
54.61
54.6053
54.6006
54.596
54.5913
54.5867
54.5821
54.5774
54.5728
54.5682
54.5637
54.5591
54.5545
54.55
54.5454
54.5409
54.5364
54.5319
54.5274
54.523
54.5185
54.5141
54.5096
54.5052
54.5008
54.4964
54.492
54.4877
54.4833
54.479
54.4747
54.4704
54.4661
54.4618
54.4575
54.4533
54.4491
54.4448
54.4406
54.4364
54.4323
54.4281
54.424
54.4198
54.4157
54.4116
54.4076
54.4035
54.3994
54.3954
54.3914
54.3874
54.3834
54.3794
54.3755
54.3715
54.3676
54.3637
54.3598
54.3559
54.3521
54.3482
54.3444
54.3406
54.3368
54.333
54.3293
54.3255
54.3218
54.3181
54.3144
54.3107
54.3071
54.3034
54.2998
54.2962
54.2926
54.2891
54.2854
54.282
54.2784
54.2749
54.2713
54.268
54.2644
54.2611
54.2575
54.2542
54.2507
54.2475
54.244
54.2408
54.2373
54.2341
54.2307
54.2276
54.2242
54.2211
54.2177
54.2146
54.2113
54.2082
54.2049
54.2019
54.1987
54.1957
54.1926
54.1896
54.1866
55.4492
55.4519
55.4567
55.4615
55.4663
55.4712
55.4762
55.4812
55.4862
55.4912
55.4961
55.5009
55.5057
55.5103
55.5147
55.519
55.523
55.5269
55.5305
55.5339
55.5371
55.54
55.5426
55.5451
55.5472
55.5491
55.5508
55.5522
55.5534
55.5544
55.5552
55.5558
55.5561
55.5562
55.5562
55.5561
55.5559
55.5555
55.555
55.5545
55.5538
55.5531
55.5524
55.5515
55.5507
55.5498
55.5489
55.5479
55.5469
55.5458
55.5447
55.5436
55.5424
55.5413
55.54
55.5388
55.5374
55.5361
55.5347
55.5333
55.5319
55.5304
55.5289
55.5273
55.5257
55.5241
55.5225
55.5208
55.519
55.5173
55.5155
55.5136
55.5118
55.5099
55.5079
55.506
55.504
55.502
55.4999
55.4978
55.4957
55.4935
55.4913
55.4891
55.4868
55.4845
55.4822
55.4798
55.4774
55.475
55.4725
55.4701
55.4675
55.465
55.4624
55.4598
55.4572
55.4545
55.4518
55.4491
55.4463
55.4435
55.4407
55.4378
55.4349
55.432
55.429
55.426
55.423
55.4199
55.4169
55.4138
55.4107
55.4075
55.4044
55.4012
55.398
55.3948
55.3916
55.3883
55.3851
55.3817
55.3784
55.375
55.3716
55.3681
55.3646
55.3611
55.3575
55.3539
55.3503
55.3467
55.3431
55.3394
55.3358
55.3321
55.3284
55.3246
55.3209
55.3171
55.3133
55.3095
55.3056
55.3018
55.2979
55.294
55.2901
55.2862
55.2823
55.2783
55.2743
55.2703
55.2663
55.2622
55.2581
55.254
55.2499
55.2457
55.2415
55.2373
55.2331
55.2288
55.2246
55.2203
55.216
55.2118
55.2075
55.2032
55.1989
55.1946
55.1902
55.1859
55.1815
55.1771
55.1727
55.1682
55.1638
55.1593
55.1548
55.1503
55.1458
55.1413
55.1367
55.1322
55.1276
55.123
55.1184
55.1138
55.1092
55.1046
55.0999
55.0953
55.0906
55.0859
55.0812
55.0765
55.0718
55.0671
55.0624
55.0577
55.0529
55.0482
55.0434
55.0386
55.0338
55.029
55.0242
55.0194
55.0146
55.0098
55.005
55.0001
54.9953
54.9904
54.9856
54.9807
54.9759
54.971
54.9661
54.9612
54.9563
54.9514
54.9465
54.9416
54.9367
54.9318
54.9269
54.922
54.9171
54.9121
54.9072
54.9023
54.8974
54.8924
54.8875
54.8825
54.8776
54.8727
54.8677
54.8628
54.8578
54.8529
54.848
54.843
54.8381
54.8331
54.8282
54.8232
54.8183
54.8134
54.8084
54.8035
54.7985
54.7936
54.7887
54.7838
54.7788
54.7739
54.769
54.7641
54.7592
54.7543
54.7494
54.7445
54.7396
54.7347
54.7298
54.7249
54.7201
54.7152
54.7103
54.7055
54.7006
54.6958
54.691
54.6861
54.6813
54.6765
54.6717
54.6669
54.6621
54.6573
54.6525
54.6478
54.643
54.6383
54.6335
54.6288
54.6241
54.6194
54.6147
54.61
54.6053
54.6006
54.596
54.5913
54.5867
54.5821
54.5774
54.5728
54.5682
54.5637
54.5591
54.5545
54.55
54.5454
54.5409
54.5364
54.5319
54.5274
54.523
54.5185
54.5141
54.5096
54.5052
54.5008
54.4964
54.492
54.4877
54.4833
54.479
54.4747
54.4704
54.4661
54.4618
54.4575
54.4533
54.4491
54.4448
54.4406
54.4364
54.4323
54.4281
54.424
54.4198
54.4157
54.4116
54.4076
54.4035
54.3994
54.3954
54.3914
54.3874
54.3834
54.3794
54.3755
54.3715
54.3676
54.3637
54.3598
54.3559
54.3521
54.3482
54.3444
54.3406
54.3368
54.333
54.3293
54.3255
54.3218
54.3181
54.3144
54.3107
54.3071
54.3034
54.2998
54.2962
54.2926
54.2891
54.2854
54.282
54.2784
54.2749
54.2713
54.268
54.2644
54.2611
54.2575
54.2542
54.2507
54.2475
54.244
54.2408
54.2373
54.2341
54.2307
54.2276
54.2242
54.2211
54.2177
54.2146
54.2113
54.2082
54.2049
54.2019
54.1987
54.1957
54.1925
54.1896
54.1865
55.4492
55.4519
55.4567
55.4615
55.4663
55.4712
55.4762
55.4812
55.4862
55.4912
55.4961
55.5009
55.5057
55.5103
55.5147
55.519
55.523
55.5269
55.5305
55.5339
55.5371
55.54
55.5426
55.5451
55.5472
55.5491
55.5508
55.5522
55.5534
55.5544
55.5552
55.5558
55.5561
55.5562
55.5562
55.5561
55.5559
55.5555
55.555
55.5545
55.5538
55.5531
55.5524
55.5515
55.5507
55.5498
55.5489
55.5479
55.5469
55.5458
55.5447
55.5436
55.5424
55.5413
55.54
55.5388
55.5374
55.5361
55.5347
55.5333
55.5319
55.5304
55.5289
55.5273
55.5257
55.5241
55.5225
55.5208
55.519
55.5173
55.5155
55.5136
55.5118
55.5099
55.5079
55.506
55.504
55.502
55.4999
55.4978
55.4957
55.4935
55.4913
55.4891
55.4868
55.4845
55.4822
55.4798
55.4774
55.475
55.4725
55.4701
55.4675
55.465
55.4624
55.4598
55.4572
55.4545
55.4518
55.4491
55.4463
55.4435
55.4407
55.4378
55.4349
55.432
55.429
55.426
55.423
55.4199
55.4169
55.4138
55.4107
55.4075
55.4044
55.4012
55.398
55.3948
55.3916
55.3883
55.3851
55.3817
55.3784
55.375
55.3716
55.3681
55.3646
55.3611
55.3575
55.3539
55.3503
55.3467
55.3431
55.3394
55.3358
55.3321
55.3284
55.3246
55.3209
55.3171
55.3133
55.3095
55.3056
55.3018
55.2979
55.294
55.2901
55.2862
55.2823
55.2783
55.2743
55.2703
55.2663
55.2622
55.2581
55.254
55.2499
55.2457
55.2415
55.2373
55.2331
55.2288
55.2246
55.2203
55.216
55.2118
55.2075
55.2032
55.1989
55.1946
55.1902
55.1859
55.1815
55.1771
55.1727
55.1682
55.1638
55.1593
55.1548
55.1503
55.1458
55.1413
55.1367
55.1322
55.1276
55.123
55.1184
55.1138
55.1092
55.1046
55.0999
55.0953
55.0906
55.0859
55.0812
55.0765
55.0718
55.0671
55.0624
55.0577
55.0529
55.0482
55.0434
55.0386
55.0338
55.029
55.0242
55.0194
55.0146
55.0098
55.005
55.0001
54.9953
54.9904
54.9856
54.9807
54.9759
54.971
54.9661
54.9612
54.9563
54.9514
54.9465
54.9416
54.9367
54.9318
54.9269
54.922
54.9171
54.9121
54.9072
54.9023
54.8974
54.8924
54.8875
54.8825
54.8776
54.8727
54.8677
54.8628
54.8578
54.8529
54.848
54.843
54.8381
54.8331
54.8282
54.8232
54.8183
54.8134
54.8084
54.8035
54.7985
54.7936
54.7887
54.7838
54.7788
54.7739
54.769
54.7641
54.7592
54.7543
54.7494
54.7445
54.7396
54.7347
54.7298
54.7249
54.7201
54.7152
54.7103
54.7055
54.7006
54.6958
54.691
54.6861
54.6813
54.6765
54.6717
54.6669
54.6621
54.6573
54.6525
54.6478
54.643
54.6383
54.6335
54.6288
54.6241
54.6194
54.6147
54.61
54.6053
54.6006
54.596
54.5913
54.5867
54.5821
54.5774
54.5728
54.5682
54.5637
54.5591
54.5545
54.55
54.5454
54.5409
54.5364
54.5319
54.5274
54.523
54.5185
54.5141
54.5096
54.5052
54.5008
54.4964
54.492
54.4877
54.4833
54.479
54.4747
54.4704
54.4661
54.4618
54.4575
54.4533
54.4491
54.4448
54.4406
54.4364
54.4323
54.4281
54.424
54.4198
54.4157
54.4116
54.4076
54.4035
54.3994
54.3954
54.3914
54.3874
54.3834
54.3794
54.3755
54.3715
54.3676
54.3637
54.3598
54.3559
54.3521
54.3482
54.3444
54.3406
54.3368
54.333
54.3293
54.3255
54.3218
54.3181
54.3144
54.3107
54.3071
54.3034
54.2998
54.2962
54.2926
54.289
54.2855
54.2819
54.2784
54.2749
54.2714
54.268
54.2644
54.261
54.2576
54.2542
54.2508
54.2474
54.2441
54.2407
54.2374
54.2341
54.2307
54.2275
54.2242
54.221
54.2178
54.2145
54.2114
54.2081
54.2051
54.2018
54.1988
54.1956
54.1926
54.1894
54.1863
55.4492
55.4519
55.4567
55.4615
55.4663
55.4712
55.4762
55.4812
55.4862
55.4912
55.4961
55.501
55.5057
55.5103
55.5147
55.519
55.5231
55.5269
55.5305
55.5339
55.5371
55.54
55.5426
55.5451
55.5472
55.5491
55.5508
55.5522
55.5534
55.5545
55.5552
55.5558
55.5561
55.5562
55.5562
55.5561
55.5559
55.5555
55.555
55.5545
55.5538
55.5531
55.5524
55.5516
55.5507
55.5498
55.5489
55.5479
55.5469
55.5458
55.5447
55.5436
55.5425
55.5413
55.54
55.5388
55.5375
55.5361
55.5347
55.5333
55.5319
55.5304
55.5289
55.5273
55.5257
55.5241
55.5225
55.5208
55.519
55.5173
55.5155
55.5137
55.5118
55.5099
55.508
55.506
55.504
55.502
55.4999
55.4978
55.4957
55.4935
55.4913
55.4891
55.4868
55.4845
55.4822
55.4798
55.4774
55.475
55.4725
55.4701
55.4675
55.465
55.4624
55.4598
55.4572
55.4545
55.4518
55.4491
55.4463
55.4435
55.4407
55.4378
55.4349
55.432
55.429
55.426
55.423
55.4199
55.4169
55.4138
55.4107
55.4075
55.4044
55.4012
55.3981
55.3948
55.3916
55.3883
55.3851
55.3817
55.3784
55.375
55.3716
55.3681
55.3646
55.3611
55.3575
55.3539
55.3503
55.3467
55.3431
55.3394
55.3358
55.3321
55.3284
55.3246
55.3209
55.3171
55.3133
55.3095
55.3056
55.3018
55.2979
55.294
55.2901
55.2862
55.2823
55.2783
55.2743
55.2703
55.2663
55.2622
55.2581
55.254
55.2499
55.2457
55.2415
55.2373
55.2331
55.2288
55.2246
55.2203
55.216
55.2118
55.2075
55.2032
55.1989
55.1946
55.1902
55.1859
55.1815
55.1771
55.1727
55.1682
55.1638
55.1593
55.1548
55.1503
55.1458
55.1413
55.1367
55.1322
55.1276
55.123
55.1184
55.1138
55.1092
55.1046
55.0999
55.0953
55.0906
55.0859
55.0812
55.0765
55.0718
55.0671
55.0624
55.0577
55.0529
55.0482
55.0434
55.0386
55.0338
55.029
55.0242
55.0194
55.0146
55.0098
55.005
55.0001
54.9953
54.9904
54.9856
54.9807
54.9759
54.971
54.9661
54.9612
54.9563
54.9514
54.9465
54.9416
54.9367
54.9318
54.9269
54.922
54.9171
54.9121
54.9072
54.9023
54.8974
54.8924
54.8875
54.8825
54.8776
54.8727
54.8677
54.8628
54.8578
54.8529
54.848
54.843
54.8381
54.8331
54.8282
54.8232
54.8183
54.8134
54.8084
54.8035
54.7985
54.7936
54.7887
54.7838
54.7788
54.7739
54.769
54.7641
54.7592
54.7543
54.7494
54.7445
54.7396
54.7347
54.7298
54.7249
54.7201
54.7152
54.7103
54.7055
54.7006
54.6958
54.691
54.6861
54.6813
54.6765
54.6717
54.6669
54.6621
54.6573
54.6525
54.6478
54.643
54.6383
54.6335
54.6288
54.6241
54.6194
54.6147
54.61
54.6053
54.6006
54.596
54.5913
54.5867
54.5821
54.5774
54.5728
54.5682
54.5637
54.5591
54.5545
54.55
54.5454
54.5409
54.5364
54.5319
54.5274
54.523
54.5185
54.5141
54.5096
54.5052
54.5008
54.4964
54.492
54.4877
54.4833
54.479
54.4747
54.4704
54.4661
54.4618
54.4575
54.4533
54.4491
54.4448
54.4406
54.4364
54.4323
54.4281
54.424
54.4198
54.4157
54.4116
54.4076
54.4035
54.3994
54.3954
54.3914
54.3874
54.3834
54.3794
54.3755
54.3715
54.3676
54.3637
54.3598
54.3559
54.3521
54.3482
54.3444
54.3406
54.3368
54.333
54.3293
54.3255
54.3218
54.3181
54.3144
54.3107
54.3071
54.3034
54.2998
54.2962
54.2926
54.289
54.2855
54.2819
54.2784
54.2749
54.2714
54.2679
54.2645
54.261
54.2576
54.2541
54.2508
54.2474
54.244
54.2408
54.2373
54.2341
54.2308
54.2274
54.2243
54.2209
54.2178
54.2145
54.2114
54.2081
54.2051
54.2018
54.1988
54.1956
54.1926
54.1893
54.186
55.4492
55.4519
55.4567
55.4615
55.4664
55.4713
55.4762
55.4812
55.4862
55.4912
55.4961
55.501
55.5057
55.5103
55.5147
55.519
55.5231
55.5269
55.5306
55.534
55.5371
55.54
55.5427
55.5451
55.5473
55.5492
55.5508
55.5522
55.5535
55.5545
55.5552
55.5558
55.5561
55.5563
55.5563
55.5561
55.5559
55.5555
55.5551
55.5545
55.5539
55.5531
55.5524
55.5516
55.5507
55.5498
55.5489
55.5479
55.5469
55.5458
55.5448
55.5436
55.5425
55.5413
55.54
55.5388
55.5375
55.5361
55.5348
55.5333
55.5319
55.5304
55.5289
55.5273
55.5258
55.5241
55.5225
55.5208
55.5191
55.5173
55.5155
55.5137
55.5118
55.5099
55.508
55.506
55.504
55.502
55.4999
55.4978
55.4957
55.4935
55.4913
55.4891
55.4868
55.4845
55.4822
55.4798
55.4774
55.475
55.4726
55.4701
55.4676
55.465
55.4624
55.4598
55.4572
55.4545
55.4518
55.4491
55.4463
55.4435
55.4407
55.4378
55.4349
55.432
55.429
55.426
55.423
55.4199
55.4169
55.4138
55.4107
55.4075
55.4044
55.4012
55.3981
55.3948
55.3916
55.3884
55.3851
55.3817
55.3784
55.375
55.3716
55.3681
55.3646
55.3611
55.3575
55.3539
55.3503
55.3467
55.3431
55.3394
55.3358
55.3321
55.3284
55.3246
55.3209
55.3171
55.3133
55.3095
55.3056
55.3018
55.2979
55.294
55.2901
55.2862
55.2823
55.2783
55.2743
55.2703
55.2663
55.2622
55.2582
55.254
55.2499
55.2457
55.2415
55.2373
55.2331
55.2288
55.2246
55.2203
55.216
55.2118
55.2075
55.2032
55.1989
55.1946
55.1902
55.1859
55.1815
55.1771
55.1727
55.1682
55.1638
55.1593
55.1548
55.1503
55.1458
55.1413
55.1367
55.1322
55.1276
55.123
55.1184
55.1138
55.1092
55.1046
55.0999
55.0953
55.0906
55.0859
55.0812
55.0765
55.0718
55.0671
55.0624
55.0577
55.0529
55.0482
55.0434
55.0386
55.0338
55.029
55.0242
55.0194
55.0146
55.0098
55.005
55.0001
54.9953
54.9904
54.9856
54.9807
54.9759
54.971
54.9661
54.9612
54.9563
54.9514
54.9465
54.9416
54.9367
54.9318
54.9269
54.922
54.9171
54.9121
54.9072
54.9023
54.8974
54.8924
54.8875
54.8825
54.8776
54.8727
54.8677
54.8628
54.8578
54.8529
54.848
54.843
54.8381
54.8331
54.8282
54.8232
54.8183
54.8134
54.8084
54.8035
54.7985
54.7936
54.7887
54.7838
54.7788
54.7739
54.769
54.7641
54.7592
54.7543
54.7494
54.7445
54.7396
54.7347
54.7298
54.7249
54.7201
54.7152
54.7103
54.7055
54.7006
54.6958
54.691
54.6861
54.6813
54.6765
54.6717
54.6669
54.6621
54.6573
54.6525
54.6478
54.643
54.6383
54.6335
54.6288
54.6241
54.6194
54.6147
54.61
54.6053
54.6006
54.596
54.5913
54.5867
54.5821
54.5774
54.5728
54.5682
54.5637
54.5591
54.5545
54.55
54.5454
54.5409
54.5364
54.5319
54.5274
54.523
54.5185
54.5141
54.5096
54.5052
54.5008
54.4964
54.492
54.4877
54.4833
54.479
54.4747
54.4704
54.4661
54.4618
54.4575
54.4533
54.4491
54.4448
54.4406
54.4364
54.4323
54.4281
54.424
54.4198
54.4157
54.4116
54.4076
54.4035
54.3994
54.3954
54.3914
54.3874
54.3834
54.3794
54.3755
54.3715
54.3676
54.3637
54.3598
54.3559
54.3521
54.3482
54.3444
54.3406
54.3368
54.333
54.3293
54.3255
54.3218
54.3181
54.3144
54.3107
54.3071
54.3034
54.2998
54.2962
54.2926
54.289
54.2855
54.2819
54.2784
54.2749
54.2714
54.2679
54.2645
54.2609
54.2576
54.2541
54.2508
54.2473
54.2441
54.2406
54.2374
54.234
54.2308
54.2274
54.2243
54.2209
54.2178
54.2145
54.2114
54.2081
54.2051
54.2018
54.1988
54.1955
54.1926
54.1892
54.186
55.4492
55.4519
55.4567
55.4615
55.4664
55.4713
55.4762
55.4812
55.4862
55.4912
55.4961
55.501
55.5057
55.5103
55.5147
55.519
55.5231
55.5269
55.5306
55.534
55.5371
55.54
55.5427
55.5451
55.5473
55.5492
55.5508
55.5522
55.5535
55.5545
55.5552
55.5558
55.5561
55.5563
55.5563
55.5561
55.5559
55.5555
55.5551
55.5545
55.5539
55.5531
55.5524
55.5516
55.5507
55.5498
55.5489
55.5479
55.5469
55.5458
55.5448
55.5436
55.5425
55.5413
55.54
55.5388
55.5375
55.5361
55.5348
55.5333
55.5319
55.5304
55.5289
55.5273
55.5258
55.5241
55.5225
55.5208
55.5191
55.5173
55.5155
55.5137
55.5118
55.5099
55.508
55.506
55.504
55.502
55.4999
55.4978
55.4957
55.4935
55.4913
55.4891
55.4868
55.4845
55.4822
55.4798
55.4774
55.475
55.4726
55.4701
55.4676
55.465
55.4624
55.4598
55.4572
55.4545
55.4518
55.4491
55.4463
55.4435
55.4407
55.4378
55.4349
55.432
55.429
55.426
55.423
55.4199
55.4169
55.4138
55.4107
55.4075
55.4044
55.4012
55.3981
55.3949
55.3916
55.3884
55.3851
55.3817
55.3784
55.375
55.3716
55.3681
55.3646
55.3611
55.3575
55.3539
55.3503
55.3467
55.3431
55.3394
55.3358
55.3321
55.3284
55.3246
55.3209
55.3171
55.3133
55.3095
55.3056
55.3018
55.2979
55.294
55.2901
55.2862
55.2823
55.2783
55.2743
55.2703
55.2663
55.2622
55.2582
55.254
55.2499
55.2457
55.2415
55.2373
55.2331
55.2288
55.2246
55.2203
55.216
55.2118
55.2075
55.2032
55.1989
55.1946
55.1902
55.1859
55.1815
55.1771
55.1727
55.1682
55.1638
55.1593
55.1548
55.1503
55.1458
55.1413
55.1367
55.1322
55.1276
55.123
55.1184
55.1138
55.1092
55.1046
55.0999
55.0953
55.0906
55.0859
55.0812
55.0765
55.0718
55.0671
55.0624
55.0577
55.0529
55.0482
55.0434
55.0386
55.0338
55.029
55.0242
55.0194
55.0146
55.0098
55.005
55.0001
54.9953
54.9904
54.9856
54.9807
54.9759
54.971
54.9661
54.9612
54.9563
54.9514
54.9465
54.9416
54.9367
54.9318
54.9269
54.922
54.9171
54.9121
54.9072
54.9023
54.8974
54.8924
54.8875
54.8825
54.8776
54.8727
54.8677
54.8628
54.8578
54.8529
54.8479
54.843
54.8381
54.8331
54.8282
54.8232
54.8183
54.8134
54.8084
54.8035
54.7985
54.7936
54.7887
54.7838
54.7788
54.7739
54.769
54.7641
54.7592
54.7543
54.7494
54.7445
54.7396
54.7347
54.7298
54.7249
54.7201
54.7152
54.7103
54.7055
54.7006
54.6958
54.691
54.6861
54.6813
54.6765
54.6717
54.6669
54.6621
54.6573
54.6525
54.6478
54.643
54.6383
54.6335
54.6288
54.6241
54.6194
54.6147
54.61
54.6053
54.6006
54.596
54.5913
54.5867
54.5821
54.5774
54.5728
54.5682
54.5637
54.5591
54.5545
54.55
54.5454
54.5409
54.5364
54.5319
54.5274
54.523
54.5185
54.5141
54.5096
54.5052
54.5008
54.4964
54.492
54.4877
54.4833
54.479
54.4747
54.4704
54.4661
54.4618
54.4575
54.4533
54.449
54.4448
54.4406
54.4364
54.4323
54.4281
54.424
54.4198
54.4157
54.4116
54.4075
54.4035
54.3994
54.3954
54.3914
54.3874
54.3834
54.3794
54.3755
54.3715
54.3676
54.3637
54.3598
54.3559
54.3521
54.3482
54.3444
54.3406
54.3368
54.333
54.3293
54.3255
54.3218
54.3181
54.3144
54.3107
54.3071
54.3034
54.2998
54.2962
54.2926
54.289
54.2855
54.2819
54.2784
54.2749
54.2714
54.2679
54.2645
54.2609
54.2577
54.2541
54.2508
54.2473
54.2441
54.2406
54.2374
54.234
54.2308
54.2274
54.2243
54.2209
54.2178
54.2145
54.2114
54.2081
54.2051
54.2018
54.1988
54.1955
54.1926
54.1892
54.186
55.4485
55.4513
55.456
55.4608
55.4657
55.4706
55.4756
55.4806
55.4856
55.4905
55.4955
55.5003
55.505
55.5096
55.5141
55.5184
55.5224
55.5263
55.5299
55.5333
55.5365
55.5394
55.542
55.5445
55.5466
55.5485
55.5502
55.5516
55.5528
55.5539
55.5546
55.5552
55.5555
55.5556
55.5556
55.5555
55.5553
55.5549
55.5544
55.5539
55.5532
55.5525
55.5518
55.5509
55.5501
55.5492
55.5483
55.5473
55.5463
55.5452
55.5441
55.543
55.5419
55.5407
55.5394
55.5382
55.5369
55.5355
55.5342
55.5327
55.5313
55.5298
55.5283
55.5268
55.5252
55.5235
55.5219
55.5202
55.5185
55.5167
55.5149
55.5131
55.5112
55.5093
55.5074
55.5054
55.5034
55.5014
55.4993
55.4972
55.4951
55.4929
55.4907
55.4885
55.4863
55.484
55.4816
55.4793
55.4769
55.4745
55.472
55.4695
55.467