/*--------------------------------*- C++ -*----------------------------------*\
| =========                 |                                                 |
| \\      /  F ield         | OpenFOAM: The Open Source CFD Toolbox           |
|  \\    /   O peration     | Version:  3.0.x                                 |
|   \\  /    A nd           | Web:      www.OpenFOAM.org                      |
|    \\/     M anipulation  |                                                 |
\*---------------------------------------------------------------------------*/
FoamFile
{
    version     2.0;
    format      ascii;
    class       volScalarField;
    location    "0.6";
    object      T;
}
// * * * * * * * * * * * * * * * * * * * * * * * * * * * * * * * * * * * * * //

dimensions      [0 0 0 1 0 0 0];

internalField   nonuniform List<scalar> 
27600
(
789.522
789.493
789.44
789.384
789.326
789.266
789.205
789.143
789.08
789.017
788.954
788.892
788.831
788.77
788.712
788.655
788.6
788.548
788.498
788.451
788.407
788.366
788.328
788.292
788.259
788.229
788.203
788.179
788.157
788.137
788.12
788.106
788.094
788.085
788.076
788.069
788.063
788.058
788.053
788.05
788.046
788.044
788.041
788.038
788.036
788.033
788.03
788.027
788.025
788.022
788.018
788.015
788.012
788.008
788.005
788.001
787.998
787.994
787.99
787.986
787.982
787.977
787.973
787.969
787.964
787.959
787.955
787.95
787.945
787.94
787.935
787.929
787.924
787.919
787.913
787.908
787.902
787.896
787.89
787.884
787.878
787.872
787.866
787.859
787.853
787.846
787.839
787.833
787.826
787.819
787.812
787.805
787.798
787.79
787.783
787.776
787.768
787.761
787.753
787.745
787.737
787.729
787.721
787.713
787.705
787.697
787.689
787.681
787.673
787.665
787.657
787.648
787.639
787.63
787.621
787.611
787.602
787.592
787.582
787.572
787.562
787.552
787.543
787.533
787.523
787.514
787.504
787.495
787.485
787.475
787.466
787.455
787.445
787.435
787.424
787.414
787.403
787.392
787.382
787.371
787.36
787.349
787.338
787.326
787.315
787.303
787.291
787.28
787.268
787.256
787.244
787.232
787.22
787.209
787.197
787.185
787.174
787.163
787.151
787.14
787.128
787.116
787.104
787.092
787.079
787.067
787.054
787.041
787.028
787.015
787.002
786.989
786.976
786.964
786.951
786.938
786.925
786.912
786.899
786.886
786.873
786.86
786.847
786.834
786.821
786.808
786.795
786.781
786.768
786.755
786.742
786.728
786.715
786.702
786.688
786.675
786.661
786.648
786.634
786.621
786.607
786.593
786.58
786.566
786.552
786.538
786.525
786.511
786.497
786.483
786.469
786.456
786.442
786.428
786.414
786.4
786.386
786.372
786.358
786.344
786.33
786.316
786.302
786.288
786.274
786.26
786.245
786.231
786.217
786.203
786.189
786.175
786.161
786.146
786.132
786.118
786.104
786.09
786.075
786.061
786.047
786.033
786.019
786.004
785.99
785.976
785.962
785.947
785.933
785.919
785.905
785.891
785.876
785.862
785.848
785.834
785.82
785.806
785.791
785.777
785.763
785.749
785.735
785.721
785.707
785.693
785.679
785.665
785.65
785.636
785.622
785.608
785.595
785.581
785.567
785.553
785.539
785.525
785.511
785.497
785.483
785.47
785.456
785.442
785.428
785.415
785.401
785.387
785.374
785.36
785.347
785.333
785.32
785.306
785.293
785.279
785.266
785.253
785.239
785.226
785.213
785.199
785.186
785.173
785.16
785.147
785.134
785.121
785.108
785.095
785.082
785.069
785.056
785.043
785.031
785.018
785.005
784.993
784.98
784.967
784.955
784.942
784.93
784.918
784.905
784.893
784.881
784.868
784.856
784.844
784.832
784.82
784.808
784.796
784.784
784.772
784.76
784.748
784.737
784.725
784.713
784.702
784.69
784.678
784.667
784.655
784.644
784.633
784.621
784.61
784.599
784.588
784.577
784.566
784.554
784.544
784.533
784.522
784.511
784.5
784.489
784.479
784.468
784.457
784.447
784.436
784.426
784.416
784.405
784.395
784.384
784.375
784.363
784.355
784.343
784.335
784.323
784.315
784.303
784.295
784.283
784.276
784.264
784.256
784.245
784.237
784.225
784.218
784.207
784.2
784.188
784.181
784.169
784.163
784.151
784.144
784.133
784.127
784.116
784.111
789.512
789.483
789.43
789.374
789.316
789.257
789.196
789.134
789.071
789.008
788.945
788.883
788.821
788.761
788.702
788.646
788.591
788.539
788.489
788.442
788.398
788.357
788.319
788.283
788.25
788.221
788.194
788.17
788.148
788.128
788.112
788.097
788.086
788.076
788.067
788.06
788.054
788.049
788.044
788.041
788.038
788.035
788.032
788.03
788.027
788.024
788.022
788.019
788.016
788.013
788.01
788.007
788.003
788
787.996
787.993
787.989
787.985
787.981
787.977
787.973
787.969
787.965
787.96
787.956
787.951
787.946
787.941
787.937
787.932
787.926
787.921
787.916
787.911
787.905
787.899
787.894
787.888
787.882
787.876
787.87
787.864
787.858
787.851
787.845
787.838
787.832
787.825
787.818
787.811
787.804
787.797
787.79
787.783
787.775
787.768
787.761
787.753
787.745
787.737
787.729
787.721
787.713
787.705
787.698
787.69
787.682
787.674
787.666
787.658
787.649
787.641
787.632
787.623
787.614
787.604
787.595
787.585
787.575
787.565
787.555
787.546
787.536
787.526
787.516
787.507
787.497
787.488
787.478
787.468
787.459
787.449
787.438
787.428
787.418
787.407
787.397
787.386
787.375
787.364
787.354
787.343
787.332
787.32
787.309
787.297
787.285
787.274
787.262
787.25
787.238
787.226
787.214
787.202
787.191
787.179
787.168
787.156
787.145
787.133
787.122
787.11
787.098
787.086
787.073
787.061
787.048
787.035
787.022
787.01
786.997
786.984
786.971
786.958
786.945
786.932
786.919
786.906
786.894
786.881
786.868
786.855
786.842
786.829
786.815
786.802
786.789
786.776
786.763
786.749
786.736
786.723
786.71
786.696
786.683
786.669
786.656
786.642
786.629
786.615
786.601
786.588
786.574
786.56
786.547
786.533
786.519
786.506
786.492
786.478
786.464
786.45
786.436
786.422
786.408
786.394
786.381
786.367
786.353
786.339
786.324
786.31
786.296
786.282
786.268
786.254
786.24
786.226
786.212
786.198
786.183
786.169
786.155
786.141
786.127
786.113
786.098
786.084
786.07
786.056
786.042
786.027
786.013
785.999
785.985
785.971
785.956
785.942
785.928
785.914
785.899
785.885
785.871
785.857
785.843
785.829
785.814
785.8
785.786
785.772
785.758
785.744
785.73
785.715
785.701
785.687
785.673
785.659
785.645
785.631
785.617
785.603
785.589
785.575
785.561
785.547
785.534
785.52
785.506
785.492
785.478
785.464
785.451
785.437
785.423
785.41
785.396
785.382
785.369
785.355
785.341
785.328
785.314
785.301
785.287
785.274
785.261
785.247
785.234
785.221
785.207
785.194
785.181
785.168
785.155
785.142
785.129
785.116
785.103
785.09
785.077
785.064
785.051
785.038
785.025
785.013
785
784.987
784.975
784.962
784.95
784.937
784.925
784.912
784.9
784.888
784.875
784.863
784.851
784.839
784.827
784.815
784.803
784.791
784.779
784.767
784.755
784.743
784.731
784.72
784.708
784.696
784.685
784.673
784.662
784.65
784.639
784.628
784.616
784.605
784.594
784.583
784.572
784.56
784.549
784.538
784.527
784.517
784.506
784.495
784.484
784.474
784.463
784.452
784.442
784.431
784.421
784.411
784.4
784.39
784.379
784.37
784.358
784.35
784.338
784.33
784.318
784.31
784.298
784.29
784.278
784.271
784.259
784.251
784.24
784.232
784.221
784.213
784.202
784.194
784.183
784.176
784.164
784.157
784.146
784.139
784.128
784.122
784.111
784.105
789.513
789.483
789.43
789.374
789.316
789.257
789.196
789.134
789.071
789.008
788.945
788.883
788.821
788.761
788.703
788.646
788.591
788.539
788.489
788.442
788.398
788.357
788.319
788.283
788.25
788.221
788.194
788.17
788.148
788.128
788.112
788.097
788.086
788.076
788.067
788.06
788.054
788.049
788.044
788.041
788.038
788.035
788.032
788.03
788.027
788.024
788.022
788.019
788.016
788.013
788.01
788.007
788.003
788
787.996
787.993
787.989
787.985
787.981
787.977
787.973
787.969
787.965
787.96
787.956
787.951
787.946
787.942
787.937
787.932
787.926
787.921
787.916
787.911
787.905
787.899
787.894
787.888
787.882
787.876
787.87
787.864
787.858
787.851
787.845
787.838
787.832
787.825
787.818
787.811
787.804
787.797
787.79
787.783
787.775
787.768
787.761
787.753
787.745
787.737
787.729
787.721
787.713
787.705
787.698
787.69
787.682
787.674
787.666
787.658
787.649
787.641
787.632
787.623
787.614
787.604
787.595
787.585
787.575
787.565
787.555
787.546
787.536
787.526
787.516
787.507
787.497
787.488
787.478
787.468
787.459
787.449
787.438
787.428
787.418
787.407
787.396
787.386
787.375
787.364
787.354
787.343
787.332
787.32
787.309
787.297
787.285
787.274
787.262
787.25
787.238
787.226
787.214
787.202
787.191
787.179
787.168
787.156
787.145
787.133
787.122
787.11
787.098
787.086
787.073
787.061
787.048
787.035
787.022
787.01
786.997
786.984
786.971
786.958
786.945
786.932
786.919
786.906
786.893
786.881
786.868
786.855
786.842
786.829
786.815
786.802
786.789
786.776
786.763
786.749
786.736
786.723
786.709
786.696
786.683
786.669
786.656
786.642
786.629
786.615
786.601
786.588
786.574
786.56
786.547
786.533
786.519
786.505
786.492
786.478
786.464
786.45
786.436
786.422
786.408
786.394
786.381
786.367
786.353
786.339
786.324
786.31
786.296
786.282
786.268
786.254
786.24
786.226
786.212
786.198
786.183
786.169
786.155
786.141
786.127
786.113
786.098
786.084
786.07
786.056
786.042
786.027
786.013
785.999
785.985
785.971
785.956
785.942
785.928
785.914
785.899
785.885
785.871
785.857
785.843
785.829
785.814
785.8
785.786
785.772
785.758
785.744
785.73
785.715
785.701
785.687
785.673
785.659
785.645
785.631
785.617
785.603
785.589
785.575
785.561
785.547
785.534
785.52
785.506
785.492
785.478
785.464
785.451
785.437
785.423
785.409
785.396
785.382
785.369
785.355
785.341
785.328
785.314
785.301
785.287
785.274
785.261
785.247
785.234
785.221
785.207
785.194
785.181
785.168
785.155
785.142
785.129
785.116
785.103
785.09
785.077
785.064
785.051
785.038
785.025
785.013
785
784.987
784.975
784.962
784.95
784.937
784.925
784.912
784.9
784.888
784.875
784.863
784.851
784.839
784.827
784.815
784.803
784.791
784.779
784.767
784.755
784.743
784.731
784.72
784.708
784.696
784.685
784.673
784.662
784.65
784.639
784.628
784.616
784.605
784.594
784.583
784.571
784.56
784.549
784.538
784.527
784.517
784.506
784.495
784.484
784.474
784.463
784.452
784.442
784.431
784.421
784.411
784.4
784.39
784.379
784.37
784.358
784.35
784.338
784.33
784.318
784.31
784.298
784.29
784.278
784.271
784.259
784.251
784.24
784.232
784.221
784.213
784.202
784.194
784.183
784.176
784.164
784.157
784.146
784.139
784.128
784.121
784.111
784.104
789.513
789.484
789.43
789.374
789.317
789.257
789.196
789.134
789.071
789.008
788.945
788.883
788.822
788.761
788.703
788.646
788.592
788.539
788.49
788.443
788.399
788.357
788.319
788.283
788.251
788.221
788.194
788.17
788.148
788.129
788.112
788.098
788.086
788.076
788.068
788.06
788.054
788.049
788.045
788.041
788.038
788.035
788.032
788.03
788.027
788.025
788.022
788.019
788.016
788.013
788.01
788.007
788.003
788
787.997
787.993
787.989
787.985
787.981
787.977
787.973
787.969
787.965
787.96
787.956
787.951
787.947
787.942
787.937
787.932
787.927
787.921
787.916
787.911
787.905
787.9
787.894
787.888
787.882
787.876
787.87
787.864
787.858
787.851
787.845
787.838
787.832
787.825
787.818
787.811
787.804
787.797
787.79
787.783
787.775
787.768
787.761
787.753
787.745
787.737
787.729
787.721
787.714
787.706
787.698
787.69
787.682
787.674
787.666
787.658
787.65
787.641
787.632
787.623
787.614
787.604
787.595
787.585
787.575
787.565
787.556
787.546
787.536
787.526
787.516
787.507
787.497
787.488
787.478
787.468
787.459
787.449
787.438
787.428
787.418
787.407
787.397
787.386
787.375
787.364
787.354
787.343
787.332
787.32
787.309
787.297
787.285
787.274
787.262
787.25
787.238
787.226
787.214
787.202
787.191
787.179
787.168
787.156
787.145
787.133
787.122
787.11
787.098
787.086
787.073
787.061
787.048
787.035
787.022
787.01
786.997
786.984
786.971
786.958
786.945
786.932
786.919
786.906
786.894
786.881
786.868
786.855
786.842
786.829
786.815
786.802
786.789
786.776
786.763
786.749
786.736
786.723
786.709
786.696
786.683
786.669
786.656
786.642
786.629
786.615
786.601
786.588
786.574
786.56
786.547
786.533
786.519
786.506
786.492
786.478
786.464
786.45
786.436
786.422
786.408
786.394
786.381
786.367
786.353
786.339
786.324
786.31
786.296
786.282
786.268
786.254
786.24
786.226
786.212
786.198
786.183
786.169
786.155
786.141
786.127
786.113
786.098
786.084
786.07
786.056
786.042
786.027
786.013
785.999
785.985
785.971
785.956
785.942
785.928
785.914
785.899
785.885
785.871
785.857
785.843
785.829
785.814
785.8
785.786
785.772
785.758
785.744
785.73
785.715
785.701
785.687
785.673
785.659
785.645
785.631
785.617
785.603
785.589
785.575
785.561
785.547
785.534
785.52
785.506
785.492
785.478
785.464
785.451
785.437
785.423
785.409
785.396
785.382
785.369
785.355
785.341
785.328
785.314
785.301
785.287
785.274
785.261
785.247
785.234
785.221
785.207
785.194
785.181
785.168
785.155
785.142
785.129
785.116
785.103
785.09
785.077
785.064
785.051
785.038
785.025
785.013
785
784.987
784.975
784.962
784.95
784.937
784.925
784.912
784.9
784.888
784.875
784.863
784.851
784.839
784.827
784.815
784.803
784.791
784.779
784.767
784.755
784.743
784.731
784.72
784.708
784.696
784.685
784.673
784.662
784.65
784.639
784.628
784.616
784.605
784.594
784.583
784.571
784.56
784.549
784.538
784.527
784.517
784.506
784.495
784.484
784.474
784.463
784.452
784.442
784.431
784.421
784.411
784.4
784.39
784.379
784.37
784.358
784.35
784.338
784.33
784.318
784.31
784.298
784.29
784.278
784.271
784.259
784.251
784.24
784.232
784.221
784.213
784.202
784.194
784.183
784.176
784.164
784.157
784.146
784.139
784.128
784.121
784.112
784.104
789.513
789.484
789.43
789.375
789.317
789.257
789.196
789.134
789.071
789.008
788.945
788.883
788.822
788.762
788.703
788.646
788.592
788.54
788.49
788.443
788.399
788.358
788.319
788.283
788.251
788.221
788.194
788.17
788.148
788.129
788.112
788.098
788.086
788.076
788.068
788.061
788.054
788.049
788.045
788.041
788.038
788.035
788.033
788.03
788.027
788.025
788.022
788.019
788.016
788.013
788.01
788.007
788.004
788
787.997
787.993
787.989
787.986
787.982
787.978
787.973
787.969
787.965
787.96
787.956
787.951
787.947
787.942
787.937
787.932
787.927
787.922
787.916
787.911
787.905
787.9
787.894
787.888
787.882
787.876
787.87
787.864
787.858
787.851
787.845
787.839
787.832
787.825
787.818
787.811
787.804
787.797
787.79
787.783
787.776
787.768
787.761
787.753
787.745
787.738
787.73
787.722
787.714
787.706
787.698
787.69
787.682
787.674
787.666
787.658
787.65
787.641
787.632
787.623
787.614
787.604
787.595
787.585
787.575
787.565
787.556
787.546
787.536
787.526
787.516
787.507
787.497
787.488
787.478
787.469
787.459
787.449
787.439
787.428
787.418
787.407
787.397
787.386
787.375
787.365
787.354
787.343
787.332
787.32
787.309
787.297
787.285
787.274
787.262
787.25
787.238
787.226
787.214
787.202
787.191
787.179
787.168
787.156
787.145
787.133
787.122
787.11
787.098
787.086
787.073
787.061
787.048
787.035
787.022
787.01
786.997
786.984
786.971
786.958
786.945
786.932
786.919
786.906
786.894
786.881
786.868
786.855
786.842
786.829
786.815
786.802
786.789
786.776
786.763
786.749
786.736
786.723
786.709
786.696
786.683
786.669
786.656
786.642
786.629
786.615
786.601
786.588
786.574
786.56
786.547
786.533
786.519
786.506
786.492
786.478
786.464
786.45
786.436
786.422
786.408
786.394
786.381
786.367
786.353
786.339
786.324
786.31
786.296
786.282
786.268
786.254
786.24
786.226
786.212
786.198
786.183
786.169
786.155
786.141
786.127
786.113
786.098
786.084
786.07
786.056
786.042
786.027
786.013
785.999
785.985
785.971
785.956
785.942
785.928
785.914
785.899
785.885
785.871
785.857
785.843
785.829
785.814
785.8
785.786
785.772
785.758
785.744
785.73
785.715
785.701
785.687
785.673
785.659
785.645
785.631
785.617
785.603
785.589
785.575
785.561
785.547
785.534
785.52
785.506
785.492
785.478
785.464
785.451
785.437
785.423
785.409
785.396
785.382
785.369
785.355
785.341
785.328
785.314
785.301
785.287
785.274
785.261
785.247
785.234
785.221
785.207
785.194
785.181
785.168
785.155
785.142
785.129
785.116
785.103
785.09
785.077
785.064
785.051
785.038
785.025
785.013
785
784.987
784.975
784.962
784.95
784.937
784.925
784.912
784.9
784.888
784.875
784.863
784.851
784.839
784.827
784.815
784.803
784.791
784.779
784.767
784.755
784.743
784.731
784.72
784.708
784.696
784.685
784.673
784.662
784.65
784.639
784.628
784.616
784.605
784.594
784.583
784.571
784.56
784.549
784.538
784.527
784.517
784.506
784.495
784.484
784.474
784.463
784.452
784.442
784.431
784.42
784.411
784.4
784.39
784.379
784.37
784.358
784.35
784.338
784.33
784.318
784.31
784.298
784.29
784.278
784.271
784.259
784.251
784.24
784.232
784.221
784.213
784.202
784.194
784.183
784.176
784.164
784.157
784.146
784.139
784.128
784.121
784.111
784.103
789.513
789.484
789.43
789.375
789.317
789.257
789.196
789.134
789.071
789.008
788.945
788.883
788.822
788.762
788.703
788.646
788.592
788.54
788.49
788.443
788.399
788.358
788.319
788.283
788.251
788.221
788.194
788.17
788.148
788.129
788.112
788.098
788.086
788.076
788.068
788.061
788.054
788.049
788.045
788.041
788.038
788.035
788.033
788.03
788.027
788.025
788.022
788.019
788.016
788.013
788.01
788.007
788.004
788
787.997
787.993
787.989
787.986
787.982
787.978
787.973
787.969
787.965
787.96
787.956
787.951
787.947
787.942
787.937
787.932
787.927
787.922
787.916
787.911
787.905
787.9
787.894
787.888
787.882
787.876
787.87
787.864
787.858
787.851
787.845
787.839
787.832
787.825
787.818
787.811
787.804
787.797
787.79
787.783
787.776
787.768
787.761
787.753
787.745
787.738
787.73
787.722
787.714
787.706
787.698
787.69
787.682
787.674
787.666
787.658
787.65
787.641
787.632
787.623
787.614
787.604
787.595
787.585
787.575
787.565
787.556
787.546
787.536
787.526
787.516
787.507
787.497
787.488
787.478
787.469
787.459
787.449
787.439
787.428
787.418
787.407
787.397
787.386
787.375
787.365
787.354
787.343
787.332
787.32
787.309
787.297
787.285
787.274
787.262
787.25
787.238
787.226
787.214
787.202
787.191
787.179
787.168
787.156
787.145
787.133
787.122
787.11
787.098
787.086
787.073
787.061
787.048
787.035
787.022
787.01
786.997
786.984
786.971
786.958
786.945
786.932
786.919
786.906
786.894
786.881
786.868
786.855
786.842
786.829
786.815
786.802
786.789
786.776
786.763
786.749
786.736
786.723
786.709
786.696
786.683
786.669
786.656
786.642
786.629
786.615
786.601
786.588
786.574
786.56
786.547
786.533
786.519
786.506
786.492
786.478
786.464
786.45
786.436
786.422
786.408
786.394
786.381
786.367
786.353
786.339
786.324
786.31
786.296
786.282
786.268
786.254
786.24
786.226
786.212
786.198
786.183
786.169
786.155
786.141
786.127
786.113
786.098
786.084
786.07
786.056
786.042
786.027
786.013
785.999
785.985
785.971
785.956
785.942
785.928
785.914
785.899
785.885
785.871
785.857
785.843
785.829
785.814
785.8
785.786
785.772
785.758
785.744
785.73
785.715
785.701
785.687
785.673
785.659
785.645
785.631
785.617
785.603
785.589
785.575
785.561
785.547
785.534
785.52
785.506
785.492
785.478
785.464
785.451
785.437
785.423
785.409
785.396
785.382
785.369
785.355
785.341
785.328
785.314
785.301
785.287
785.274
785.261
785.247
785.234
785.221
785.207
785.194
785.181
785.168
785.155
785.142
785.129
785.116
785.103
785.09
785.077
785.064
785.051
785.038
785.025
785.013
785
784.987
784.975
784.962
784.95
784.937
784.925
784.912
784.9
784.888
784.875
784.863
784.851
784.839
784.827
784.815
784.803
784.791
784.779
784.767
784.755
784.743
784.731
784.72
784.708
784.696
784.685
784.673
784.662
784.65
784.639
784.628
784.616
784.605
784.594
784.583
784.571
784.56
784.549
784.538
784.527
784.517
784.506
784.495
784.484
784.474
784.463
784.452
784.442
784.431
784.421
784.41
784.4
784.39
784.379
784.369
784.359
784.349
784.338
784.329
784.318
784.309
784.299
784.289
784.28
784.269
784.26
784.25
784.24
784.232
784.221
784.213
784.203
784.193
784.185
784.173
784.167
784.156
784.148
784.137
784.13
784.119
784.112
784.102
789.513
789.484
789.43
789.374
789.317
789.257
789.196
789.134
789.071
789.008
788.945
788.883
788.822
788.761
788.703
788.646
788.592
788.539
788.49
788.443
788.399
788.357
788.319
788.283
788.251
788.221
788.194
788.17
788.148
788.129
788.112
788.098
788.086
788.076
788.068
788.06
788.054
788.049
788.045
788.041
788.038
788.035
788.032
788.03
788.027
788.025
788.022
788.019
788.016
788.013
788.01
788.007
788.003
788
787.997
787.993
787.989
787.985
787.981
787.977
787.973
787.969
787.965
787.96
787.956
787.951
787.947
787.942
787.937
787.932
787.927
787.921
787.916
787.911
787.905
787.9
787.894
787.888
787.882
787.876
787.87
787.864
787.858
787.851
787.845
787.838
787.832
787.825
787.818
787.811
787.804
787.797
787.79
787.783
787.775
787.768
787.761
787.753
787.745
787.737
787.729
787.721
787.714
787.706
787.698
787.69
787.682
787.674
787.666
787.658
787.65
787.641
787.632
787.623
787.614
787.604
787.595
787.585
787.575
787.565
787.556
787.546
787.536
787.526
787.516
787.507
787.497
787.488
787.478
787.468
787.459
787.449
787.438
787.428
787.418
787.407
787.397
787.386
787.375
787.364
787.354
787.343
787.332
787.32
787.309
787.297
787.285
787.274
787.262
787.25
787.238
787.226
787.214
787.202
787.191
787.179
787.168
787.156
787.145
787.133
787.122
787.11
787.098
787.086
787.073
787.061
787.048
787.035
787.022
787.01
786.997
786.984
786.971
786.958
786.945
786.932
786.919
786.906
786.894
786.881
786.868
786.855
786.842
786.829
786.815
786.802
786.789
786.776
786.763
786.749
786.736
786.723
786.709
786.696
786.683
786.669
786.656
786.642
786.629
786.615
786.601
786.588
786.574
786.56
786.547
786.533
786.519
786.506
786.492
786.478
786.464
786.45
786.436
786.422
786.408
786.394
786.381
786.367
786.353
786.339
786.324
786.31
786.296
786.282
786.268
786.254
786.24
786.226
786.212
786.198
786.183
786.169
786.155
786.141
786.127
786.113
786.098
786.084
786.07
786.056
786.042
786.027
786.013
785.999
785.985
785.971
785.956
785.942
785.928
785.914
785.899
785.885
785.871
785.857
785.843
785.829
785.814
785.8
785.786
785.772
785.758
785.744
785.73
785.715
785.701
785.687
785.673
785.659
785.645
785.631
785.617
785.603
785.589
785.575
785.561
785.547
785.534
785.52
785.506
785.492
785.478
785.464
785.451
785.437
785.423
785.409
785.396
785.382
785.369
785.355
785.341
785.328
785.314
785.301
785.287
785.274
785.261
785.247
785.234
785.221
785.207
785.194
785.181
785.168
785.155
785.142
785.129
785.116
785.103
785.09
785.077
785.064
785.051
785.038
785.025
785.013
785
784.987
784.975
784.962
784.95
784.937
784.925
784.912
784.9
784.888
784.875
784.863
784.851
784.839
784.827
784.815
784.803
784.791
784.779
784.767
784.755
784.743
784.731
784.72
784.708
784.696
784.685
784.673
784.662
784.65
784.639
784.628
784.616
784.605
784.594
784.583
784.571
784.56
784.549
784.538
784.527
784.517
784.506
784.495
784.484
784.474
784.463
784.452
784.442
784.431
784.421
784.41
784.4
784.39
784.379
784.369
784.359
784.348
784.339
784.328
784.319
784.308
784.299
784.289
784.279
784.27
784.259
784.251
784.24
784.231
784.222
784.211
784.204
784.193
784.185
784.174
784.167
784.155
784.148
784.138
784.129
784.119
784.111
784.102
789.513
789.483
789.43
789.374
789.316
789.257
789.196
789.134
789.071
789.008
788.945
788.883
788.821
788.761
788.703
788.646
788.591
788.539
788.489
788.442
788.398
788.357
788.319
788.283
788.25
788.221
788.194
788.17
788.148
788.128
788.112
788.097
788.086
788.076
788.067
788.06
788.054
788.049
788.044
788.041
788.038
788.035
788.032
788.03
788.027
788.024
788.022
788.019
788.016
788.013
788.01
788.007
788.003
788
787.996
787.993
787.989
787.985
787.981
787.977
787.973
787.969
787.965
787.96
787.956
787.951
787.946
787.942
787.937
787.932
787.926
787.921
787.916
787.911
787.905
787.899
787.894
787.888
787.882
787.876
787.87
787.864
787.858
787.851
787.845
787.838
787.832
787.825
787.818
787.811
787.804
787.797
787.79
787.783
787.775
787.768
787.761
787.753
787.745
787.737
787.729
787.721
787.713
787.705
787.698
787.69
787.682
787.674
787.666
787.658
787.649
787.641
787.632
787.623
787.614
787.604
787.595
787.585
787.575
787.565
787.555
787.546
787.536
787.526
787.516
787.507
787.497
787.488
787.478
787.468
787.459
787.449
787.438
787.428
787.418
787.407
787.396
787.386
787.375
787.364
787.354
787.343
787.332
787.32
787.309
787.297
787.285
787.274
787.262
787.25
787.238
787.226
787.214
787.202
787.191
787.179
787.168
787.156
787.145
787.133
787.122
787.11
787.098
787.086
787.073
787.061
787.048
787.035
787.022
787.01
786.997
786.984
786.971
786.958
786.945
786.932
786.919
786.906
786.893
786.881
786.868
786.855
786.842
786.829
786.815
786.802
786.789
786.776
786.763
786.749
786.736
786.723
786.709
786.696
786.683
786.669
786.656
786.642
786.629
786.615
786.601
786.588
786.574
786.56
786.547
786.533
786.519
786.505
786.492
786.478
786.464
786.45
786.436
786.422
786.408
786.394
786.381
786.367
786.353
786.339
786.324
786.31
786.296
786.282
786.268
786.254
786.24
786.226
786.212
786.198
786.183
786.169
786.155
786.141
786.127
786.113
786.098
786.084
786.07
786.056
786.042
786.027
786.013
785.999
785.985
785.971
785.956
785.942
785.928
785.914
785.899
785.885
785.871
785.857
785.843
785.829
785.814
785.8
785.786
785.772
785.758
785.744
785.73
785.715
785.701
785.687
785.673
785.659
785.645
785.631
785.617
785.603
785.589
785.575
785.561
785.547
785.534
785.52
785.506
785.492
785.478
785.464
785.451
785.437
785.423
785.409
785.396
785.382
785.369
785.355
785.341
785.328
785.314
785.301
785.287
785.274
785.261
785.247
785.234
785.221
785.207
785.194
785.181
785.168
785.155
785.142
785.129
785.116
785.103
785.09
785.077
785.064
785.051
785.038
785.025
785.013
785
784.987
784.975
784.962
784.95
784.937
784.925
784.912
784.9
784.888
784.875
784.863
784.851
784.839
784.827
784.815
784.803
784.791
784.779
784.767
784.755
784.743
784.731
784.72
784.708
784.696
784.685
784.673
784.662
784.65
784.639
784.628
784.616
784.605
784.594
784.583
784.571
784.56
784.549
784.538
784.527
784.517
784.506
784.495
784.484
784.474
784.463
784.452
784.442
784.431
784.421
784.41
784.4
784.39
784.379
784.369
784.359
784.348
784.339
784.328
784.32
784.308
784.3
784.288
784.28
784.269
784.261
784.249
784.242
784.23
784.223
784.211
784.204
784.192
784.185
784.174
784.167
784.155
784.148
784.137
784.13
784.119
784.112
784.102
789.512
789.483
789.43
789.374
789.316
789.257
789.196
789.134
789.071
789.008
788.945
788.883
788.821
788.761
788.702
788.646
788.591
788.539
788.489
788.442
788.398
788.357
788.319
788.283
788.25
788.221
788.194
788.17
788.148
788.128
788.112
788.097
788.086
788.076
788.067
788.06
788.054
788.049
788.044
788.041
788.038
788.035
788.032
788.03
788.027
788.024
788.022
788.019
788.016
788.013
788.01
788.007
788.003
788
787.996
787.993
787.989
787.985
787.981
787.977
787.973
787.969
787.965
787.96
787.956
787.951
787.946
787.941
787.937
787.932
787.926
787.921
787.916
787.911
787.905
787.899
787.894
787.888
787.882
787.876
787.87
787.864
787.858
787.851
787.845
787.838
787.832
787.825
787.818
787.811
787.804
787.797
787.79
787.783
787.775
787.768
787.761
787.753
787.745
787.737
787.729
787.721
787.713
787.705
787.698
787.69
787.682
787.674
787.666
787.658
787.649
787.641
787.632
787.623
787.614
787.604
787.595
787.585
787.575
787.565
787.555
787.546
787.536
787.526
787.516
787.507
787.497
787.488
787.478
787.468
787.459
787.449
787.438
787.428
787.418
787.407
787.397
787.386
787.375
787.364
787.354
787.343
787.332
787.32
787.309
787.297
787.285
787.274
787.262
787.25
787.238
787.226
787.214
787.202
787.191
787.179
787.168
787.156
787.145
787.133
787.122
787.11
787.098
787.086
787.073
787.061
787.048
787.035
787.022
787.01
786.997
786.984
786.971
786.958
786.945
786.932
786.919
786.906
786.894
786.881
786.868
786.855
786.842
786.829
786.815
786.802
786.789
786.776
786.763
786.749
786.736
786.723
786.71
786.696
786.683
786.669
786.656
786.642
786.629
786.615
786.601
786.588
786.574
786.56
786.547
786.533
786.519
786.506
786.492
786.478
786.464
786.45
786.436
786.422
786.408
786.394
786.381
786.367
786.353
786.339
786.324
786.31
786.296
786.282
786.268
786.254
786.24
786.226
786.212
786.198
786.183
786.169
786.155
786.141
786.127
786.113
786.098
786.084
786.07
786.056
786.042
786.027
786.013
785.999
785.985
785.971
785.956
785.942
785.928
785.914
785.899
785.885
785.871
785.857
785.843
785.829
785.814
785.8
785.786
785.772
785.758
785.744
785.73
785.715
785.701
785.687
785.673
785.659
785.645
785.631
785.617
785.603
785.589
785.575
785.561
785.547
785.534
785.52
785.506
785.492
785.478
785.464
785.451
785.437
785.423
785.41
785.396
785.382
785.369
785.355
785.341
785.328
785.314
785.301
785.287
785.274
785.261
785.247
785.234
785.221
785.207
785.194
785.181
785.168
785.155
785.142
785.129
785.116
785.103
785.09
785.077
785.064
785.051
785.038
785.025
785.013
785
784.987
784.975
784.962
784.95
784.937
784.925
784.912
784.9
784.888
784.875
784.863
784.851
784.839
784.827
784.815
784.803
784.791
784.779
784.767
784.755
784.743
784.731
784.72
784.708
784.696
784.685
784.673
784.662
784.65
784.639
784.628
784.616
784.605
784.594
784.583
784.572
784.56
784.549
784.538
784.527
784.517
784.506
784.495
784.484
784.474
784.463
784.452
784.442
784.431
784.421
784.41
784.4
784.39
784.379
784.369
784.359
784.348
784.339
784.328
784.32
784.308
784.3
784.288
784.28
784.269
784.261
784.249
784.242
784.23
784.223
784.211
784.204
784.192
784.185
784.174
784.167
784.155
784.148
784.137
784.13
784.119
784.112
784.102
789.522
789.493
789.44
789.384
789.326
789.266
789.205
789.143
789.08
789.017
788.954
788.892
788.831
788.77
788.712
788.655
788.6
788.548
788.498
788.451
788.407
788.366
788.328
788.292
788.259
788.229
788.203
788.179
788.157
788.137
788.12
788.106
788.094
788.085
788.076
788.069
788.063
788.058
788.053
788.05
788.046
788.044
788.041
788.038
788.036
788.033
788.03
788.027
788.025
788.022
788.018
788.015
788.012
788.008
788.005
788.001
787.998
787.994
787.99
787.986
787.982
787.977
787.973
787.969
787.964
787.959
787.955
787.95
787.945
787.94
787.935
787.929
787.924
787.919
787.913
787.908
787.902
787.896
787.89
787.884
787.878
787.872
787.866
787.859
787.853
787.846
787.839
787.833
787.826
787.819
787.812
787.805
787.798
787.79
787.783
787.776
787.768
787.761
787.753