/*--------------------------------*- C++ -*----------------------------------*\
| =========                 |                                                 |
| \\      /  F ield         | OpenFOAM: The Open Source CFD Toolbox           |
|  \\    /   O peration     | Version:  3.0.x                                 |
|   \\  /    A nd           | Web:      www.OpenFOAM.org                      |
|    \\/     M anipulation  |                                                 |
\*---------------------------------------------------------------------------*/
FoamFile
{
    version     2.0;
    format      ascii;
    class       volVectorField;
    location    "0.6";
    object      U;
}
// * * * * * * * * * * * * * * * * * * * * * * * * * * * * * * * * * * * * * //

dimensions      [0 1 -1 0 0 0 0];

internalField   nonuniform List<vector> 
27600
(
(42.6426 0.000118711 0)
(42.5028 0.000109748 0)
(42.3382 0.000109078 0)
(42.1816 0.000112377 0)
(42.0335 0.000115405 0)
(41.8872 0.000118005 0)
(41.7401 0.000120377 0)
(41.5922 0.000122559 0)
(41.4442 0.000124569 0)
(41.2964 0.000126433 0)
(41.1488 0.000128173 0)
(41.0012 0.000129803 0)
(40.8537 0.000131334 0)
(40.7062 0.000132774 0)
(40.5588 0.00013413 0)
(40.4115 0.000135404 0)
(40.2643 0.000136602 0)
(40.1171 0.000137724 0)
(39.9701 0.000138774 0)
(39.8231 0.000139754 0)
(39.6762 0.000140664 0)
(39.5293 0.000141507 0)
(39.3826 0.000142282 0)
(39.236 0.000142993 0)
(39.0895 0.000143643 0)
(38.943 0.000144232 0)
(38.7967 0.000144764 0)
(38.6505 0.000145239 0)
(38.5044 0.000145662 0)
(38.3584 0.000146036 0)
(38.2125 0.000146362 0)
(38.0667 0.000146644 0)
(37.9211 0.000146886 0)
(37.7755 0.000147091 0)
(37.6301 0.000147263 0)
(37.4848 0.000147404 0)
(37.3396 0.000147518 0)
(37.1946 0.000147608 0)
(37.0497 0.000147678 0)
(36.9049 0.00014773 0)
(36.7603 0.000147766 0)
(36.6158 0.000147789 0)
(36.4714 0.000147801 0)
(36.3272 0.000147805 0)
(36.1831 0.000147801 0)
(36.0392 0.00014779 0)
(35.8954 0.000147775 0)
(35.7517 0.000147756 0)
(35.6082 0.000147734 0)
(35.4649 0.000147708 0)
(35.3217 0.000147681 0)
(35.1787 0.000147652 0)
(35.0358 0.000147622 0)
(34.8931 0.00014759 0)
(34.7505 0.000147557 0)
(34.6081 0.000147523 0)
(34.4659 0.000147489 0)
(34.3238 0.000147453 0)
(34.1819 0.000147418 0)
(34.0402 0.000147381 0)
(33.8986 0.000147344 0)
(33.7573 0.000147306 0)
(33.6161 0.000147268 0)
(33.475 0.00014723 0)
(33.3342 0.000147191 0)
(33.1935 0.000147152 0)
(33.053 0.000147112 0)
(32.9127 0.000147072 0)
(32.7726 0.000147031 0)
(32.6327 0.00014699 0)
(32.4929 0.000146949 0)
(32.3534 0.000146908 0)
(32.214 0.000146866 0)
(32.0748 0.000146824 0)
(31.9359 0.000146782 0)
(31.7971 0.000146739 0)
(31.6585 0.000146696 0)
(31.5201 0.000146653 0)
(31.382 0.00014661 0)
(31.244 0.000146566 0)
(31.1063 0.000146523 0)
(30.9687 0.000146478 0)
(30.8314 0.000146434 0)
(30.6942 0.000146389 0)
(30.5573 0.000146344 0)
(30.4206 0.000146299 0)
(30.2841 0.000146254 0)
(30.1478 0.000146209 0)
(30.0118 0.000146163 0)
(29.876 0.000146117 0)
(29.7404 0.000146071 0)
(29.605 0.000146024 0)
(29.4698 0.000145977 0)
(29.3349 0.00014593 0)
(29.2002 0.000145882 0)
(29.0657 0.000145835 0)
(28.9315 0.000145789 0)
(28.7975 0.000145743 0)
(28.6637 0.000145695 0)
(28.5302 0.000145648 0)
(28.3969 0.0001456 0)
(28.2639 0.000145551 0)
(28.1311 0.000145502 0)
(27.9985 0.000145452 0)
(27.8662 0.000145401 0)
(27.7341 0.000145348 0)
(27.6023 0.000145293 0)
(27.4707 0.000145238 0)
(27.3394 0.000145183 0)
(27.2084 0.000145128 0)
(27.0776 0.000145076 0)
(26.947 0.000145025 0)
(26.8167 0.000144974 0)
(26.6867 0.000144924 0)
(26.5569 0.000144877 0)
(26.4274 0.000144832 0)
(26.2982 0.00014479 0)
(26.1692 0.00014475 0)
(26.0405 0.00014471 0)
(25.9121 0.000144669 0)
(25.7839 0.000144626 0)
(25.6561 0.000144582 0)
(25.5284 0.000144535 0)
(25.4011 0.000144485 0)
(25.274 0.000144433 0)
(25.1473 0.000144379 0)
(25.0208 0.000144323 0)
(24.8945 0.000144266 0)
(24.7686 0.000144207 0)
(24.643 0.00014415 0)
(24.5176 0.000144097 0)
(24.3925 0.000144046 0)
(24.2677 0.000143996 0)
(24.1433 0.000143946 0)
(24.0191 0.000143898 0)
(23.8951 0.000143849 0)
(23.7715 0.000143798 0)
(23.6482 0.000143745 0)
(23.5252 0.00014369 0)
(23.4025 0.000143636 0)
(23.2801 0.000143582 0)
(23.158 0.000143529 0)
(23.0362 0.000143476 0)
(22.9147 0.000143423 0)
(22.7935 0.000143371 0)
(22.6726 0.000143321 0)
(22.552 0.000143273 0)
(22.4317 0.000143224 0)
(22.3118 0.000143171 0)
(22.1922 0.000143108 0)
(22.0728 0.000143031 0)
(21.9538 0.000142941 0)
(21.8351 0.000142831 0)
(21.7168 0.0001427 0)
(21.5987 0.000142541 0)
(21.481 0.000142349 0)
(21.3636 0.000142118 0)
(21.2465 0.000141845 0)
(21.1298 0.000141525 0)
(21.0134 0.000141153 0)
(20.8973 0.000140721 0)
(20.7816 0.000140223 0)
(20.6662 0.000139649 0)
(20.5511 0.000138988 0)
(20.4364 0.000138229 0)
(20.322 0.000137359 0)
(20.208 0.000136364 0)
(20.0943 0.000135229 0)
(19.981 0.00013394 0)
(19.8681 0.000132481 0)
(19.7555 0.00013084 0)
(19.6432 0.000129005 0)
(19.5314 0.000126965 0)
(19.4199 0.000124712 0)
(19.3088 0.000122241 0)
(19.1981 0.000119548 0)
(19.0877 0.000116631 0)
(18.9778 0.000113493 0)
(18.8682 0.000110137 0)
(18.7591 0.00010657 0)
(18.6503 0.000102803 0)
(18.542 9.88462e-05 0)
(18.4341 9.4716e-05 0)
(18.3265 9.04285e-05 0)
(18.2194 8.60029e-05 0)
(18.1127 8.14605e-05 0)
(18.0065 7.68246e-05 0)
(17.9006 7.21201e-05 0)
(17.7952 6.73726e-05 0)
(17.6902 6.26088e-05 0)
(17.5857 5.7855e-05 0)
(17.4815 5.31374e-05 0)
(17.3778 4.84818e-05 0)
(17.2746 4.39125e-05 0)
(17.1717 3.94526e-05 0)
(17.0693 3.5123e-05 0)
(16.9672 3.09421e-05 0)
(16.8657 2.69251e-05 0)
(16.7645 2.30838e-05 0)
(16.6637 1.94266e-05 0)
(16.5634 1.59584e-05 0)
(16.4635 1.26779e-05 0)
(16.3639 9.57317e-06 0)
(16.2648 6.60596e-06 0)
(16.1661 3.63369e-06 0)
(16.0678 1.0371e-06 0)
(15.9699 -9.6547e-07 0)
(15.8724 -2.80142e-06 0)
(15.7753 -4.46937e-06 0)
(15.6786 -5.96954e-06 0)
(15.5822 -7.30963e-06 0)
(15.4863 -8.49974e-06 0)
(15.3907 -9.55022e-06 0)
(15.2956 -1.04728e-05 0)
(15.2008 -1.12781e-05 0)
(15.1064 -1.19771e-05 0)
(15.0124 -1.25805e-05 0)
(14.9187 -1.30983e-05 0)
(14.8255 -1.35403e-05 0)
(14.7326 -1.39152e-05 0)
(14.6401 -1.42313e-05 0)
(14.548 -1.44961e-05 0)
(14.4562 -1.47165e-05 0)
(14.3649 -1.48984e-05 0)
(14.2739 -1.50476e-05 0)
(14.1832 -1.5169e-05 0)
(14.093 -1.52664e-05 0)
(14.0031 -1.53438e-05 0)
(13.9137 -1.54044e-05 0)
(13.8245 -1.54511e-05 0)
(13.7358 -1.54862e-05 0)
(13.6474 -1.55116e-05 0)
(13.5594 -1.55291e-05 0)
(13.4718 -1.55402e-05 0)
(13.3846 -1.55459e-05 0)
(13.2977 -1.55473e-05 0)
(13.2112 -1.55453e-05 0)
(13.1251 -1.55406e-05 0)
(13.0393 -1.55334e-05 0)
(12.9539 -1.55243e-05 0)
(12.8689 -1.55138e-05 0)
(12.7843 -1.55022e-05 0)
(12.7 -1.54896e-05 0)
(12.6161 -1.54763e-05 0)
(12.5326 -1.54623e-05 0)
(12.4494 -1.54477e-05 0)
(12.3666 -1.54327e-05 0)
(12.2842 -1.54173e-05 0)
(12.2021 -1.54018e-05 0)
(12.1204 -1.5386e-05 0)
(12.0391 -1.53698e-05 0)
(11.9581 -1.53533e-05 0)
(11.8775 -1.53367e-05 0)
(11.7973 -1.53199e-05 0)
(11.7174 -1.5303e-05 0)
(11.6379 -1.52859e-05 0)
(11.5588 -1.52687e-05 0)
(11.48 -1.52513e-05 0)
(11.4016 -1.52338e-05 0)
(11.3235 -1.5216e-05 0)
(11.2458 -1.51982e-05 0)
(11.1685 -1.51804e-05 0)
(11.0915 -1.51622e-05 0)
(11.0148 -1.51438e-05 0)
(10.9386 -1.51254e-05 0)
(10.8626 -1.51069e-05 0)
(10.7871 -1.50883e-05 0)
(10.7119 -1.50696e-05 0)
(10.637 -1.50508e-05 0)
(10.5625 -1.50318e-05 0)
(10.4883 -1.50127e-05 0)
(10.4145 -1.49933e-05 0)
(10.341 -1.4974e-05 0)
(10.2679 -1.49546e-05 0)
(10.1951 -1.49348e-05 0)
(10.1227 -1.4915e-05 0)
(10.0506 -1.48951e-05 0)
(9.97886 -1.48751e-05 0)
(9.90745 -1.48551e-05 0)
(9.83639 -1.48349e-05 0)
(9.76566 -1.48146e-05 0)
(9.69528 -1.47942e-05 0)
(9.62523 -1.47737e-05 0)
(9.55551 -1.4753e-05 0)
(9.48614 -1.47327e-05 0)
(9.41709 -1.47119e-05 0)
(9.34838 -1.46908e-05 0)
(9.28 -1.46697e-05 0)
(9.21194 -1.46486e-05 0)
(9.14422 -1.46274e-05 0)
(9.07683 -1.4606e-05 0)
(9.00976 -1.45846e-05 0)
(8.94302 -1.45632e-05 0)
(8.8766 -1.45416e-05 0)
(8.81051 -1.452e-05 0)
(8.74474 -1.44982e-05 0)
(8.67929 -1.4477e-05 0)
(8.61416 -1.44549e-05 0)
(8.54934 -1.44328e-05 0)
(8.48485 -1.44107e-05 0)
(8.42067 -1.43886e-05 0)
(8.35681 -1.43664e-05 0)
(8.29326 -1.43441e-05 0)
(8.23003 -1.43218e-05 0)
(8.1671 -1.42994e-05 0)
(8.10449 -1.4277e-05 0)
(8.04219 -1.42544e-05 0)
(7.9802 -1.42321e-05 0)
(7.91851 -1.42097e-05 0)
(7.85714 -1.41869e-05 0)
(7.79606 -1.41641e-05 0)
(7.7353 -1.41414e-05 0)
(7.67483 -1.41186e-05 0)
(7.61467 -1.40958e-05 0)
(7.55481 -1.40729e-05 0)
(7.49525 -1.40499e-05 0)
(7.43599 -1.40269e-05 0)
(7.37703 -1.40039e-05 0)
(7.31837 -1.39807e-05 0)
(7.26001 -1.39582e-05 0)
(7.20194 -1.39349e-05 0)
(7.14416 -1.39116e-05 0)
(7.08668 -1.38885e-05 0)
(7.02949 -1.38654e-05 0)
(6.9726 -1.38422e-05 0)
(6.91599 -1.3819e-05 0)
(6.85968 -1.37958e-05 0)
(6.80366 -1.37725e-05 0)
(6.74792 -1.37492e-05 0)
(6.69247 -1.37257e-05 0)
(6.63732 -1.37032e-05 0)
(6.58244 -1.36796e-05 0)
(6.52786 -1.36562e-05 0)
(6.47355 -1.36329e-05 0)
(6.41953 -1.36096e-05 0)
(6.3658 -1.35863e-05 0)
(6.31235 -1.3563e-05 0)
(6.25918 -1.35398e-05 0)
(6.20629 -1.35166e-05 0)
(6.15368 -1.34934e-05 0)
(6.10135 -1.34698e-05 0)
(6.0493 -1.34474e-05 0)
(5.99753 -1.34238e-05 0)
(5.94603 -1.34004e-05 0)
(5.89482 -1.33772e-05 0)
(5.84388 -1.33541e-05 0)
(5.79321 -1.33311e-05 0)
(5.74283 -1.3308e-05 0)
(5.69271 -1.3285e-05 0)
(5.64287 -1.3262e-05 0)
(5.59331 -1.32389e-05 0)
(5.54401 -1.32155e-05 0)
(5.49499 -1.31933e-05 0)
(5.44624 -1.31699e-05 0)
(5.39777 -1.31468e-05 0)
(5.34956 -1.31238e-05 0)
(5.30162 -1.31011e-05 0)
(5.25396 -1.30782e-05 0)
(5.20656 -1.30558e-05 0)
(5.15942 -1.30327e-05 0)
(5.11256 -1.3011e-05 0)
(5.06596 -1.29872e-05 0)
(5.01963 -1.29661e-05 0)
(4.97357 -1.29417e-05 0)
(4.92777 -1.29226e-05 0)
(4.88223 -1.28948e-05 0)
(4.83696 -1.28796e-05 0)
(4.79195 -1.28481e-05 0)
(4.74721 -1.28378e-05 0)
(4.70273 -1.28018e-05 0)
(4.65851 -1.27958e-05 0)
(4.61455 -1.27568e-05 0)
(4.57086 -1.27515e-05 0)
(4.52743 -1.2714e-05 0)
(4.48426 -1.27029e-05 0)
(4.44135 -1.26741e-05 0)
(4.3987 -1.26516e-05 0)
(4.35632 -1.26364e-05 0)
(4.31419 -1.26022e-05 0)
(4.27232 -1.26004e-05 0)
(4.23071 -1.25519e-05 0)
(4.18935 -1.256e-05 0)
(4.14825 -1.24987e-05 0)
(4.1074 -1.25023e-05 0)
(4.06681 -1.24204e-05 0)
(4.02647 -1.23729e-05 0)
(3.98639 -1.21832e-05 0)
(3.94654 -1.18801e-05 0)
(3.90694 -1.117e-05 0)
(3.86756 -9.84542e-06 0)
(3.82837 -6.6698e-06 0)
(3.78928 1.45351e-06 0)
(3.75013 2.00589e-05 0)
(3.71049 6.25706e-05 0)
(3.66939 0.000162147 0)
(3.62451 0.000402189 0)
(3.5706 0.00107598 0)
(3.48685 0.00272726 0)
(3.37771 0.0108319 0)
(2.91943 0.0246725 0)
(42.6444 0.000191187 0)
(42.5064 0.000155733 0)
(42.3435 0.00014229 0)
(42.1888 0.000141523 0)
(42.0425 0.00014129 0)
(41.8981 0.00014088 0)
(41.7528 0.000140768 0)
(41.6068 0.000140911 0)
(41.4607 0.000141209 0)
(41.3149 0.000141623 0)
(41.1691 0.000142133 0)
(41.0235 0.000142716 0)
(40.878 0.000143353 0)
(40.7325 0.000144028 0)
(40.5871 0.000144727 0)
(40.4418 0.000145438 0)
(40.2965 0.00014615 0)
(40.1514 0.000146855 0)
(40.0064 0.000147546 0)
(39.8615 0.000148214 0)
(39.7166 0.000148857 0)
(39.5719 0.000149471 0)
(39.4272 0.000150045 0)
(39.2827 0.000150584 0)
(39.1383 0.000151085 0)
(38.994 0.000151547 0)
(38.8498 0.000151968 0)
(38.7057 0.000152349 0)
(38.5617 0.00015269 0)
(38.4178 0.000152993 0)
(38.2741 0.000153259 0)
(38.1304 0.000153489 0)
(37.9869 0.000153687 0)
(37.8435 0.000153854 0)
(37.7003 0.000153993 0)
(37.5571 0.000154107 0)
(37.4141 0.000154198 0)
(37.2712 0.00015427 0)
(37.1285 0.000154324 0)
(36.9859 0.000154363 0)
(36.8434 0.00015439 0)
(36.701 0.000154407 0)
(36.5588 0.000154415 0)
(36.4167 0.000154416 0)
(36.2748 0.000154411 0)
(36.133 0.000154403 0)
(35.9914 0.000154391 0)
(35.8499 0.000154376 0)
(35.7086 0.000154359 0)
(35.5674 0.000154341 0)
(35.4264 0.000154322 0)
(35.2855 0.000154301 0)
(35.1448 0.00015428 0)
(35.0042 0.000154259 0)
(34.8638 0.000154237 0)
(34.7236 0.000154214 0)
(34.5835 0.000154192 0)
(34.4436 0.000154168 0)
(34.3038 0.000154145 0)
(34.1643 0.000154121 0)
(34.0249 0.000154097 0)
(33.8856 0.000154072 0)
(33.7466 0.000154047 0)
(33.6077 0.000154022 0)
(33.469 0.000153996 0)
(33.3305 0.00015397 0)
(33.1921 0.000153944 0)
(33.054 0.000153916 0)
(32.916 0.000153889 0)
(32.7782 0.000153861 0)
(32.6406 0.000153833 0)
(32.5032 0.000153804 0)
(32.366 0.000153775 0)
(32.229 0.000153745 0)
(32.0922 0.000153715 0)
(31.9555 0.000153684 0)
(31.8191 0.000153653 0)
(31.6829 0.000153622 0)
(31.5469 0.00015359 0)
(31.411 0.000153558 0)
(31.2754 0.000153525 0)
(31.14 0.000153491 0)
(31.0048 0.000153457 0)
(30.8698 0.000153422 0)
(30.7351 0.000153388 0)
(30.6005 0.000153353 0)
(30.4661 0.000153317 0)
(30.332 0.00015328 0)
(30.1981 0.000153244 0)
(30.0644 0.000153206 0)
(29.9309 0.000153168 0)
(29.7977 0.000153131 0)
(29.6647 0.000153091 0)
(29.5319 0.000153051 0)
(29.3993 0.00015301 0)
(29.267 0.000152971 0)
(29.1349 0.000152933 0)
(29.003 0.000152893 0)
(28.8714 0.000152852 0)
(28.74 0.00015281 0)
(28.6088 0.000152767 0)
(28.4779 0.000152723 0)
(28.3473 0.000152679 0)
(28.2168 0.000152633 0)
(28.0867 0.000152587 0)
(27.9567 0.000152538 0)
(27.827 0.000152487 0)
(27.6976 0.000152434 0)
(27.5684 0.000152382 0)
(27.4395 0.000152332 0)
(27.3108 0.000152283 0)
(27.1824 0.000152235 0)
(27.0542 0.000152187 0)
(26.9263 0.000152139 0)
(26.7987 0.000152094 0)
(26.6713 0.000152052 0)
(26.5442 0.000152012 0)
(26.4173 0.000151975 0)
(26.2908 0.000151937 0)
(26.1644 0.000151896 0)
(26.0384 0.000151853 0)
(25.9126 0.000151808 0)
(25.7871 0.00015176 0)
(25.6619 0.000151709 0)
(25.537 0.000151656 0)
(25.4123 0.000151601 0)
(25.2879 0.000151545 0)
(25.1638 0.000151485 0)
(25.04 0.000151424 0)
(24.9165 0.000151365 0)
(24.7932 0.00015131 0)
(24.6703 0.000151257 0)
(24.5476 0.000151204 0)
(24.4252 0.000151151 0)
(24.3031 0.000151099 0)
(24.1813 0.000151045 0)
(24.0598 0.000150989 0)
(23.9386 0.00015093 0)
(23.8177 0.00015087 0)
(23.6971 0.000150812 0)
(23.5768 0.000150754 0)
(23.4568 0.000150698 0)
(23.3371 0.00015064 0)
(23.2177 0.000150579 0)
(23.0986 0.000150519 0)
(22.9798 0.00015046 0)
(22.8614 0.000150405 0)
(22.7432 0.000150348 0)
(22.6254 0.000150283 0)
(22.5078 0.000150204 0)
(22.3906 0.000150108 0)
(22.2737 0.000149993 0)
(22.1571 0.000149856 0)
(22.0408 0.000149693 0)
(21.9249 0.000149496 0)
(21.8093 0.000149258 0)
(21.694 0.000148973 0)
(21.579 0.000148636 0)
(21.4643 0.000148242 0)
(21.35 0.000147786 0)
(21.236 0.000147259 0)
(21.1223 0.000146651 0)
(21.009 0.00014595 0)
(20.896 0.000145146 0)
(20.7833 0.000144224 0)
(20.6709 0.000143169 0)
(20.5589 0.000141968 0)
(20.4472 0.000140603 0)
(20.3359 0.00013906 0)
(20.2249 0.000137321 0)
(20.1142 0.000135375 0)
(20.0039 0.000133209 0)
(19.894 0.000130814 0)
(19.7843 0.000128182 0)
(19.675 0.00012531 0)
(19.5661 0.000122195 0)
(19.4575 0.00011884 0)
(19.3492 0.000115248 0)
(19.2413 0.000111427 0)
(19.1338 0.000107387 0)
(19.0266 0.000103141 0)
(18.9197 9.87064e-05 0)
(18.8132 9.4102e-05 0)
(18.7071 8.93486e-05 0)
(18.6013 8.44695e-05 0)
(18.4958 7.94906e-05 0)
(18.3907 7.44389e-05 0)
(18.286 6.93432e-05 0)
(18.1816 6.42322e-05 0)
(18.0776 5.91355e-05 0)
(17.9739 5.40814e-05 0)
(17.8706 4.90976e-05 0)
(17.7677 4.4211e-05 0)
(17.6651 3.94459e-05 0)
(17.5628 3.48245e-05 0)
(17.461 3.03678e-05 0)
(17.3594 2.60964e-05 0)
(17.2583 2.20272e-05 0)
(17.1575 1.81737e-05 0)
(17.0571 1.45469e-05 0)
(16.957 1.11564e-05 0)
(16.8573 8.01285e-06 0)
(16.758 5.13014e-06 0)
(16.659 2.55145e-06 0)
(16.5604 4.95332e-07 0)
(16.4621 -1.98382e-06 0)
(16.3642 -3.98969e-06 0)
(16.2667 -5.84447e-06 0)
(16.1696 -7.52162e-06 0)
(16.0728 -9.01905e-06 0)
(15.9764 -1.03469e-05 0)
(15.8804 -1.15178e-05 0)
(15.7847 -1.25437e-05 0)
(15.6894 -1.34385e-05 0)
(15.5945 -1.42143e-05 0)
(15.4999 -1.48832e-05 0)
(15.4057 -1.54568e-05 0)
(15.3119 -1.59463e-05 0)
(15.2185 -1.63615e-05 0)
(15.1254 -1.67117e-05 0)
(15.0327 -1.70054e-05 0)
(14.9404 -1.72501e-05 0)
(14.8485 -1.74527e-05 0)
(14.7569 -1.76192e-05 0)
(14.6657 -1.77551e-05 0)
(14.5749 -1.78653e-05 0)
(14.4845 -1.79532e-05 0)
(14.3944 -1.80228e-05 0)
(14.3047 -1.8077e-05 0)
(14.2154 -1.81187e-05 0)
(14.1264 -1.81499e-05 0)
(14.0378 -1.81724e-05 0)
(13.9496 -1.81878e-05 0)
(13.8618 -1.81974e-05 0)
(13.7743 -1.82023e-05 0)
(13.6872 -1.82034e-05 0)
(13.6005 -1.82014e-05 0)
(13.5142 -1.81971e-05 0)
(13.4282 -1.81904e-05 0)
(13.3426 -1.8182e-05 0)
(13.2574 -1.81724e-05 0)
(13.1725 -1.81616e-05 0)
(13.0881 -1.815e-05 0)
(13.0039 -1.81376e-05 0)
(12.9202 -1.81246e-05 0)
(12.8368 -1.81109e-05 0)
(12.7538 -1.80968e-05 0)
(12.6712 -1.80822e-05 0)
(12.5889 -1.80674e-05 0)
(12.507 -1.80523e-05 0)
(12.4255 -1.80366e-05 0)
(12.3443 -1.80206e-05 0)
(12.2635 -1.80044e-05 0)
(12.183 -1.79879e-05 0)
(12.103 -1.79712e-05 0)
(12.0232 -1.79542e-05 0)
(11.9439 -1.7937e-05 0)
(11.8649 -1.79195e-05 0)
(11.7863 -1.79017e-05 0)
(11.708 -1.78836e-05 0)
(11.6301 -1.78654e-05 0)
(11.5525 -1.78472e-05 0)
(11.4753 -1.78282e-05 0)
(11.3985 -1.78091e-05 0)
(11.322 -1.77899e-05 0)
(11.2459 -1.77705e-05 0)
(11.1701 -1.77508e-05 0)
(11.0947 -1.7731e-05 0)
(11.0196 -1.77109e-05 0)
(10.9449 -1.76906e-05 0)
(10.8705 -1.767e-05 0)
(10.7965 -1.76491e-05 0)
(10.7228 -1.76282e-05 0)
(10.6495 -1.76071e-05 0)
(10.5765 -1.75854e-05 0)
(10.5038 -1.75636e-05 0)
(10.4316 -1.75417e-05 0)
(10.3596 -1.75196e-05 0)
(10.288 -1.74973e-05 0)
(10.2167 -1.74748e-05 0)
(10.1458 -1.74521e-05 0)
(10.0752 -1.74292e-05 0)
(10.005 -1.74061e-05 0)
(9.93503 -1.73827e-05 0)
(9.86545 -1.73597e-05 0)
(9.7962 -1.7336e-05 0)
(9.72729 -1.73119e-05 0)
(9.65871 -1.72878e-05 0)
(9.59045 -1.72635e-05 0)
(9.52253 -1.72391e-05 0)
(9.45493 -1.72144e-05 0)
(9.38766 -1.71896e-05 0)
(9.32072 -1.71647e-05 0)
(9.2541 -1.71396e-05 0)
(9.18781 -1.71143e-05 0)
(9.12184 -1.70887e-05 0)
(9.05619 -1.70638e-05 0)
(8.99086 -1.70377e-05 0)
(8.92585 -1.70116e-05 0)
(8.86115 -1.69855e-05 0)
(8.79678 -1.69593e-05 0)
(8.73271 -1.69329e-05 0)
(8.66897 -1.69064e-05 0)
(8.60554 -1.68797e-05 0)
(8.54242 -1.68529e-05 0)
(8.47961 -1.6826e-05 0)
(8.41711 -1.67989e-05 0)
(8.35492 -1.6772e-05 0)
(8.29304 -1.6745e-05 0)
(8.23146 -1.67173e-05 0)
(8.17019 -1.66898e-05 0)
(8.10923 -1.66622e-05 0)
(8.04857 -1.66345e-05 0)
(7.98821 -1.66066e-05 0)
(7.92816 -1.65787e-05 0)
(7.86841 -1.65506e-05 0)
(7.80895 -1.65225e-05 0)
(7.7498 -1.64942e-05 0)
(7.69094 -1.64658e-05 0)
(7.63238 -1.64381e-05 0)
(7.57412 -1.64092e-05 0)
(7.51615 -1.63806e-05 0)
(7.45848 -1.6352e-05 0)
(7.4011 -1.63234e-05 0)
(7.34401 -1.62947e-05 0)
(7.28721 -1.62659e-05 0)
(7.23071 -1.6237e-05 0)
(7.17449 -1.6208e-05 0)
(7.11857 -1.6179e-05 0)
(7.06293 -1.61496e-05 0)
(7.00758 -1.61215e-05 0)
(6.95252 -1.60919e-05 0)
(6.89774 -1.60626e-05 0)
(6.84325 -1.60334e-05 0)
(6.78904 -1.60041e-05 0)
(6.73511 -1.59748e-05 0)
(6.68147 -1.59456e-05 0)
(6.62811 -1.59163e-05 0)
(6.57503 -1.5887e-05 0)
(6.52224 -1.58576e-05 0)
(6.46972 -1.58278e-05 0)
(6.41748 -1.57994e-05 0)
(6.36552 -1.57695e-05 0)
(6.31384 -1.57398e-05 0)
(6.26244 -1.57104e-05 0)
(6.21131 -1.56811e-05 0)
(6.16046 -1.56517e-05 0)
(6.10989 -1.56224e-05 0)
(6.05959 -1.5593e-05 0)
(6.00957 -1.55636e-05 0)
(5.95981 -1.55341e-05 0)
(5.91034 -1.55042e-05 0)
(5.86113 -1.54758e-05 0)
(5.8122 -1.54458e-05 0)
(5.76354 -1.54163e-05 0)
(5.71514 -1.53868e-05 0)
(5.66702 -1.53578e-05 0)
(5.61917 -1.5328e-05 0)
(5.57159 -1.52995e-05 0)
(5.52428 -1.52693e-05 0)
(5.47723 -1.52417e-05 0)
(5.43045 -1.52102e-05 0)
(5.38394 -1.51841e-05 0)
(5.33769 -1.51507e-05 0)
(5.29171 -1.51279e-05 0)
(5.24599 -1.5089e-05 0)
(5.20054 -1.50721e-05 0)
(5.15535 -1.50273e-05 0)
(5.11042 -1.50166e-05 0)
(5.06576 -1.49666e-05 0)
(5.02136 -1.49592e-05 0)
(4.97723 -1.49105e-05 0)
(4.93336 -1.48973e-05 0)
(4.88975 -1.48615e-05 0)
(4.8464 -1.48317e-05 0)
(4.80331 -1.48169e-05 0)
(4.76049 -1.47666e-05 0)
(4.71792 -1.47654e-05 0)
(4.67561 -1.47062e-05 0)
(4.63357 -1.47102e-05 0)
(4.59178 -1.46353e-05 0)
(4.55024 -1.46452e-05 0)
(4.50897 -1.45492e-05 0)
(4.46795 -1.45282e-05 0)
(4.42718 -1.43487e-05 0)
(4.38666 -1.41484e-05 0)
(4.3464 -1.35718e-05 0)
(4.30639 -1.24424e-05 0)
(4.26661 -9.68707e-06 0)
(4.22706 -3.78683e-06 0)
(4.18771 8.36064e-06 0)
(4.14845 3.68305e-05 0)
(4.10912 0.000101893 0)
(4.06929 0.000250366 0)
(4.02798 0.000589469 0)
(3.98287 0.00134343 0)
(3.92858 0.00304503 0)
(3.84529 0.00683213 0)
(3.72577 0.020744 0)
(3.31915 0.041223 0)
(42.6444 0.000137036 0)
(42.5064 0.000110385 0)
(42.3435 9.87163e-05 0)
(42.1888 0.000101609 0)
(42.0425 0.000104159 0)
(41.8981 0.000105488 0)
(41.7528 0.000106699 0)
(41.6068 0.000107939 0)
(41.4607 0.000109137 0)
(41.3149 0.000110285 0)
(41.1691 0.000111394 0)
(41.0235 0.000112467 0)
(40.8779 0.000113505 0)
(40.7325 0.000114505 0)
(40.5871 0.000115467 0)
(40.4418 0.000116389 0)
(40.2965 0.00011727 0)
(40.1514 0.000118108 0)
(40.0064 0.000118903 0)
(39.8615 0.000119653 0)
(39.7166 0.000120357 0)
(39.5719 0.000121018 0)
(39.4272 0.000121628 0)
(39.2827 0.000122192 0)
(39.1383 0.000122713 0)
(38.994 0.00012319 0)
(38.8498 0.000123623 0)
(38.7057 0.000124013 0)
(38.5617 0.000124363 0)
(38.4178 0.000124674 0)
(38.2741 0.000124948 0)
(38.1305 0.000125187 0)
(37.987 0.000125395 0)
(37.8436 0.000125573 0)
(37.7003 0.000125725 0)
(37.5572 0.000125852 0)
(37.4142 0.000125957 0)
(37.2713 0.000126043 0)
(37.1285 0.000126113 0)
(36.9859 0.000126168 0)
(36.8434 0.000126211 0)
(36.7011 0.000126243 0)
(36.5589 0.000126267 0)
(36.4168 0.000126283 0)
(36.2749 0.000126294 0)
(36.1331 0.0001263 0)
(35.9915 0.000126302 0)
(35.85 0.0001263 0)
(35.7087 0.000126296 0)
(35.5675 0.00012629 0)
(35.4265 0.000126283 0)
(35.2856 0.000126274 0)
(35.1449 0.000126264 0)
(35.0043 0.000126253 0)
(34.8639 0.000126241 0)
(34.7237 0.000126229 0)
(34.5836 0.000126216 0)
(34.4437 0.000126202 0)
(34.304 0.000126188 0)
(34.1644 0.000126173 0)
(34.025 0.000126158 0)
(33.8858 0.000126142 0)
(33.7468 0.000126126 0)
(33.6079 0.00012611 0)
(33.4692 0.000126093 0)
(33.3307 0.000126076 0)
(33.1924 0.000126058 0)
(33.0542 0.00012604 0)
(32.9163 0.000126022 0)
(32.7785 0.000126003 0)
(32.6409 0.000125984 0)
(32.5035 0.000125964 0)
(32.3663 0.000125944 0)
(32.2293 0.000125924 0)
(32.0925 0.000125904 0)
(31.9558 0.000125883 0)
(31.8194 0.000125862 0)
(31.6832 0.00012584 0)
(31.5472 0.000125819 0)
(31.4114 0.000125796 0)
(31.2758 0.000125774 0)
(31.1404 0.000125751 0)
(31.0052 0.000125727 0)
(30.8702 0.000125704 0)
(30.7354 0.000125681 0)
(30.6009 0.000125656 0)
(30.4665 0.000125632 0)
(30.3324 0.000125607 0)
(30.1985 0.000125582 0)
(30.0648 0.000125556 0)
(29.9314 0.000125531 0)
(29.7981 0.000125505 0)
(29.6651 0.000125477 0)
(29.5324 0.00012545 0)
(29.3998 0.000125423 0)
(29.2675 0.000125396 0)
(29.1354 0.00012537 0)
(29.0035 0.000125343 0)
(28.8719 0.000125315 0)
(28.7405 0.000125286 0)
(28.6094 0.000125257 0)
(28.4785 0.000125227 0)
(28.3478 0.000125197 0)
(28.2174 0.000125166 0)
(28.0872 0.000125135 0)
(27.9573 0.000125102 0)
(27.8276 0.000125066 0)
(27.6982 0.00012503 0)
(27.569 0.000124994 0)
(27.4401 0.00012496 0)
(27.3115 0.000124927 0)
(27.1831 0.000124895 0)
(27.0549 0.000124862 0)
(26.927 0.000124829 0)
(26.7994 0.000124799 0)
(26.672 0.000124771 0)
(26.5449 0.000124746 0)
(26.4181 0.000124722 0)
(26.2915 0.000124697 0)
(26.1652 0.00012467 0)
(26.0392 0.000124642 0)
(25.9134 0.000124612 0)
(25.788 0.00012458 0)
(25.6628 0.000124546 0)
(25.5378 0.000124511 0)
(25.4132 0.000124474 0)
(25.2888 0.000124436 0)
(25.1647 0.000124396 0)
(25.0409 0.000124354 0)
(24.9174 0.000124314 0)
(24.7942 0.000124278 0)
(24.6712 0.000124242 0)
(24.5486 0.000124206 0)
(24.4262 0.00012417 0)
(24.3041 0.000124134 0)
(24.1823 0.000124098 0)
(24.0609 0.00012406 0)
(23.9397 0.00012402 0)
(23.8188 0.00012398 0)
(23.6982 0.000123941 0)
(23.5779 0.000123903 0)
(23.4579 0.000123866 0)
(23.3382 0.000123826 0)
(23.2188 0.000123785 0)
(23.0998 0.000123742 0)
(22.981 0.000123702 0)
(22.8626 0.000123663 0)
(22.7444 0.000123622 0)
(22.6266 0.000123573 0)
(22.5091 0.000123512 0)
(22.3919 0.000123436 0)
(22.275 0.000123344 0)
(22.1584 0.000123234 0)
(22.0421 0.000123102 0)
(21.9262 0.00012294 0)
(21.8106 0.000122742 0)
(21.6953 0.000122505 0)
(21.5803 0.000122223 0)
(21.4657 0.000121891 0)
(21.3514 0.000121505 0)
(21.2374 0.000121057 0)
(21.1237 0.000120538 0)
(21.0104 0.000119937 0)
(20.8974 0.000119246 0)
(20.7847 0.000118452 0)
(20.6724 0.000117543 0)
(20.5604 0.000116508 0)
(20.4487 0.000115331 0)
(20.3374 0.000114002 0)
(20.2264 0.000112506 0)
(20.1158 0.000110834 0)
(20.0054 0.000108976 0)
(19.8955 0.000106925 0)
(19.7858 0.000104675 0)
(19.6765 0.000102224 0)
(19.5676 9.95698e-05 0)
(19.459 9.67159e-05 0)
(19.3507 9.36663e-05 0)
(19.2428 9.04281e-05 0)
(19.1352 8.70106e-05 0)
(19.028 8.3426e-05 0)
(18.9211 7.96891e-05 0)
(18.8146 7.5817e-05 0)
(18.7084 7.18287e-05 0)
(18.6026 6.77454e-05 0)
(18.4972 6.35897e-05 0)
(18.392 5.93854e-05 0)
(18.2873 5.51569e-05 0)
(18.1829 5.09291e-05 0)
(18.0788 4.67268e-05 0)
(17.9751 4.25738e-05 0)
(17.8718 3.84933e-05 0)
(17.7688 3.45074e-05 0)
(17.6661 3.06358e-05 0)
(17.5639 2.68963e-05 0)
(17.462 2.33059e-05 0)
(17.3604 1.98818e-05 0)
(17.2592 1.6638e-05 0)
(17.1584 1.35857e-05 0)
(17.0579 1.07293e-05 0)
(16.9578 8.06801e-06 0)
(16.8581 5.59657e-06 0)
(16.7587 3.29864e-06 0)
(16.6597 1.14839e-06 0)
(16.5611 -7.07985e-07 0)
(16.4629 -2.55308e-06 0)
(16.365 -4.15888e-06 0)
(16.2674 -5.60015e-06 0)
(16.1703 -6.88405e-06 0)
(16.0735 -8.02141e-06 0)
(15.9771 -9.02544e-06 0)
(15.881 -9.9084e-06 0)
(15.7853 -1.06809e-05 0)
(15.69 -1.13538e-05 0)
(15.5951 -1.19365e-05 0)
(15.5006 -1.24382e-05 0)
(15.4064 -1.28679e-05 0)
(15.3126 -1.32339e-05 0)
(15.2191 -1.35436e-05 0)
(15.126 -1.38043e-05 0)
(15.0334 -1.40221e-05 0)
(14.941 -1.42028e-05 0)
(14.8491 -1.43518e-05 0)
(14.7575 -1.44735e-05 0)
(14.6663 -1.45721e-05 0)
(14.5755 -1.46513e-05 0)
(14.4851 -1.47139e-05 0)
(14.395 -1.47626e-05 0)
(14.3053 -1.47999e-05 0)
(14.2159 -1.48277e-05 0)
(14.127 -1.48477e-05 0)
(14.0384 -1.48613e-05 0)
(13.9502 -1.48696e-05 0)
(13.8624 -1.48736e-05 0)
(13.7749 -1.48741e-05 0)
(13.6878 -1.48718e-05 0)
(13.6011 -1.48673e-05 0)
(13.5148 -1.4861e-05 0)
(13.4288 -1.48531e-05 0)
(13.3432 -1.48439e-05 0)
(13.258 -1.48337e-05 0)
(13.1731 -1.48228e-05 0)
(13.0886 -1.48113e-05 0)
(13.0045 -1.47992e-05 0)
(12.9208 -1.47866e-05 0)
(12.8374 -1.47736e-05 0)
(12.7544 -1.47603e-05 0)
(12.6718 -1.47466e-05 0)
(12.5895 -1.47328e-05 0)
(12.5076 -1.47188e-05 0)
(12.426 -1.47044e-05 0)
(12.3449 -1.46897e-05 0)
(12.2641 -1.46749e-05 0)
(12.1836 -1.466e-05 0)
(12.1035 -1.46448e-05 0)
(12.0238 -1.46295e-05 0)
(11.9445 -1.4614e-05 0)
(11.8655 -1.45983e-05 0)
(11.7868 -1.45824e-05 0)
(11.7086 -1.45663e-05 0)
(11.6307 -1.45502e-05 0)
(11.5531 -1.45339e-05 0)
(11.4759 -1.45172e-05 0)
(11.3991 -1.45004e-05 0)
(11.3226 -1.44835e-05 0)
(11.2464 -1.44666e-05 0)
(11.1707 -1.44494e-05 0)
(11.0952 -1.44321e-05 0)
(11.0202 -1.44147e-05 0)
(10.9455 -1.4397e-05 0)
(10.8711 -1.43792e-05 0)
(10.7971 -1.43612e-05 0)
(10.7234 -1.43432e-05 0)
(10.6501 -1.4325e-05 0)
(10.5771 -1.43065e-05 0)
(10.5044 -1.42878e-05 0)
(10.4321 -1.42691e-05 0)
(10.3602 -1.42503e-05 0)
(10.2886 -1.42314e-05 0)
(10.2173 -1.42123e-05 0)
(10.1464 -1.41931e-05 0)
(10.0758 -1.41738e-05 0)
(10.0055 -1.41543e-05 0)
(9.93562 -1.41346e-05 0)
(9.86604 -1.41151e-05 0)
(9.79679 -1.40953e-05 0)
(9.72788 -1.40752e-05 0)
(9.65929 -1.4055e-05 0)
(9.59104 -1.40347e-05 0)
(9.52312 -1.40144e-05 0)
(9.45552 -1.39939e-05 0)
(9.38825 -1.39733e-05 0)
(9.32131 -1.39526e-05 0)
(9.25469 -1.39319e-05 0)
(9.1884 -1.3911e-05 0)
(9.12242 -1.389e-05 0)
(9.05677 -1.38693e-05 0)
(8.99144 -1.38479e-05 0)
(8.92643 -1.38265e-05 0)
(8.86174 -1.38051e-05 0)
(8.79736 -1.37836e-05 0)
(8.7333 -1.3762e-05 0)
(8.66956 -1.37404e-05 0)
(8.60612 -1.37186e-05 0)
(8.543 -1.36968e-05 0)
(8.48019 -1.36749e-05 0)
(8.41769 -1.3653e-05 0)
(8.3555 -1.36311e-05 0)
(8.29362 -1.36092e-05 0)
(8.23205 -1.35869e-05 0)
(8.17078 -1.35646e-05 0)
(8.10982 -1.35424e-05 0)
(8.04916 -1.352e-05 0)
(7.9888 -1.34976e-05 0)
(7.92874 -1.34752e-05 0)
(7.86899 -1.34527e-05 0)
(7.80954 -1.34301e-05 0)
(7.75038 -1.34075e-05 0)
(7.69153 -1.33848e-05 0)
(7.63297 -1.33625e-05 0)
(7.5747 -1.33396e-05 0)
(7.51673 -1.33167e-05 0)
(7.45906 -1.3294e-05 0)
(7.40168 -1.32712e-05 0)
(7.34459 -1.32484e-05 0)
(7.2878 -1.32255e-05 0)
(7.23129 -1.32026e-05 0)
(7.17508 -1.31797e-05 0)
(7.11915 -1.31567e-05 0)
(7.06351 -1.31336e-05 0)
(7.00816 -1.31112e-05 0)
(6.9531 -1.3088e-05 0)
(6.89832 -1.30648e-05 0)
(6.84383 -1.30419e-05 0)
(6.78962 -1.30189e-05 0)
(6.7357 -1.29959e-05 0)
(6.68205 -1.29729e-05 0)
(6.62869 -1.29499e-05 0)
(6.57562 -1.2927e-05 0)
(6.52282 -1.2904e-05 0)
(6.4703 -1.28808e-05 0)
(6.41807 -1.28584e-05 0)
(6.36611 -1.28352e-05 0)
(6.31443 -1.2812e-05 0)
(6.26302 -1.27891e-05 0)
(6.2119 -1.27663e-05 0)
(6.16105 -1.27435e-05 0)
(6.11047 -1.27207e-05 0)
(6.06017 -1.26979e-05 0)
(6.01015 -1.26751e-05 0)
(5.96039 -1.26522e-05 0)
(5.91092 -1.26292e-05 0)
(5.86171 -1.2607e-05 0)
(5.81278 -1.25839e-05 0)
(5.76412 -1.2561e-05 0)
(5.71572 -1.25383e-05 0)
(5.6676 -1.25158e-05 0)
(5.61975 -1.24932e-05 0)
(5.57217 -1.24708e-05 0)
(5.52486 -1.24483e-05 0)
(5.47781 -1.24259e-05 0)
(5.43103 -1.24034e-05 0)
(5.38452 -1.23809e-05 0)
(5.33827 -1.23592e-05 0)
(5.29229 -1.23365e-05 0)
(5.24657 -1.23145e-05 0)
(5.20112 -1.22919e-05 0)
(5.15593 -1.22708e-05 0)
(5.111 -1.22475e-05 0)
(5.06634 -1.22286e-05 0)
(5.02194 -1.2202e-05 0)
(4.97781 -1.21891e-05 0)
(4.93393 -1.2153e-05 0)
(4.89033 -1.2152e-05 0)
(4.84698 -1.20958e-05 0)
(4.80389 -1.21155e-05 0)
(4.76106 -1.20328e-05 0)
(4.7185 -1.20879e-05 0)
(4.67619 -1.19725e-05 0)
(4.63414 -1.20709e-05 0)
(4.59235 -1.18952e-05 0)
(4.55082 -1.20224e-05 0)
(4.50954 -1.18098e-05 0)
(4.46852 -1.1875e-05 0)
(4.42775 -1.1575e-05 0)
(4.38724 -1.13201e-05 0)
(4.34698 -1.04328e-05 0)
(4.30696 -8.6247e-06 0)
(4.26719 -4.12857e-06 0)
(4.22764 6.36128e-06 0)
(4.1883 3.02747e-05 0)
(4.14907 8.43864e-05 0)
(4.10982 0.000208084 0)
(4.07017 0.000494862 0)
(4.02928 0.00119431 0)
(3.98508 0.00293252 0)
(3.93292 0.00735281 0)
(3.85476 0.018769 0)
(3.75107 0.0569033 0)
(3.39221 0.117442 0)
(42.6443 8.89866e-05 0)
(42.5063 9.10478e-05 0)
(42.3435 8.79317e-05 0)