/*--------------------------------*- C++ -*----------------------------------*\
| =========                 |                                                 |
| \\      /  F ield         | OpenFOAM: The Open Source CFD Toolbox           |
|  \\    /   O peration     | Version:  3.0.x                                 |
|   \\  /    A nd           | Web:      www.OpenFOAM.org                      |
|    \\/     M anipulation  |                                                 |
\*---------------------------------------------------------------------------*/
FoamFile
{
    version     2.0;
    format      ascii;
    class       volScalarField;
    location    "0.21";
    object      rho;
}
// * * * * * * * * * * * * * * * * * * * * * * * * * * * * * * * * * * * * * //

dimensions      [1 -3 0 0 0 0 0];

internalField   nonuniform List<scalar> 
13800
(
50.5763
50.5763
50.5763
50.5762
50.5761
50.576
50.576
50.576
50.5762
50.5765
50.5767
50.5769
50.577
50.5771
50.577
50.577
50.5771
50.5773
50.5775
50.5779
50.5783
50.5786
50.5789
50.5793
50.5796
50.5799
50.5802
50.5805
50.5809
50.5813
50.5818
50.5822
50.5827
50.5831
50.5835
50.5839
50.5844
50.585
50.5857
50.5865
50.5872
50.588
50.5887
50.5894
50.5901
50.5907
50.5913
50.5918
50.5923
50.5928
50.5933
50.5936
50.594
50.5942
50.5945
50.5946
50.5947
50.5947
50.5947
50.5946
50.5944
50.5941
50.5938
50.5934
50.5929
50.5924
50.5918
50.5912
50.5905
50.5898
50.589
50.5882
50.5874
50.5866
50.5858
50.585
50.5843
50.5835
50.5828
50.5821
50.5815
50.581
50.5805
50.5801
50.5798
50.5796
50.5795
50.5794
50.5795
50.5797
50.58
50.5804
50.5809
50.5814
50.5821
50.5829
50.5837
50.5846
50.5855
50.5865
50.5875
50.5885
50.5895
50.5905
50.5915
50.5924
50.5933
50.5941
50.5948
50.5954
50.596
50.5964
50.5967
50.597
50.5971
50.5971
50.5971
50.5969
50.5967
50.5964
50.596
50.5956
50.5951
50.5946
50.5941
50.5935
50.593
50.5925
50.592
50.5916
50.5912
50.5909
50.5906
50.5904
50.5902
50.5901
50.5901
50.5901
50.5902
50.5904
50.5906
50.5909
50.5912
50.5915
50.5918
50.5922
50.5926
50.593
50.5933
50.5937
50.594
50.5943
50.5945
50.5948
50.5949
50.595
50.5951
50.5951
50.595
50.5948
50.5946
50.5943
50.5939
50.5935
50.5929
50.5923
50.5917
50.5909
50.5902
50.5893
50.5884
50.5875
50.5865
50.5855
50.5844
50.5833
50.5822
50.5811
50.58
50.5789
50.5778
50.5767
50.5756
50.5745
50.5735
50.5725
50.5715
50.5705
50.5696
50.5687
50.5679
50.5671
50.5663
50.5656
50.5649
50.5643
50.5638
50.5634
50.5666
50.5572
50.577
50.577
50.577
50.5769
50.5767
50.5766
50.5766
50.5767
50.5768
50.5771
50.5774
50.5775
50.5777
50.5777
50.5777
50.5776
50.5777
50.5779
50.5782
50.5785
50.5789
50.5792
50.5796
50.5799
50.5802
50.5805
50.5808
50.5811
50.5815
50.5819
50.5824
50.5828
50.5832
50.5836
50.584
50.5845
50.585
50.5856
50.5863
50.587
50.5878
50.5885
50.5892
50.5899
50.5906
50.5912
50.5918
50.5923
50.5929
50.5933
50.5938
50.5941
50.5945
50.5947
50.595
50.5951
50.5952
50.5952
50.5952
50.595
50.5948
50.5946
50.5942
50.5938
50.5934
50.5928
50.5922
50.5916
50.5909
50.5902
50.5895
50.5887
50.5879
50.5871
50.5863
50.5855
50.5847
50.584
50.5833
50.5826
50.582
50.5814
50.581
50.5806
50.5803
50.58
50.5799
50.5799
50.5799
50.5801
50.5804
50.5808
50.5813
50.5819
50.5826
50.5833
50.5841
50.585
50.586
50.5869
50.5879
50.589
50.59
50.591
50.5919
50.5929
50.5937
50.5945
50.5952
50.5959
50.5964
50.5968
50.5972
50.5974
50.5976
50.5976
50.5975
50.5974
50.5971
50.5968
50.5965
50.596
50.5956
50.5951
50.5945
50.594
50.5935
50.593
50.5925
50.592
50.5916
50.5913
50.591
50.5908
50.5907
50.5906
50.5905
50.5906
50.5907
50.5908
50.591
50.5913
50.5916
50.5919
50.5923
50.5926
50.593
50.5934
50.5938
50.5941
50.5944
50.5947
50.595
50.5952
50.5954
50.5955
50.5955
50.5955
50.5954
50.5953
50.595
50.5947
50.5944
50.5939
50.5934
50.5928
50.5921
50.5914
50.5906
50.5898
50.5889
50.5879
50.5869
50.5859
50.5849
50.5838
50.5827
50.5816
50.5805
50.5793
50.5782
50.5771
50.576
50.575
50.5739
50.5729
50.5719
50.571
50.57
50.5692
50.5683
50.5675
50.5668
50.566
50.5654
50.5648
50.5642
50.5637
50.5671
50.5542
50.577
50.577
50.577
50.5769
50.5767
50.5766
50.5766
50.5767
50.5768
50.5771
50.5774
50.5775
50.5777
50.5777
50.5777
50.5776
50.5777
50.5779
50.5782
50.5785
50.5789
50.5792
50.5796
50.5799
50.5802
50.5805
50.5808
50.5811
50.5815
50.5819
50.5824
50.5828
50.5832
50.5836
50.584
50.5845
50.585
50.5856
50.5863
50.587
50.5878
50.5885
50.5892
50.5899
50.5906
50.5912
50.5918
50.5923
50.5929
50.5933
50.5938
50.5941
50.5945
50.5947
50.595
50.5951
50.5952
50.5952
50.5952
50.595
50.5948
50.5946
50.5942
50.5938
50.5934
50.5928
50.5922
50.5916
50.5909
50.5902
50.5895
50.5887
50.5879
50.5871
50.5863
50.5855
50.5847
50.584
50.5833
50.5826
50.582
50.5814
50.581
50.5806
50.5803
50.58
50.5799
50.5799
50.5799
50.5801
50.5804
50.5808
50.5813
50.5819
50.5826
50.5833
50.5841
50.585
50.586
50.5869
50.5879
50.589
50.59
50.591
50.5919
50.5929
50.5937
50.5945
50.5952
50.5959
50.5964
50.5968
50.5972
50.5974
50.5976
50.5976
50.5975
50.5974
50.5971
50.5968
50.5965
50.596
50.5956
50.5951
50.5945
50.594
50.5935
50.593
50.5925
50.592
50.5916
50.5913
50.591
50.5908
50.5907
50.5906
50.5905
50.5906
50.5907
50.5908
50.591
50.5913
50.5916
50.5919
50.5923
50.5926
50.593
50.5934
50.5938
50.5941
50.5944
50.5947
50.595
50.5952
50.5954
50.5955
50.5955
50.5955
50.5954
50.5953
50.595
50.5947
50.5944
50.5939
50.5934
50.5928
50.5921
50.5914
50.5906
50.5898
50.5889
50.5879
50.5869
50.5859
50.5849
50.5838
50.5827
50.5816
50.5805
50.5793
50.5782
50.5771
50.576
50.575
50.5739
50.5729
50.5719
50.571
50.57
50.5692
50.5683
50.5675
50.5668
50.566
50.5654
50.5648
50.5642
50.5637
50.567
50.5546
50.577
50.577
50.577
50.5769
50.5767
50.5766
50.5766
50.5767
50.5768
50.5771
50.5774
50.5775
50.5776
50.5777
50.5777
50.5776
50.5777
50.5779
50.5782
50.5785
50.5789
50.5792
50.5795
50.5799
50.5802
50.5805
50.5808
50.5811
50.5815
50.5819
50.5824
50.5828
50.5832
50.5836
50.584
50.5845
50.585
50.5856
50.5863
50.587
50.5878
50.5885
50.5892
50.5899
50.5906
50.5912
50.5918
50.5923
50.5929
50.5933
50.5938
50.5941
50.5945
50.5947
50.5949
50.5951
50.5952
50.5952
50.5952
50.595
50.5948
50.5946
50.5942
50.5938
50.5934
50.5928
50.5922
50.5916
50.5909
50.5902
50.5895
50.5887
50.5879
50.5871
50.5863
50.5855
50.5847
50.584
50.5833
50.5826
50.582
50.5814
50.581
50.5806
50.5803
50.58
50.5799
50.5799
50.5799
50.5801
50.5804
50.5808
50.5813
50.5819
50.5826
50.5833
50.5841
50.585
50.586
50.5869
50.5879
50.589
50.59
50.591
50.5919
50.5929
50.5937
50.5945
50.5952
50.5959
50.5964
50.5968
50.5972
50.5974
50.5976
50.5976
50.5975
50.5974
50.5971
50.5968
50.5965
50.596
50.5956
50.5951
50.5945
50.594
50.5935
50.593
50.5925
50.592
50.5916
50.5913
50.591
50.5908
50.5907
50.5906
50.5905
50.5906
50.5907
50.5908
50.591
50.5913
50.5916
50.5919
50.5923
50.5926
50.593
50.5934
50.5938
50.5941
50.5944
50.5947
50.595
50.5952
50.5954
50.5955
50.5955
50.5955
50.5954
50.5953
50.595
50.5947
50.5944
50.5939
50.5934
50.5928
50.5921
50.5914
50.5906
50.5898
50.5889
50.5879
50.5869
50.5859
50.5849
50.5838
50.5827
50.5816
50.5805
50.5793
50.5782
50.5771
50.576
50.575
50.5739
50.5729
50.5719
50.571
50.57
50.5692
50.5683
50.5675
50.5668
50.566
50.5654
50.5648
50.5642
50.5638
50.5664
50.5584
50.577
50.577
50.5769
50.5769
50.5767
50.5766
50.5766
50.5767
50.5768
50.5771
50.5774
50.5775
50.5776
50.5777
50.5777
50.5776
50.5777
50.5779
50.5782
50.5785
50.5789
50.5792
50.5795
50.5799
50.5802
50.5805
50.5808
50.5811
50.5815
50.5819
50.5824
50.5828
50.5832
50.5836
50.584
50.5845
50.585
50.5856
50.5863
50.587
50.5878
50.5885
50.5892
50.5899
50.5906
50.5912
50.5918
50.5923
50.5929
50.5933
50.5938
50.5941
50.5945
50.5947
50.5949
50.5951
50.5952
50.5952
50.5952
50.595
50.5948
50.5946
50.5942
50.5938
50.5934
50.5928
50.5922
50.5916
50.5909
50.5902
50.5895
50.5887
50.5879
50.5871
50.5863
50.5855
50.5847
50.584
50.5833
50.5826
50.582
50.5814
50.581
50.5806
50.5803
50.58
50.5799
50.5799
50.5799
50.5801
50.5804
50.5808
50.5813
50.5819
50.5826
50.5833
50.5841
50.585
50.586
50.5869
50.5879
50.589
50.59
50.591
50.5919
50.5929
50.5937
50.5945
50.5952
50.5959
50.5964
50.5968
50.5972
50.5974
50.5976
50.5976
50.5975
50.5974
50.5971
50.5968
50.5965
50.596
50.5956
50.5951
50.5945
50.594
50.5935
50.593
50.5925
50.592
50.5916
50.5913
50.591
50.5908
50.5907
50.5906
50.5905
50.5906
50.5907
50.5908
50.591
50.5913
50.5916
50.5919
50.5923
50.5926
50.593
50.5934
50.5938
50.5941
50.5944
50.5947
50.595
50.5952
50.5954
50.5955
50.5955
50.5955
50.5954
50.5953
50.595
50.5947
50.5944
50.5939
50.5934
50.5928
50.5921
50.5914
50.5906
50.5898
50.5889
50.5879
50.5869
50.5859
50.5849
50.5838
50.5827
50.5816
50.5805
50.5793
50.5782
50.5771
50.576
50.575
50.5739
50.5729
50.5719
50.571
50.57
50.5692
50.5683
50.5675
50.5668
50.566
50.5654
50.5647
50.5642
50.5635
50.5646
50.5565
50.577
50.577
50.5769
50.5769
50.5767
50.5766
50.5766
50.5767
50.5768
50.5771
50.5774
50.5775
50.5776
50.5777
50.5777
50.5776
50.5777
50.5779
50.5782
50.5785
50.5789
50.5792
50.5795
50.5799
50.5802
50.5805
50.5808
50.5811
50.5815
50.5819
50.5824
50.5828
50.5832
50.5836
50.584
50.5845
50.585
50.5856
50.5863
50.587
50.5878
50.5885
50.5892
50.5899
50.5906
50.5912
50.5918
50.5923
50.5929
50.5933
50.5938
50.5941
50.5945
50.5947
50.5949
50.5951
50.5952
50.5952
50.5952
50.595
50.5948
50.5946
50.5942
50.5938
50.5934
50.5928
50.5922
50.5916
50.5909
50.5902
50.5895
50.5887
50.5879
50.5871
50.5863
50.5855
50.5847
50.584
50.5833
50.5826
50.582
50.5814
50.581
50.5806
50.5803
50.58
50.5799
50.5799
50.5799
50.5801
50.5804
50.5808
50.5813
50.5819
50.5826
50.5833
50.5841
50.585
50.586
50.5869
50.5879
50.589
50.59
50.591
50.5919
50.5929
50.5937
50.5945
50.5952
50.5959
50.5964
50.5968
50.5972
50.5974
50.5976
50.5976
50.5975
50.5974
50.5971
50.5968
50.5965
50.596
50.5956
50.5951
50.5945
50.594
50.5935
50.593
50.5925
50.592
50.5916
50.5913
50.591
50.5908
50.5907
50.5906
50.5905
50.5906
50.5907
50.5908
50.591
50.5913
50.5916
50.5919
50.5923
50.5926
50.593
50.5934
50.5938
50.5941
50.5944
50.5947
50.595
50.5952
50.5954
50.5955
50.5955
50.5955
50.5954
50.5953
50.595
50.5947
50.5944
50.5939
50.5934
50.5928
50.5921
50.5914
50.5906
50.5898
50.5889
50.5879
50.5869
50.5859
50.5849
50.5838
50.5827
50.5816
50.5805
50.5794
50.5782
50.5771
50.576
50.575
50.5739
50.5729
50.5719
50.571
50.57
50.5692
50.5683
50.5675
50.5668
50.566
50.5654
50.5647
50.564
50.5633
50.562
50.5598
50.577
50.577
50.577
50.5769
50.5767
50.5766
50.5766
50.5767
50.5768
50.5771
50.5774
50.5775
50.5776
50.5777
50.5777
50.5776
50.5777
50.5779
50.5782
50.5785
50.5789
50.5792
50.5795
50.5799
50.5802
50.5805
50.5808
50.5811
50.5815
50.5819
50.5824
50.5828
50.5832
50.5836
50.584
50.5845
50.585
50.5856
50.5863
50.587
50.5878
50.5885
50.5892
50.5899
50.5906
50.5912
50.5918
50.5923
50.5929
50.5933
50.5938
50.5941
50.5945
50.5947
50.5949
50.5951
50.5952
50.5952
50.5952
50.595
50.5948
50.5946
50.5942
50.5938
50.5934
50.5928
50.5922
50.5916
50.5909
50.5902
50.5895
50.5887
50.5879
50.5871
50.5863
50.5855
50.5847
50.584
50.5833
50.5826
50.582
50.5814
50.581
50.5806
50.5803
50.58
50.5799
50.5799
50.5799
50.5801
50.5804
50.5808
50.5813
50.5819
50.5826
50.5833
50.5841
50.585
50.586
50.5869
50.5879
50.589
50.59
50.591
50.5919
50.5929
50.5937
50.5945
50.5952
50.5959
50.5964
50.5968
50.5972
50.5974
50.5976
50.5976
50.5975
50.5974
50.5971
50.5968
50.5965
50.596
50.5956
50.5951
50.5945
50.594
50.5935
50.593
50.5925
50.592
50.5916
50.5913
50.591
50.5908
50.5907
50.5906
50.5905
50.5906
50.5907
50.5908
50.591
50.5913
50.5916
50.5919
50.5923
50.5926
50.593
50.5934
50.5938
50.5941
50.5944
50.5947
50.595
50.5952
50.5954
50.5955
50.5955
50.5955
50.5954
50.5953
50.595
50.5947
50.5944
50.5939
50.5934
50.5928
50.5921
50.5914
50.5906
50.5898
50.5889
50.5879
50.5869
50.5859
50.5849
50.5838
50.5827
50.5816
50.5805
50.5793
50.5782
50.5771
50.576
50.575
50.5739
50.5729
50.5719
50.571
50.57
50.5692
50.5683
50.5675
50.5668
50.566
50.5654
50.5647
50.5639
50.5634
50.559
50.5702
50.577
50.577
50.577
50.5769
50.5767
50.5766
50.5766
50.5767
50.5768
50.5771
50.5774
50.5775
50.5777
50.5777
50.5777
50.5776
50.5777
50.5779
50.5782
50.5785
50.5789
50.5792
50.5796
50.5799
50.5802
50.5805
50.5808
50.5811
50.5815
50.5819
50.5824
50.5828
50.5832
50.5836
50.584
50.5845
50.585
50.5856
50.5863
50.587
50.5878
50.5885
50.5892
50.5899
50.5906
50.5912
50.5918
50.5923
50.5929
50.5933
50.5938
50.5941
50.5945
50.5947
50.595
50.5951
50.5952
50.5952
50.5952
50.595
50.5948
50.5946
50.5942
50.5938
50.5934
50.5928
50.5922
50.5916
50.5909
50.5902
50.5895
50.5887
50.5879
50.5871
50.5863
50.5855
50.5847
50.584
50.5833
50.5826
50.582
50.5814
50.581
50.5806
50.5803
50.58
50.5799
50.5799
50.5799
50.5801
50.5804
50.5808
50.5813
50.5819
50.5826
50.5833
50.5841
50.585
50.586
50.5869
50.5879
50.589
50.59
50.591
50.5919
50.5929
50.5937
50.5945
50.5952
50.5959
50.5964
50.5968
50.5972
50.5974
50.5976
50.5976
50.5975
50.5974
50.5971
50.5968
50.5965
50.596
50.5956
50.5951
50.5945
50.594
50.5935
50.593
50.5925
50.592
50.5916
50.5913
50.591
50.5908
50.5907
50.5906
50.5905
50.5906
50.5907
50.5908
50.591
50.5913
50.5916
50.5919
50.5923
50.5926
50.593
50.5934
50.5938
50.5941
50.5944
50.5947
50.595
50.5952
50.5954
50.5955
50.5955
50.5955
50.5954
50.5953
50.595
50.5947
50.5944
50.5939
50.5934
50.5928
50.5921
50.5914
50.5906
50.5898
50.5889
50.5879
50.5869
50.5859
50.5849
50.5838
50.5827
50.5816
50.5805
50.5794
50.5782
50.5771
50.576
50.575
50.5739
50.5729
50.5719
50.571
50.57
50.5692
50.5683
50.5675
50.5667
50.566
50.5653
50.5647
50.5639
50.5639
50.5561
50.5988
50.577
50.577
50.577
50.5769
50.5767
50.5766
50.5766
50.5767
50.5768
50.5771
50.5774
50.5775
50.5777
50.5777
50.5777
50.5776
50.5777
50.5779
50.5782
50.5785
50.5789
50.5792
50.5796
50.5799
50.5802
50.5805
50.5808
50.5811
50.5815
50.5819
50.5824
50.5828
50.5832
50.5836
50.584
50.5845
50.585
50.5856
50.5863
50.587
50.5878
50.5885
50.5892
50.5899
50.5906
50.5912
50.5918
50.5923
50.5929
50.5933
50.5938
50.5941
50.5945
50.5947
50.595
50.5951
50.5952
50.5952
50.5952
50.595
50.5948
50.5946
50.5942
50.5938
50.5934
50.5928
50.5922
50.5916
50.5909
50.5902
50.5895
50.5887
50.5879
50.5871
50.5863
50.5855
50.5847
50.584
50.5833
50.5826
50.582
50.5814
50.581
50.5806
50.5803
50.58
50.5799
50.5799
50.5799
50.5801
50.5804
50.5808
50.5813
50.5819
50.5826
50.5833
50.5841
50.585
50.586
50.5869
50.5879
50.589
50.59
50.591
50.5919
50.5929
50.5937
50.5945
50.5952
50.5959
50.5964
50.5968
50.5972
50.5974
50.5976
50.5976
50.5975
50.5974
50.5971
50.5968
50.5965
50.596
50.5956
50.5951
50.5945
50.594
50.5935
50.593
50.5925
50.592
50.5916
50.5913
50.591
50.5908
50.5907
50.5906
50.5905
50.5906
50.5907
50.5908
50.591
50.5913
50.5916
50.5919
50.5923
50.5926
50.593
50.5934
50.5938
50.5941
50.5944
50.5947
50.595
50.5952
50.5954
50.5955
50.5955
50.5955
50.5954
50.5953
50.595
50.5947
50.5944
50.5939
50.5934
50.5928
50.5921
50.5914
50.5906
50.5898
50.5889
50.5879
50.5869
50.5859
50.5849
50.5838
50.5827
50.5816
50.5805
50.5794
50.5782
50.5771
50.576
50.575
50.5739
50.5729
50.5719
50.571
50.57
50.5692
50.5683
50.5675
50.5667
50.566
50.5653
50.5647
50.5639
50.5641
50.5543
50.6139
50.5763
50.5763
50.5763
50.5762
50.5761
50.576
50.576
50.576
50.5762
50.5765
50.5767
50.5769
50.577
50.5771
50.577
50.577
50.5771
50.5773
50.5775
50.5779
50.5783
50.5786
50.5789
50.5793
50.5796
50.5799
50.5802
50.5805
50.5809
50.5813
50.5818
50.5822
50.5827
50.5831
50.5835
50.5839
50.5844
50.585
50.5857
50.5865
50.5872
50.588
50.5887
50.5894
50.5901
50.5907
50.5913
50.5918
50.5923
50.5928
50.5933
50.5936
50.594
50.5942
50.5945
50.5946
50.5947
50.5947
50.5947
50.5946
50.5944
50.5941
50.5938
50.5934
50.5929
50.5924
50.5918
50.5912
50.5905
50.5898
50.589
50.5882
50.5874
50.5866
50.5858
50.585
50.5843
50.5835
50.5828
50.5821
50.5815
50.581
50.5805
50.5801
50.5798
50.5796
50.5795
50.5794
50.5795
50.5797
50.58
50.5804
50.5809
50.5814
50.5821
50.5829
50.5837
50.5846
50.5855
50.5865
50.5875
50.5885
50.5895
50.5905
50.5915
50.5924
50.5933
50.5941
50.5948
50.5954
50.596
50.5964
50.5967
50.597
50.5971
50.5971
50.5971
50.5969
50.5967
50.5964
50.596
50.5956
50.5951
50.5946
50.5941
50.5935
50.593
50.5925
50.592
50.5916
50.5912
50.5909
50.5906
50.5904
50.5902
50.5901
50.5901
50.5901
50.5902
50.5904
50.5906
50.5909
50.5912
50.5915
50.5918
50.5922
50.5926
50.593
50.5933
50.5937
50.594
50.5943
50.5945
50.5948
50.5949
50.595
50.5951
50.5951
50.595
50.5948
50.5946
50.5943
50.5939
50.5935
50.5929
50.5923
50.5917
50.5909
50.5902
50.5893
50.5884
50.5875
50.5865
50.5855
50.5844
50.5833
50.5822
50.5811
50.58
50.5789
50.5778
50.5767
50.5756
50.5745
50.5735
50.5725
50.5715
50.5705
50.5696
50.5687
50.5679
50.5671
50.5663
50.5656
50.5649
50.5642
50.5634
50.5638
50.5524
50.6271
50.6507
50.6894
50.7021
50.7037
50.7032
50.7028
50.7021
50.7008
50.6992
50.6973
50.6954
50.6933
50.691
50.6882
50.6849
50.6808
50.6753
50.6679
50.6577
50.6419
50.6452
50.6793
50.6926
50.6949
50.6947
50.6946
50.6941
50.6932
50.6917
50.6902
50.6884
50.6866
50.6844
50.6819
50.6786
50.6745
50.6689
50.6615
50.651
50.6352
50.6399
50.6743
50.6895
50.6926
50.6926
50.6925
50.692
50.6909
50.6893
50.6877
50.6858
50.6839
50.6816
50.679
50.6757
50.6716
50.6658
50.658
50.6467
50.6296
50.6218
50.641
50.6471
50.6464
50.645
50.644
50.6429
50.6413
50.6394
50.6374
50.6354
50.6332
50.6306
50.6275
50.6238
50.6193
50.6142
50.6068
50.597
50.5831
50.5913
50.6035
50.6127
50.6192
50.6237
50.6266
50.6278
50.6282
50.6279
50.6272
50.6259
50.6243
50.6214
50.6183
50.6143
50.6093
50.6027
50.5951
50.5863
50.5759
50.5392
50.5295
50.5192
50.5084
50.4985
50.4903
50.484
50.4789
50.4746
50.4711
50.4681
50.4658
50.4644
50.4631
50.4616
50.4605
50.4599
50.4605
50.4614
50.4652
50.4817
50.4608
50.4537
50.4544
50.4558
50.4566
50.4568
50.4575
50.4578
50.4582
50.4581
50.4581
50.4577
50.4577
50.4574
50.4582
50.4594
50.4625
50.4683
50.4788
50.4132
50.3569
50.3142
50.2854
50.2656
50.2504
50.2385
50.2299
50.2241
50.2206
50.2188
50.2188
50.2207
50.2248
50.2326
50.2425
50.2579
50.2753
50.3008
50.3319
50.3987
50.3377
50.2997
50.278
50.2634
50.2524
50.2436
50.2378
50.2341
50.233
50.2331
50.2349
50.2381
50.2435
50.2516
50.2627
50.2772
50.2946
50.3179
50.3473
50.3805
50.2953
50.2475
50.2195
50.2006
50.1846
50.1715
50.1618
50.156
50.1508
50.1489
50.1477
50.1499
50.1533
50.161
50.1722
50.1871
50.2067
50.2324
50.2674
50.5737
50.5344
50.5235
50.5203
50.519
50.5184
50.518
50.5178
50.5177
50.5176
50.5175
50.5174
50.5174
50.5173
50.5173
50.5172
50.5172
50.5171
50.517
50.517
50.5169
50.5169
50.5169
50.5168
50.5168
50.5168
50.5168
50.5168
50.5168
50.5168
50.5167
50.5166
50.5166
50.5166
50.5166
50.5166
50.5166
50.5166
50.5167
50.5167
50.5167
50.5167
50.5167
50.5167
50.5167
50.5167
50.5167
50.5168
50.5168
50.5169
50.5169
50.517
50.5171
50.5172
50.5173
50.5174
50.5176
50.5177
50.5179
50.5181
50.5185
50.5192
50.52
50.5209
50.5216
50.5222
50.5226
50.5229
50.5231
50.523
50.5214
50.5144
50.4885
50.4292
50.3674
50.3135
50.2719
50.2445
50.2306
50.2267
50.2283
50.2423
50.2929
50.3618
50.4191
50.4627
50.4934
50.5133
50.5249
50.5309
50.5334
50.534
50.5338
50.5326
50.5309
50.5297
50.5288
50.5281
50.5277
50.5273
50.5271
50.5269
50.5267
50.5266
50.5265
50.5265
50.5264
50.5264
50.5264
50.5264
50.5264
50.5264
50.5264
50.5264
50.5264
50.5264
50.5264
50.5265
50.5265
50.5265
50.5265
50.5266
50.5266
50.5266
50.5267
50.5267
50.5267
50.5268
50.5268
50.5268
50.5269
50.5269
50.527
50.527
50.527
50.5271
50.5272
50.5272
50.5273
50.5273
50.5274
50.5275
50.5275
50.5276
50.5277
50.5278
50.5279
50.528
50.5281
50.5282
50.5283
50.5284
50.5286
50.5287
50.5289
50.5291
50.5292
50.5294
50.5296
50.5299
50.5301
50.5303
50.5306
50.5309
50.5312
50.5315
50.5318
50.5321
50.5325
50.5328
50.5332
50.5336
50.534
50.5345
50.5349
50.5353
50.5358
50.5362
50.5367
50.5372
50.5377
50.5381
50.5386
50.5391
50.5395
50.54
50.5404
50.5408
50.5412
50.5416
50.542
50.5423
50.5426
50.5429
50.5431
50.5432
50.543
50.5434
50.5337
50.5877
50.5735
50.5366
50.5261
50.5231
50.5219
50.5214
50.5211
50.5209
50.5208
50.5206
50.5205
50.5204
50.5204
50.5204
50.5204
50.5203
50.5203
50.5202
50.5202
50.5201
50.5201
50.52
50.52
50.52
50.5199
50.5199
50.5199
50.5199
50.5199
50.5199
50.5199
50.5198
50.5198
50.5197
50.5197
50.5197
50.5197
50.5198
50.5198
50.5198
50.5199
50.5199
50.5199
50.5199
50.5199
50.5199
50.5199
50.5199
50.52
50.52
50.5201
50.5202
50.5203
50.5203
50.5204
50.5205
50.5206
50.5208
50.5209
50.5212
50.5215
50.5219
50.5222
50.5226
50.5229
50.5232
50.5236
50.5243
50.5259
50.5291
50.5327
50.5362
50.5392
50.5412
50.5423
50.5425
50.5423
50.5396
50.5296
50.514
50.5008
50.4914
50.486
50.4842
50.4843
50.4863
50.4939
50.5042
50.5125
50.5186
50.5228
50.5254
50.527
50.5278
50.5282
50.5283
50.5283
50.5282
50.5279
50.5277
50.5275
50.5273
50.5272
50.5271
50.527
50.5269
50.5269
50.5268
50.5268
50.5268
50.5268
50.5268
50.5268
50.5268
50.5268
50.5269
50.5269
50.5269
50.5269
50.527
50.527
50.527
50.527
50.5271
50.5271
50.5271
50.5272
50.5272
50.5272
50.5273
50.5273
50.5274
50.5274
50.5274
50.5275
50.5275
50.5276
50.5277
50.5277
50.5278
50.5278
50.5279
50.528
50.5281
50.5281
50.5282
50.5283
50.5284
50.5285
50.5286
50.5288
50.5289
50.529
50.5292
50.5293
50.5295
50.5297
50.5299
50.5301
50.5303
50.5305
50.5308
50.531
50.5313
50.5316
50.5319
50.5322
50.5326
50.5329
50.5333
50.5337
50.5341
50.5345
50.5349
50.5353
50.5358
50.5362
50.5367
50.5372
50.5376
50.5381
50.5386
50.5391
50.5395
50.54
50.5404
50.5409
50.5413
50.5417
50.5421
50.5424
50.5428
50.5431
50.5433
50.5435
50.5437
50.5435
50.5437
50.5352
50.5783
50.5735
50.5377
50.5265
50.523
50.5216
50.5209
50.5205
50.5203
50.5201
50.52
50.5199
50.5197
50.5197
50.5197
50.5196
50.5196
50.5196
50.5195
50.5195
50.5194
50.5194
50.5194
50.5193
50.5193
50.5193
50.5192
50.5192
50.5193
50.5192
50.5192
50.5192
50.5192
50.5191
50.5191
50.519
50.519
50.519
50.5191
50.5191
50.5191
50.5192
50.5192
50.5192
50.5193
50.5193
50.5192
50.5192
50.5193
50.5193
50.5194
50.5194
50.5194
50.5195
50.5196
50.5197
50.5198
50.5199
50.52
50.5201
50.5203
50.5205
50.5208
50.5212
50.5217
50.5221
50.5225
50.5228
50.5231
50.5235
50.5243
50.5264
50.5326
50.541
50.5483
50.5539
50.5575
50.5594
50.5599
50.5598
50.5579
50.5502
50.5372
50.5262
50.5182
50.5134
50.5114
50.511
50.5115
50.5137
50.518
50.5215
50.524
50.5257
50.5268
50.5274
50.5277
50.5278
50.5278
50.5277
50.5275
50.5274
50.5272
50.5271
50.527
50.5269
50.5269
50.5269
50.5268
50.5268
50.5268
50.5268
50.5268
50.5268
50.5268
50.5268
50.5269
50.5269
50.5269
50.5269
50.527
50.527
50.527
50.527
50.5271
50.5271
50.5271
50.5272
50.5272
50.5272
50.5273
50.5273
50.5274
50.5274
50.5274
50.5275
50.5275
50.5276
50.5277
50.5277
50.5278
50.5278
50.5279
50.528
50.5281
50.5281
50.5282
50.5283
50.5284
50.5285
50.5286
50.5288
50.5289
50.529
50.5292
50.5293
50.5295
50.5297
50.5299
50.5301
50.5303
50.5305
50.5308
50.531
50.5313
50.5316
50.5319
50.5322
50.5326
50.5329
50.5333
50.5337
50.5341
50.5345
50.5349
50.5353
50.5358
50.5362
50.5367
50.5372
50.5376
50.5381
50.5386
50.5391
50.5395
50.54
50.5404
50.5409
50.5413
50.5417
50.5421
50.5424
50.5428
50.5431
50.5433
50.5435
50.5437
50.5435
50.5436
50.5366
50.5645
50.5441
50.5193
50.5127
50.5123
50.5127
50.513
50.5131
50.513
50.5129
50.5128
50.5127
50.5126
50.5126
50.5125
50.5125
50.5124
50.5124
50.5123
50.5123
50.5122
50.5122
50.5122
50.5122
50.5121
50.5121
50.5121
50.512
50.512
50.512
50.512
50.512
50.512
50.5119
50.5119
50.5119
50.5119
50.5119
50.5119
50.512
50.512
50.512
50.5121
50.5121
50.5121
50.512
50.5121
50.5121
50.5121
50.5122
50.5122
50.5123
50.5124
50.5125
50.5126
50.5127
50.5128
50.513
50.5131
50.5134
50.5137
50.5142
50.5148
50.5153
50.5158
50.5162
50.5165
50.5169
50.5173
50.5179
50.5194
50.5229
50.527
50.5308
50.5339
50.5362
50.5375
50.5381
50.5382
50.538
50.5361
50.532
50.5282
50.5254
50.5235
50.5225
50.5222
50.5222
50.5225
50.5236
50.5248
50.5257
50.5264
50.5268
50.527
50.5271
50.5272
50.5272
50.5271
50.527
50.527
50.5269
50.5268
50.5268
50.5268
50.5268
50.5267
50.5267
50.5267
50.5267
50.5268
50.5268
50.5268
50.5268
50.5268
50.5268
50.5269
50.5269
50.5269
50.5269
50.527
50.527
50.527
50.527
50.5271
50.5271
50.5271
50.5272
50.5272
50.5272
50.5273
50.5273
50.5274
50.5274
50.5274
50.5275
50.5275
50.5276
50.5277
50.5277
50.5278
50.5278
50.5279
50.528
50.5281
50.5281
50.5282
50.5283
50.5284
50.5285
50.5286
50.5288
50.5289
50.529
50.5292
50.5293
50.5295
50.5297
50.5299
50.5301
50.5303
50.5305
50.5308
50.531
50.5313
50.5316
50.5319
50.5322
50.5326
50.5329
50.5333
50.5337
50.5341
50.5345
50.5349
50.5353
50.5358
50.5362
50.5367
50.5372
50.5376
50.5381
50.5386
50.5391
50.5395
50.54
50.5404
50.5409
50.5413
50.5417
50.5421
50.5424
50.5428
50.5431
50.5433
50.5435
50.5437
50.5436
50.5429
50.5386
50.5411
50.5512
50.541
50.5349
50.5293
50.5257
50.5239
50.523
50.5224
50.5221
50.5219
50.5217
50.5216
50.5215
50.5213
50.5212
50.5212
50.5211
50.5211
50.5211
50.521
50.521
50.5209
50.5209
50.5209
50.5209
50.5209
50.5209
50.5208
50.5208
50.5208
50.5208
50.5208
50.5208
50.5207
50.5207
50.5207
50.5207
50.5207
50.5207
50.5208
50.5208
50.5208
50.5208
50.5208
50.5209
50.5209
50.5209
50.5209
50.5209
50.5209
50.521
50.521
50.521
50.521
50.5211
50.5212
50.5212
50.5213
50.5212
50.5212
50.5212
50.5213
50.5215
50.5217
50.5219
50.5221
50.5222
50.5221
50.522
50.5221
50.5223
50.5226
50.523
50.5241
50.5256
50.5268
50.5277
50.5281
50.5282
50.5283
50.5282
50.5277
50.5272
50.5268
50.5266
50.5266
50.5266
50.5267
50.5267
50.5268
50.5269
50.5269
50.5269
50.5269
50.5269
50.5268
50.5268
50.5268
50.5267
50.5267
50.5267
50.5267
50.5267
50.5267
50.5267
50.5267
50.5267
50.5267
50.5267
50.5267
50.5267
50.5268
50.5268
50.5268
50.5268
50.5269
50.5269
50.5269
50.5269
50.527
50.527
50.527
50.527
50.5271
50.5271
50.5271
50.5272
50.5272
50.5272
50.5273
50.5273
50.5274
50.5274
50.5274
50.5275
50.5275
50.5276
50.5277
50.5277
50.5278
50.5278
50.5279
50.528
50.5281
50.5281
50.5282
50.5283
50.5284
50.5285
50.5286
50.5288
50.5289
50.529
50.5292
50.5293
50.5295
50.5297
50.5299
50.5301
50.5303
50.5305
50.5308
50.531
50.5313
50.5316
50.5319
50.5322
50.5326
50.5329
50.5333
50.5337
50.5341
50.5345
50.5349
50.5353
50.5358
50.5362
50.5367
50.5372
50.5376
50.5381
50.5386
50.5391
50.5395
50.54
50.5404
50.5409
50.5413
50.5417
50.5421
50.5424
50.5428
50.5431
50.5433
50.5436
50.5437
50.5438
50.5436
50.5426
50.5388
50.4727
50.4826
50.4884
50.493
50.496
50.4974
50.498
50.4982
50.4983
50.4983
50.4983
50.4981
50.4979
50.4978
50.4977
50.4976
50.4975
50.4975
50.4974
50.4974
50.4974
50.4974
50.4974
50.4974
50.4973
50.4973
50.4973
50.4972
50.4972
50.4973
50.4973
50.4973
50.4973
50.4973
50.4973
50.4973
50.4973
50.4973
50.4973
50.4973
50.4973
50.4974
50.4974
50.4976
50.4977
50.4978
50.498
50.4981
50.4982
50.4984
50.4987
50.499
50.4993
50.4997
50.5
50.5004
50.5009
50.5014
50.5021
50.5029
50.5037
50.5045
50.5052
50.5057
50.5061
50.5065
50.5069
50.5076
50.5089
50.5116
50.5148
50.5181
50.5213
50.5241
50.5265
50.5283
50.5296
50.5304
50.5307
50.5308
50.5307
50.5298
50.5286
50.5277
50.527
50.5264
50.5261
50.5258
50.5256
50.5256
50.5256
50.5256
50.5256
50.5257
50.5258
50.5259
50.526
50.5261
50.5261
50.5262
50.5263
50.5264
50.5264
50.5265
50.5265
50.5265
50.5266
50.5266
50.5267
50.5267
50.5267
50.5267
50.5268
50.5268
50.5268
50.5268
50.5269
50.5269
50.5269
50.527
50.527
50.527
50.527
50.5271
50.5271
50.5271
50.5272
50.5272
50.5272
50.5273
50.5273
50.5274
50.5274
50.5274
50.5275
50.5275
50.5276
50.5277
50.5277
50.5278
50.5278
50.5279
50.528
50.5281
50.5281
50.5282
50.5283
50.5284
50.5285
50.5286
50.5288
50.5289
50.529
50.5292
50.5293
50.5295
50.5297
50.5299
50.5301
50.5303
50.5305
50.5308
50.531
50.5313
50.5316
50.5319
50.5322
50.5326
50.5329
50.5333
50.5337
50.5341
50.5345
50.5349
50.5353
50.5358
50.5362
50.5367
50.5372
50.5376
50.5381
50.5386
50.5391
50.5395
50.54
50.5404
50.5409
50.5413
50.5417
50.5421
50.5424
50.5428
50.5431
50.5433
50.5436
50.5438
50.5441
50.5445
50.5465
50.5426
50.5147
50.5359
50.5388
50.5366
50.5349
50.534
50.5335
50.5331
50.5329
50.5327
50.5326
50.5325
50.5324
50.5323
50.5323
50.5322
50.5321
50.532
50.5319
50.5318
50.5317
50.5317
50.5318
50.5318
50.5318
50.5318
50.5318
50.5317
50.5317
50.5316
50.5316
50.5315
50.5315
50.5315
50.5315
50.5315
50.5315
50.5315
50.5315
50.5316
50.5316
50.5317
50.5317
50.5317
50.5318
50.5318
50.5317
50.5317
50.5318
50.5318
50.5319
50.5319
50.532
50.5321
50.5322
50.5323
50.5324
50.5325
50.5325
50.5326
50.5327
50.5328
50.5328
50.5327
50.5325
50.5325
50.5325
50.5326
50.5326
50.5322
50.5313
50.5304
50.5299
50.5298
50.5299
50.5303
50.5316
50.5345
50.5368
50.5382
50.5388
50.5389
50.5385
50.5368
50.534
50.5317
50.5299
50.5286
50.5276
50.5269
50.5264
50.5261
50.5259
50.5258
50.5258
50.5258
50.5259
50.526
50.5261
50.5261
50.5262
50.5263
50.5264
50.5264
50.5265
50.5265
50.5266
50.5266
50.5266
50.5267
50.5267
50.5267
50.5268
50.5268
50.5268
50.5268
50.5269
50.5269
50.5269
50.5269
50.527
50.527
50.527
50.5271
50.5271
50.5271
50.5272
50.5272
50.5272
50.5273
50.5273
50.5274
50.5274
50.5274
50.5275
50.5275
50.5276
50.5277
50.5277
50.5278
50.5278
50.5279
50.528
50.5281
50.5281
50.5282
50.5283
50.5284
50.5285
50.5286
50.5288
50.5289
50.529
50.5292
50.5293
50.5295
50.5297
50.5299
50.5301
50.5303
50.5305
50.5308
50.531
50.5313
50.5316
50.5319
50.5322
50.5326
50.5329
50.5333
50.5337
50.5341
50.5345
50.5349
50.5353
50.5358
50.5362
50.5367
50.5372
50.5376
50.5381
50.5386
50.5391
50.5395
50.54
50.5404
50.5409
50.5413
50.5417
50.5421
50.5424
50.5428
50.5431
50.5434
50.5436
50.5439
50.5443
50.5453
50.5493
50.5489
50.4392
50.4837
50.4952
50.4988
50.4995
50.4995
50.4993
50.4992
50.4991
50.4991
50.4991
50.499
50.4989
50.4988
50.4986
50.4983
50.4981
50.498
50.498
50.498
50.498
50.498
50.498
50.498
50.498
50.4979
50.4979
50.4978
50.4978
50.4978
50.4979
50.498
50.4981
50.4982
50.4982
50.4983
50.4983
50.4983
50.4983
50.4983
50.4983
50.4983
50.4984
50.4984
50.4984
50.4985
50.4985
50.4986
50.4985
50.4985
50.4985
50.4986
50.4987
50.4989
50.4992
50.4997
50.5004
50.501
50.5016
50.5022
50.5026
50.503
50.5034
50.5037
50.504
50.5043
50.5047
50.5054
50.5072
50.5111
50.5154
50.5197
50.5235
50.5269
50.5297
50.5319
50.5334
50.5343
50.5347
50.5348
50.5347
50.5337
50.5318
50.53
50.5285
50.5274
50.5264
50.5258
50.5253
50.525
50.5249
50.5249
50.5249
50.525
50.5251
50.5253
50.5255
50.5257
50.5258
50.5259
50.5261
50.5262
50.5263
50.5263