/*--------------------------------*- C++ -*----------------------------------*\
| =========                 |                                                 |
| \\      /  F ield         | OpenFOAM: The Open Source CFD Toolbox           |
|  \\    /   O peration     | Version:  3.0.x                                 |
|   \\  /    A nd           | Web:      www.OpenFOAM.org                      |
|    \\/     M anipulation  |                                                 |
\*---------------------------------------------------------------------------*/
FoamFile
{
    version     2.0;
    format      ascii;
    class       volScalarField;
    location    "0.22";
    object      p;
}
// * * * * * * * * * * * * * * * * * * * * * * * * * * * * * * * * * * * * * //

dimensions      [1 -1 -2 0 0 0 0];

internalField   nonuniform List<scalar> 
6900
(
1.81459e+07
1.81459e+07
1.81459e+07
1.8146e+07
1.8146e+07
1.8146e+07
1.81461e+07
1.81461e+07
1.81461e+07
1.81462e+07
1.81463e+07
1.81463e+07
1.81464e+07
1.81465e+07
1.81465e+07
1.81466e+07
1.81467e+07
1.81468e+07
1.81469e+07
1.8147e+07
1.81471e+07
1.81472e+07
1.81473e+07
1.81474e+07
1.81475e+07
1.81477e+07
1.81478e+07
1.8148e+07
1.81481e+07
1.81483e+07
1.81485e+07
1.81487e+07
1.81489e+07
1.81491e+07
1.81493e+07
1.81495e+07
1.81498e+07
1.815e+07
1.81503e+07
1.81506e+07
1.81509e+07
1.81512e+07
1.81515e+07
1.81518e+07
1.81521e+07
1.81524e+07
1.81527e+07
1.8153e+07
1.81533e+07
1.81536e+07
1.81539e+07
1.81542e+07
1.81545e+07
1.81548e+07
1.8155e+07
1.81553e+07
1.81555e+07
1.81557e+07
1.81559e+07
1.81561e+07
1.81562e+07
1.81564e+07
1.81565e+07
1.81566e+07
1.81567e+07
1.81568e+07
1.81569e+07
1.81569e+07
1.8157e+07
1.8157e+07
1.81571e+07
1.81571e+07
1.81572e+07
1.81572e+07
1.81572e+07
1.81572e+07
1.81573e+07
1.81573e+07
1.81573e+07
1.81574e+07
1.81574e+07
1.81574e+07
1.81575e+07
1.81575e+07
1.81575e+07
1.81576e+07
1.81576e+07
1.81577e+07
1.81577e+07
1.81577e+07
1.81578e+07
1.81578e+07
1.81578e+07
1.81578e+07
1.81578e+07
1.81578e+07
1.81578e+07
1.81578e+07
1.81577e+07
1.81577e+07
1.81576e+07
1.81576e+07
1.81575e+07
1.81574e+07
1.81573e+07
1.81572e+07
1.81571e+07
1.81569e+07
1.81568e+07
1.81567e+07
1.81565e+07
1.81564e+07
1.81562e+07
1.8156e+07
1.81558e+07
1.81557e+07
1.81555e+07
1.81553e+07
1.81551e+07
1.81549e+07
1.81546e+07
1.81544e+07
1.81542e+07
1.8154e+07
1.81537e+07
1.81535e+07
1.81532e+07
1.81529e+07
1.81526e+07
1.81524e+07
1.81521e+07
1.81518e+07
1.81514e+07
1.81511e+07
1.81508e+07
1.81505e+07
1.81501e+07
1.81498e+07
1.81495e+07
1.81491e+07
1.81488e+07
1.81485e+07
1.81481e+07
1.81478e+07
1.81475e+07
1.81472e+07
1.81469e+07
1.81466e+07
1.81463e+07
1.8146e+07
1.81457e+07
1.81455e+07
1.81452e+07
1.8145e+07
1.81447e+07
1.81445e+07
1.81443e+07
1.8144e+07
1.81438e+07
1.81436e+07
1.81434e+07
1.81432e+07
1.81429e+07
1.81427e+07
1.81424e+07
1.81422e+07
1.81419e+07
1.81417e+07
1.81414e+07
1.81411e+07
1.81409e+07
1.81406e+07
1.81403e+07
1.814e+07
1.81397e+07
1.81395e+07
1.81392e+07
1.81389e+07
1.81386e+07
1.81383e+07
1.8138e+07
1.81378e+07
1.81375e+07
1.81372e+07
1.8137e+07
1.81367e+07
1.81365e+07
1.81363e+07
1.81361e+07
1.81359e+07
1.81357e+07
1.81355e+07
1.81354e+07
1.81353e+07
1.81351e+07
1.8135e+07
1.81348e+07
1.81347e+07
1.81347e+07
1.81351e+07
1.81459e+07
1.81459e+07
1.81459e+07
1.8146e+07
1.8146e+07
1.8146e+07
1.81461e+07
1.81461e+07
1.81461e+07
1.81462e+07
1.81463e+07
1.81463e+07
1.81464e+07
1.81465e+07
1.81465e+07
1.81466e+07
1.81467e+07
1.81468e+07
1.81469e+07
1.8147e+07
1.81471e+07
1.81472e+07
1.81473e+07
1.81474e+07
1.81475e+07
1.81477e+07
1.81478e+07
1.8148e+07
1.81481e+07
1.81483e+07
1.81485e+07
1.81487e+07
1.81489e+07
1.81491e+07
1.81493e+07
1.81495e+07
1.81498e+07
1.815e+07
1.81503e+07
1.81506e+07
1.81509e+07
1.81512e+07
1.81515e+07
1.81518e+07
1.81521e+07
1.81524e+07
1.81527e+07
1.8153e+07
1.81533e+07
1.81536e+07
1.81539e+07
1.81542e+07
1.81545e+07
1.81548e+07
1.8155e+07
1.81553e+07
1.81555e+07
1.81557e+07
1.81559e+07
1.81561e+07
1.81562e+07
1.81564e+07
1.81565e+07
1.81566e+07
1.81567e+07
1.81568e+07
1.81569e+07
1.81569e+07
1.8157e+07
1.8157e+07
1.81571e+07
1.81571e+07
1.81572e+07
1.81572e+07
1.81572e+07
1.81572e+07
1.81573e+07
1.81573e+07
1.81573e+07
1.81574e+07
1.81574e+07
1.81574e+07
1.81575e+07
1.81575e+07
1.81575e+07
1.81576e+07
1.81576e+07
1.81577e+07
1.81577e+07
1.81577e+07
1.81578e+07
1.81578e+07
1.81578e+07
1.81578e+07
1.81578e+07
1.81578e+07
1.81578e+07
1.81578e+07
1.81577e+07
1.81577e+07
1.81576e+07
1.81576e+07
1.81575e+07
1.81574e+07
1.81573e+07
1.81572e+07
1.81571e+07
1.81569e+07
1.81568e+07
1.81567e+07
1.81565e+07
1.81564e+07
1.81562e+07
1.8156e+07
1.81558e+07
1.81557e+07
1.81555e+07
1.81553e+07
1.81551e+07
1.81549e+07
1.81546e+07
1.81544e+07
1.81542e+07
1.8154e+07
1.81537e+07
1.81535e+07
1.81532e+07
1.81529e+07
1.81526e+07
1.81524e+07
1.81521e+07
1.81518e+07
1.81514e+07
1.81511e+07
1.81508e+07
1.81505e+07
1.81501e+07
1.81498e+07
1.81495e+07
1.81491e+07
1.81488e+07
1.81485e+07
1.81481e+07
1.81478e+07
1.81475e+07
1.81472e+07
1.81469e+07
1.81466e+07
1.81463e+07
1.8146e+07
1.81457e+07
1.81455e+07
1.81452e+07
1.8145e+07
1.81447e+07
1.81445e+07
1.81443e+07
1.8144e+07
1.81438e+07
1.81436e+07
1.81434e+07
1.81432e+07
1.81429e+07
1.81427e+07
1.81424e+07
1.81422e+07
1.81419e+07
1.81417e+07
1.81414e+07
1.81411e+07
1.81409e+07
1.81406e+07
1.81403e+07
1.814e+07
1.81397e+07
1.81395e+07
1.81392e+07
1.81389e+07
1.81386e+07
1.81383e+07
1.8138e+07
1.81378e+07
1.81375e+07
1.81372e+07
1.8137e+07
1.81367e+07
1.81365e+07
1.81363e+07
1.81361e+07
1.81359e+07
1.81357e+07
1.81355e+07
1.81354e+07
1.81353e+07
1.81351e+07
1.8135e+07
1.81348e+07
1.81347e+07
1.81347e+07
1.81351e+07
1.81459e+07
1.81459e+07
1.81459e+07
1.8146e+07
1.8146e+07
1.8146e+07
1.81461e+07
1.81461e+07
1.81461e+07
1.81462e+07
1.81463e+07
1.81463e+07
1.81464e+07
1.81465e+07
1.81465e+07
1.81466e+07
1.81467e+07
1.81468e+07
1.81469e+07
1.8147e+07
1.81471e+07
1.81472e+07
1.81473e+07
1.81474e+07
1.81475e+07
1.81477e+07
1.81478e+07
1.8148e+07
1.81481e+07
1.81483e+07
1.81485e+07
1.81487e+07
1.81489e+07
1.81491e+07
1.81493e+07
1.81495e+07
1.81498e+07
1.815e+07
1.81503e+07
1.81506e+07
1.81509e+07
1.81512e+07
1.81515e+07
1.81518e+07
1.81521e+07
1.81524e+07
1.81527e+07
1.8153e+07
1.81533e+07
1.81536e+07
1.81539e+07
1.81542e+07
1.81545e+07
1.81548e+07
1.8155e+07
1.81553e+07
1.81555e+07
1.81557e+07
1.81559e+07
1.81561e+07
1.81562e+07
1.81564e+07
1.81565e+07
1.81566e+07
1.81567e+07
1.81568e+07
1.81569e+07
1.81569e+07
1.8157e+07
1.8157e+07
1.81571e+07
1.81571e+07
1.81572e+07
1.81572e+07
1.81572e+07
1.81572e+07
1.81573e+07
1.81573e+07
1.81573e+07
1.81574e+07
1.81574e+07
1.81574e+07
1.81575e+07
1.81575e+07
1.81575e+07
1.81576e+07
1.81576e+07
1.81577e+07
1.81577e+07
1.81577e+07
1.81578e+07
1.81578e+07
1.81578e+07
1.81578e+07
1.81578e+07
1.81578e+07
1.81578e+07
1.81578e+07
1.81577e+07
1.81577e+07
1.81576e+07
1.81576e+07
1.81575e+07
1.81574e+07
1.81573e+07
1.81572e+07
1.81571e+07
1.81569e+07
1.81568e+07
1.81567e+07
1.81565e+07
1.81564e+07
1.81562e+07
1.8156e+07
1.81558e+07
1.81557e+07
1.81555e+07
1.81553e+07
1.81551e+07
1.81549e+07
1.81546e+07
1.81544e+07
1.81542e+07
1.8154e+07
1.81537e+07
1.81535e+07
1.81532e+07
1.81529e+07
1.81526e+07
1.81524e+07
1.81521e+07
1.81518e+07
1.81514e+07
1.81511e+07
1.81508e+07
1.81505e+07
1.81501e+07
1.81498e+07
1.81495e+07
1.81491e+07
1.81488e+07
1.81485e+07
1.81481e+07
1.81478e+07
1.81475e+07
1.81472e+07
1.81469e+07
1.81466e+07
1.81463e+07
1.8146e+07
1.81457e+07
1.81455e+07
1.81452e+07
1.8145e+07
1.81447e+07
1.81445e+07
1.81443e+07
1.8144e+07
1.81438e+07
1.81436e+07
1.81434e+07
1.81432e+07
1.81429e+07
1.81427e+07
1.81424e+07
1.81422e+07
1.81419e+07
1.81417e+07
1.81414e+07
1.81411e+07
1.81409e+07
1.81406e+07
1.81403e+07
1.814e+07
1.81397e+07
1.81395e+07
1.81392e+07
1.81389e+07
1.81386e+07
1.81383e+07
1.8138e+07
1.81378e+07
1.81375e+07
1.81372e+07
1.8137e+07
1.81367e+07
1.81365e+07
1.81363e+07
1.81361e+07
1.81359e+07
1.81357e+07
1.81355e+07
1.81354e+07
1.81353e+07
1.81351e+07
1.8135e+07
1.81348e+07
1.81347e+07
1.81345e+07
1.81344e+07
1.81459e+07
1.81459e+07
1.81459e+07
1.8146e+07
1.8146e+07
1.8146e+07
1.81461e+07
1.81461e+07
1.81461e+07
1.81462e+07
1.81463e+07
1.81463e+07
1.81464e+07
1.81465e+07
1.81465e+07
1.81466e+07
1.81467e+07
1.81468e+07
1.81469e+07
1.8147e+07
1.81471e+07
1.81472e+07
1.81473e+07
1.81474e+07
1.81475e+07
1.81477e+07
1.81478e+07
1.8148e+07
1.81481e+07
1.81483e+07
1.81485e+07
1.81487e+07
1.81489e+07
1.81491e+07
1.81493e+07
1.81495e+07
1.81498e+07
1.815e+07
1.81503e+07
1.81506e+07
1.81509e+07
1.81512e+07
1.81515e+07
1.81518e+07
1.81521e+07
1.81524e+07
1.81527e+07
1.8153e+07
1.81533e+07
1.81536e+07
1.81539e+07
1.81542e+07
1.81545e+07
1.81548e+07
1.8155e+07
1.81553e+07
1.81555e+07
1.81557e+07
1.81559e+07
1.81561e+07
1.81562e+07
1.81564e+07
1.81565e+07
1.81566e+07
1.81567e+07
1.81568e+07
1.81569e+07
1.81569e+07
1.8157e+07
1.8157e+07
1.81571e+07
1.81571e+07
1.81572e+07
1.81572e+07
1.81572e+07
1.81572e+07
1.81573e+07
1.81573e+07
1.81573e+07
1.81574e+07
1.81574e+07
1.81574e+07
1.81575e+07
1.81575e+07
1.81575e+07
1.81576e+07
1.81576e+07
1.81577e+07
1.81577e+07
1.81577e+07
1.81578e+07
1.81578e+07
1.81578e+07
1.81578e+07
1.81578e+07
1.81578e+07
1.81578e+07
1.81578e+07
1.81577e+07
1.81577e+07
1.81576e+07
1.81576e+07
1.81575e+07
1.81574e+07
1.81573e+07
1.81572e+07
1.81571e+07
1.81569e+07
1.81568e+07
1.81567e+07
1.81565e+07
1.81564e+07
1.81562e+07
1.8156e+07
1.81558e+07
1.81557e+07
1.81555e+07
1.81553e+07
1.81551e+07
1.81549e+07
1.81546e+07
1.81544e+07
1.81542e+07
1.8154e+07
1.81537e+07
1.81535e+07
1.81532e+07
1.81529e+07
1.81526e+07
1.81524e+07
1.81521e+07
1.81518e+07
1.81514e+07
1.81511e+07
1.81508e+07
1.81505e+07
1.81501e+07
1.81498e+07
1.81495e+07
1.81491e+07
1.81488e+07
1.81485e+07
1.81481e+07
1.81478e+07
1.81475e+07
1.81472e+07
1.81469e+07
1.81466e+07
1.81463e+07
1.8146e+07
1.81457e+07
1.81455e+07
1.81452e+07
1.8145e+07
1.81447e+07
1.81445e+07
1.81443e+07
1.8144e+07
1.81438e+07
1.81436e+07
1.81434e+07
1.81432e+07
1.81429e+07
1.81427e+07
1.81424e+07
1.81422e+07
1.81419e+07
1.81417e+07
1.81414e+07
1.81411e+07
1.81409e+07
1.81406e+07
1.81403e+07
1.814e+07
1.81397e+07
1.81395e+07
1.81392e+07
1.81389e+07
1.81386e+07
1.81383e+07
1.8138e+07
1.81378e+07
1.81375e+07
1.81372e+07
1.8137e+07
1.81367e+07
1.81365e+07
1.81363e+07
1.81361e+07
1.81359e+07
1.81357e+07
1.81355e+07
1.81354e+07
1.81353e+07
1.81351e+07
1.8135e+07
1.81348e+07
1.81347e+07
1.81343e+07
1.81335e+07
1.81459e+07
1.81459e+07
1.81459e+07
1.8146e+07
1.8146e+07
1.8146e+07
1.81461e+07
1.81461e+07
1.81461e+07
1.81462e+07
1.81463e+07
1.81463e+07
1.81464e+07
1.81465e+07
1.81465e+07
1.81466e+07
1.81467e+07
1.81468e+07
1.81469e+07
1.8147e+07
1.81471e+07
1.81472e+07
1.81473e+07
1.81474e+07
1.81475e+07
1.81477e+07
1.81478e+07
1.8148e+07
1.81481e+07
1.81483e+07
1.81485e+07
1.81487e+07
1.81489e+07
1.81491e+07
1.81493e+07
1.81495e+07
1.81498e+07
1.815e+07
1.81503e+07
1.81506e+07
1.81509e+07
1.81512e+07
1.81515e+07
1.81518e+07
1.81521e+07
1.81524e+07
1.81527e+07
1.8153e+07
1.81533e+07
1.81536e+07
1.81539e+07
1.81542e+07
1.81545e+07
1.81548e+07
1.8155e+07
1.81553e+07
1.81555e+07
1.81557e+07
1.81559e+07
1.81561e+07
1.81562e+07
1.81564e+07
1.81565e+07
1.81566e+07
1.81567e+07
1.81568e+07
1.81569e+07
1.81569e+07
1.8157e+07
1.8157e+07
1.81571e+07
1.81571e+07
1.81572e+07
1.81572e+07
1.81572e+07
1.81572e+07
1.81573e+07
1.81573e+07
1.81573e+07
1.81574e+07
1.81574e+07
1.81574e+07
1.81575e+07
1.81575e+07
1.81575e+07
1.81576e+07
1.81576e+07
1.81577e+07
1.81577e+07
1.81577e+07
1.81578e+07
1.81578e+07
1.81578e+07
1.81578e+07
1.81578e+07
1.81578e+07
1.81578e+07
1.81578e+07
1.81577e+07
1.81577e+07
1.81576e+07
1.81576e+07
1.81575e+07
1.81574e+07
1.81573e+07
1.81572e+07
1.81571e+07
1.81569e+07
1.81568e+07
1.81567e+07
1.81565e+07
1.81564e+07
1.81562e+07
1.8156e+07
1.81558e+07
1.81557e+07
1.81555e+07
1.81553e+07
1.81551e+07
1.81549e+07
1.81546e+07
1.81544e+07
1.81542e+07
1.8154e+07
1.81537e+07
1.81535e+07
1.81532e+07
1.81529e+07
1.81526e+07
1.81524e+07
1.81521e+07
1.81518e+07
1.81514e+07
1.81511e+07
1.81508e+07
1.81505e+07
1.81501e+07
1.81498e+07
1.81495e+07
1.81491e+07
1.81488e+07
1.81485e+07
1.81481e+07
1.81478e+07
1.81475e+07
1.81472e+07
1.81469e+07
1.81466e+07
1.81463e+07
1.8146e+07
1.81457e+07
1.81455e+07
1.81452e+07
1.8145e+07
1.81447e+07
1.81445e+07
1.81443e+07
1.8144e+07
1.81438e+07
1.81436e+07
1.81434e+07
1.81432e+07
1.81429e+07
1.81427e+07
1.81424e+07
1.81422e+07
1.81419e+07
1.81417e+07
1.81414e+07
1.81411e+07
1.81409e+07
1.81406e+07
1.81403e+07
1.814e+07
1.81397e+07
1.81395e+07
1.81392e+07
1.81389e+07
1.81386e+07
1.81383e+07
1.8138e+07
1.81378e+07
1.81375e+07
1.81372e+07
1.8137e+07
1.81367e+07
1.81365e+07
1.81363e+07
1.81361e+07
1.81359e+07
1.81357e+07
1.81355e+07
1.81354e+07
1.81353e+07
1.81351e+07
1.8135e+07
1.81348e+07
1.81347e+07
1.81343e+07
1.81334e+07
1.81409e+07
1.81434e+07
1.81436e+07
1.81429e+07
1.81422e+07
1.81415e+07
1.81404e+07
1.81391e+07
1.8138e+07
1.81374e+07
1.8138e+07
1.81393e+07
1.81391e+07
1.81356e+07
1.81291e+07
1.8124e+07
1.81208e+07
1.8118e+07
1.81158e+07
1.81149e+07
1.81394e+07
1.81405e+07
1.81404e+07
1.81397e+07
1.81389e+07
1.81382e+07
1.81371e+07
1.81357e+07
1.81346e+07
1.8134e+07
1.81348e+07
1.81361e+07
1.81355e+07
1.81312e+07
1.81242e+07
1.8119e+07
1.8116e+07
1.81136e+07
1.81117e+07
1.81116e+07
1.81346e+07
1.81345e+07
1.8134e+07
1.81332e+07
1.81321e+07
1.81307e+07
1.81291e+07
1.81272e+07
1.81249e+07
1.81223e+07
1.81193e+07
1.81161e+07
1.8113e+07
1.81101e+07
1.81072e+07
1.8104e+07
1.81003e+07
1.80963e+07
1.8092e+07
1.80873e+07
1.81253e+07
1.81242e+07
1.81246e+07
1.8125e+07
1.81244e+07
1.81228e+07
1.81206e+07
1.81176e+07
1.81152e+07
1.81121e+07
1.81095e+07
1.81066e+07
1.81038e+07
1.81011e+07
1.80986e+07
1.80963e+07
1.80943e+07
1.80926e+07
1.80913e+07
1.80903e+07
1.81207e+07
1.81161e+07
1.81145e+07
1.81142e+07
1.81134e+07
1.81115e+07
1.8109e+07
1.81058e+07
1.81029e+07
1.80995e+07
1.80964e+07
1.80932e+07
1.809e+07
1.80869e+07
1.80841e+07
1.80815e+07
1.80793e+07
1.80775e+07
1.80764e+07
1.80763e+07
1.81041e+07
1.80903e+07
1.80854e+07
1.80847e+07
1.80847e+07
1.80842e+07
1.80833e+07
1.80828e+07
1.80827e+07
1.80826e+07
1.80825e+07
1.80823e+07
1.80821e+07
1.8082e+07
1.80819e+07
1.80817e+07
1.80816e+07
1.80815e+07
1.80813e+07
1.80812e+07
1.8081e+07
1.80808e+07
1.80807e+07
1.80805e+07
1.80803e+07
1.80801e+07
1.80799e+07
1.80796e+07
1.80793e+07
1.80791e+07
1.80788e+07
1.80786e+07
1.80784e+07
1.80782e+07
1.80781e+07
1.80777e+07
1.80773e+07
1.8077e+07
1.80768e+07
1.80766e+07
1.80765e+07
1.80764e+07
1.80764e+07
1.80764e+07
1.80764e+07
1.80764e+07
1.80764e+07
1.80765e+07
1.80765e+07
1.80766e+07
1.80766e+07
1.80766e+07
1.80766e+07
1.80766e+07
1.80766e+07
1.80766e+07
1.80766e+07
1.80766e+07
1.80765e+07
1.80765e+07
1.80765e+07
1.80765e+07
1.80765e+07
1.80766e+07
1.80766e+07
1.80766e+07
1.80766e+07
1.80766e+07
1.80767e+07
1.80767e+07
1.80767e+07
1.80767e+07
1.80767e+07
1.80767e+07
1.80767e+07
1.80766e+07
1.80766e+07
1.80766e+07
1.80765e+07
1.80765e+07
1.80764e+07
1.80763e+07
1.80762e+07
1.80762e+07
1.80761e+07
1.8076e+07
1.80759e+07
1.80758e+07
1.80757e+07
1.80756e+07
1.80755e+07
1.80754e+07
1.80753e+07
1.80752e+07
1.80752e+07
1.80751e+07
1.8075e+07
1.8075e+07
1.80749e+07
1.80749e+07
1.80749e+07
1.80749e+07
1.80749e+07
1.80749e+07
1.80749e+07
1.80749e+07
1.8075e+07
1.8075e+07
1.8075e+07
1.80751e+07
1.80751e+07
1.80752e+07
1.80752e+07
1.80753e+07
1.80753e+07
1.80754e+07
1.80754e+07
1.80755e+07
1.80755e+07
1.80755e+07
1.80755e+07
1.80756e+07
1.80756e+07
1.80756e+07
1.80755e+07
1.80755e+07
1.80755e+07
1.80754e+07
1.80754e+07
1.80753e+07
1.80753e+07
1.80752e+07
1.80751e+07
1.8075e+07
1.80749e+07
1.80748e+07
1.80747e+07
1.80746e+07
1.80745e+07
1.80744e+07
1.80743e+07
1.80742e+07
1.80741e+07
1.80741e+07
1.8074e+07
1.80739e+07
1.80739e+07
1.80738e+07
1.80738e+07
1.80737e+07
1.80737e+07
1.80737e+07
1.80737e+07
1.80737e+07
1.80737e+07
1.80737e+07
1.80737e+07
1.80737e+07
1.80737e+07
1.80737e+07
1.80737e+07
1.80737e+07
1.80736e+07
1.80736e+07
1.80736e+07
1.80735e+07
1.80734e+07
1.80734e+07
1.80733e+07
1.80732e+07
1.80731e+07
1.80729e+07
1.80728e+07
1.80726e+07
1.80725e+07
1.80723e+07
1.80721e+07
1.80719e+07
1.80717e+07
1.80715e+07
1.80713e+07
1.80711e+07
1.80708e+07
1.80706e+07
1.80703e+07
1.80701e+07
1.80698e+07
1.80696e+07
1.80693e+07
1.80691e+07
1.80688e+07
1.80686e+07
1.80684e+07
1.80682e+07
1.8068e+07
1.80679e+07
1.80677e+07
1.80675e+07
1.80671e+07
1.8066e+07
1.81029e+07
1.80901e+07
1.80854e+07
1.80847e+07
1.80847e+07
1.80842e+07
1.80833e+07
1.80829e+07
1.80827e+07
1.80826e+07
1.80825e+07
1.80823e+07
1.80821e+07
1.8082e+07
1.80819e+07
1.80817e+07
1.80816e+07
1.80815e+07
1.80813e+07
1.80812e+07
1.8081e+07
1.80808e+07
1.80807e+07
1.80805e+07
1.80803e+07
1.80801e+07
1.80799e+07
1.80796e+07
1.80793e+07
1.80791e+07
1.80788e+07
1.80786e+07
1.80784e+07
1.80782e+07
1.80781e+07
1.80777e+07
1.80773e+07
1.8077e+07
1.80768e+07
1.80766e+07
1.80765e+07
1.80764e+07
1.80764e+07
1.80764e+07
1.80764e+07
1.80764e+07
1.80764e+07
1.80765e+07
1.80765e+07
1.80766e+07
1.80766e+07
1.80766e+07
1.80766e+07
1.80766e+07
1.80766e+07
1.80766e+07
1.80766e+07
1.80766e+07
1.80765e+07
1.80765e+07
1.80765e+07
1.80765e+07
1.80765e+07
1.80766e+07
1.80766e+07
1.80766e+07
1.80766e+07
1.80766e+07
1.80767e+07
1.80767e+07
1.80767e+07
1.80767e+07
1.80767e+07
1.80767e+07
1.80767e+07
1.80766e+07
1.80766e+07
1.80766e+07
1.80765e+07
1.80765e+07
1.80764e+07
1.80763e+07
1.80762e+07
1.80762e+07
1.80761e+07
1.8076e+07
1.80759e+07
1.80758e+07
1.80757e+07
1.80756e+07
1.80755e+07
1.80754e+07
1.80753e+07
1.80752e+07
1.80752e+07
1.80751e+07
1.8075e+07
1.8075e+07
1.80749e+07
1.80749e+07
1.80749e+07
1.80749e+07
1.80749e+07
1.80749e+07
1.80749e+07
1.80749e+07
1.8075e+07
1.8075e+07
1.8075e+07
1.80751e+07
1.80751e+07
1.80752e+07
1.80752e+07
1.80753e+07
1.80753e+07
1.80754e+07
1.80754e+07
1.80755e+07
1.80755e+07
1.80755e+07
1.80755e+07
1.80756e+07
1.80756e+07
1.80756e+07
1.80755e+07
1.80755e+07
1.80755e+07
1.80754e+07
1.80754e+07
1.80753e+07
1.80753e+07
1.80752e+07
1.80751e+07
1.8075e+07
1.80749e+07
1.80748e+07
1.80747e+07
1.80746e+07
1.80745e+07
1.80744e+07
1.80743e+07
1.80742e+07
1.80741e+07
1.80741e+07
1.8074e+07
1.80739e+07
1.80739e+07
1.80738e+07
1.80738e+07
1.80737e+07
1.80737e+07
1.80737e+07
1.80737e+07
1.80737e+07
1.80737e+07
1.80737e+07
1.80737e+07
1.80737e+07
1.80737e+07
1.80737e+07
1.80737e+07
1.80737e+07
1.80736e+07
1.80736e+07
1.80736e+07
1.80735e+07
1.80734e+07
1.80734e+07
1.80733e+07
1.80732e+07
1.80731e+07
1.80729e+07
1.80728e+07
1.80726e+07
1.80725e+07
1.80723e+07
1.80721e+07
1.80719e+07
1.80717e+07
1.80715e+07
1.80713e+07
1.80711e+07
1.80708e+07
1.80706e+07
1.80703e+07
1.80701e+07
1.80698e+07
1.80696e+07
1.80693e+07
1.80691e+07
1.80688e+07
1.80686e+07
1.80684e+07
1.80682e+07
1.8068e+07
1.80679e+07
1.80677e+07
1.80675e+07
1.80671e+07
1.8066e+07
1.80754e+07
1.808e+07
1.80834e+07
1.80839e+07
1.80835e+07
1.8083e+07
1.80828e+07
1.80827e+07
1.80826e+07
1.80825e+07
1.80824e+07
1.80822e+07
1.80821e+07
1.8082e+07
1.80819e+07
1.80817e+07
1.80816e+07
1.80815e+07
1.80813e+07
1.80812e+07
1.8081e+07
1.80809e+07
1.80807e+07
1.80805e+07
1.80803e+07
1.80801e+07
1.80798e+07
1.80796e+07
1.80793e+07
1.80791e+07
1.80789e+07
1.80786e+07
1.80783e+07
1.80781e+07
1.80778e+07
1.80775e+07
1.80773e+07
1.80771e+07
1.80769e+07
1.80768e+07
1.80767e+07
1.80766e+07
1.80766e+07
1.80765e+07
1.80765e+07
1.80765e+07
1.80766e+07
1.80766e+07
1.80766e+07
1.80766e+07
1.80767e+07
1.80767e+07
1.80767e+07
1.80766e+07
1.80766e+07
1.80766e+07
1.80766e+07
1.80766e+07
1.80765e+07
1.80765e+07
1.80765e+07
1.80765e+07
1.80765e+07
1.80766e+07
1.80766e+07
1.80766e+07
1.80766e+07
1.80766e+07
1.80767e+07
1.80767e+07
1.80767e+07
1.80767e+07
1.80767e+07
1.80767e+07
1.80767e+07
1.80766e+07
1.80766e+07
1.80766e+07
1.80765e+07
1.80765e+07
1.80764e+07
1.80763e+07
1.80762e+07
1.80762e+07
1.80761e+07
1.8076e+07
1.80759e+07
1.80758e+07
1.80757e+07
1.80756e+07
1.80755e+07
1.80754e+07
1.80753e+07
1.80752e+07
1.80752e+07
1.80751e+07
1.8075e+07
1.8075e+07
1.80749e+07
1.80749e+07
1.80749e+07
1.80749e+07
1.80749e+07
1.80749e+07
1.80749e+07
1.80749e+07
1.8075e+07
1.8075e+07
1.8075e+07
1.80751e+07
1.80751e+07
1.80752e+07
1.80752e+07
1.80753e+07
1.80753e+07
1.80754e+07
1.80754e+07
1.80755e+07
1.80755e+07
1.80755e+07
1.80755e+07
1.80756e+07
1.80756e+07
1.80756e+07
1.80755e+07
1.80755e+07
1.80755e+07
1.80754e+07
1.80754e+07
1.80753e+07
1.80753e+07
1.80752e+07
1.80751e+07
1.8075e+07
1.80749e+07
1.80748e+07
1.80747e+07
1.80746e+07
1.80745e+07
1.80744e+07
1.80743e+07
1.80742e+07
1.80741e+07
1.80741e+07
1.8074e+07
1.80739e+07
1.80739e+07
1.80738e+07
1.80738e+07
1.80737e+07
1.80737e+07
1.80737e+07
1.80737e+07
1.80737e+07
1.80737e+07
1.80737e+07
1.80737e+07
1.80737e+07
1.80737e+07
1.80737e+07
1.80737e+07
1.80737e+07
1.80736e+07
1.80736e+07
1.80736e+07
1.80735e+07
1.80734e+07
1.80734e+07
1.80733e+07
1.80732e+07
1.80731e+07
1.80729e+07
1.80728e+07
1.80726e+07
1.80725e+07
1.80723e+07
1.80721e+07
1.80719e+07
1.80717e+07
1.80715e+07
1.80713e+07
1.80711e+07
1.80708e+07
1.80706e+07
1.80703e+07
1.80701e+07
1.80698e+07
1.80696e+07
1.80693e+07
1.80691e+07
1.80688e+07
1.80686e+07
1.80684e+07
1.80682e+07
1.8068e+07
1.80679e+07
1.80677e+07
1.80676e+07
1.80675e+07
1.80674e+07
1.8087e+07
1.80854e+07
1.80846e+07
1.8084e+07
1.80835e+07
1.80831e+07
1.80829e+07
1.80828e+07
1.80826e+07
1.80825e+07
1.80824e+07
1.80822e+07
1.80821e+07
1.8082e+07
1.80819e+07
1.80817e+07
1.80816e+07
1.80815e+07
1.80813e+07
1.80812e+07
1.8081e+07
1.80808e+07
1.80807e+07
1.80805e+07
1.80803e+07
1.80801e+07
1.80798e+07
1.80796e+07
1.80794e+07
1.80791e+07
1.80789e+07
1.80787e+07
1.80784e+07
1.80782e+07
1.80779e+07
1.80776e+07
1.80774e+07
1.80772e+07
1.80771e+07
1.80769e+07
1.80768e+07
1.80768e+07
1.80767e+07
1.80767e+07
1.80767e+07
1.80767e+07
1.80767e+07
1.80767e+07
1.80767e+07
1.80767e+07
1.80767e+07
1.80767e+07
1.80767e+07
1.80767e+07
1.80766e+07
1.80766e+07
1.80766e+07
1.80766e+07
1.80765e+07
1.80765e+07
1.80765e+07
1.80765e+07
1.80765e+07
1.80766e+07
1.80766e+07
1.80766e+07
1.80766e+07
1.80766e+07
1.80767e+07
1.80767e+07
1.80767e+07
1.80767e+07
1.80767e+07
1.80767e+07
1.80767e+07
1.80766e+07
1.80766e+07
1.80766e+07
1.80765e+07
1.80765e+07
1.80764e+07
1.80763e+07
1.80762e+07
1.80762e+07
1.80761e+07
1.8076e+07
1.80759e+07
1.80758e+07
1.80757e+07
1.80756e+07
1.80755e+07
1.80754e+07
1.80753e+07
1.80752e+07
1.80752e+07
1.80751e+07
1.8075e+07
1.8075e+07
1.80749e+07
1.80749e+07
1.80749e+07
1.80749e+07
1.80749e+07
1.80749e+07
1.80749e+07
1.80749e+07
1.8075e+07
1.8075e+07
1.8075e+07
1.80751e+07
1.80751e+07
1.80752e+07
1.80752e+07
1.80753e+07
1.80753e+07
1.80754e+07
1.80754e+07
1.80755e+07
1.80755e+07
1.80755e+07
1.80755e+07
1.80756e+07
1.80756e+07
1.80756e+07
1.80755e+07
1.80755e+07
1.80755e+07
1.80754e+07
1.80754e+07
1.80753e+07
1.80753e+07
1.80752e+07
1.80751e+07
1.8075e+07
1.80749e+07
1.80748e+07
1.80747e+07
1.80746e+07
1.80745e+07
1.80744e+07
1.80743e+07
1.80742e+07
1.80741e+07
1.80741e+07
1.8074e+07
1.80739e+07
1.80739e+07
1.80738e+07
1.80738e+07
1.80737e+07
1.80737e+07
1.80737e+07
1.80737e+07
1.80737e+07
1.80737e+07
1.80737e+07
1.80737e+07
1.80737e+07
1.80737e+07
1.80737e+07
1.80737e+07
1.80737e+07
1.80736e+07
1.80736e+07
1.80736e+07
1.80735e+07
1.80734e+07
1.80734e+07
1.80733e+07
1.80732e+07
1.80731e+07
1.80729e+07
1.80728e+07
1.80726e+07
1.80725e+07
1.80723e+07
1.80721e+07
1.80719e+07
1.80717e+07
1.80715e+07
1.80713e+07
1.80711e+07
1.80708e+07
1.80706e+07
1.80703e+07
1.80701e+07
1.80698e+07
1.80696e+07
1.80693e+07
1.80691e+07
1.80688e+07
1.80686e+07
1.80684e+07
1.80682e+07
1.8068e+07
1.80679e+07
1.80677e+07
1.80676e+07
1.80677e+07
1.80683e+07
1.80844e+07
1.8085e+07
1.80845e+07
1.8084e+07
1.80835e+07
1.80831e+07
1.80829e+07
1.80828e+07
1.80826e+07
1.80825e+07
1.80824e+07
1.80822e+07
1.80821e+07
1.8082e+07
1.80819e+07
1.80817e+07
1.80816e+07
1.80815e+07
1.80813e+07
1.80812e+07
1.8081e+07
1.80808e+07
1.80807e+07
1.80805e+07
1.80803e+07
1.80801e+07
1.80798e+07
1.80796e+07
1.80794e+07
1.80791e+07
1.80789e+07
1.80787e+07
1.80784e+07
1.80782e+07
1.80779e+07
1.80776e+07
1.80774e+07
1.80772e+07
1.80771e+07
1.80769e+07
1.80768e+07
1.80768e+07
1.80767e+07
1.80767e+07
1.80767e+07
1.80767e+07
1.80767e+07
1.80767e+07
1.80767e+07
1.80767e+07
1.80767e+07
1.80767e+07
1.80767e+07
1.80767e+07
1.80766e+07
1.80766e+07
1.80766e+07
1.80766e+07
1.80765e+07
1.80765e+07
1.80765e+07
1.80765e+07
1.80765e+07
1.80766e+07
1.80766e+07
1.80766e+07
1.80766e+07
1.80766e+07
1.80767e+07
1.80767e+07
1.80767e+07
1.80767e+07
1.80767e+07
1.80767e+07
1.80767e+07
1.80766e+07
1.80766e+07
1.80766e+07
1.80765e+07
1.80765e+07
1.80764e+07
1.80763e+07
1.80762e+07
1.80762e+07
1.80761e+07
1.8076e+07
1.80759e+07
1.80758e+07
1.80757e+07
1.80756e+07
1.80755e+07
1.80754e+07
1.80753e+07
1.80752e+07
1.80752e+07
1.80751e+07
1.8075e+07
1.8075e+07
1.80749e+07
1.80749e+07
1.80749e+07
1.80749e+07
1.80749e+07
1.80749e+07
1.80749e+07
1.80749e+07
1.8075e+07
1.8075e+07
1.8075e+07
1.80751e+07
1.80751e+07
1.80752e+07
1.80752e+07
1.80753e+07
1.80753e+07
1.80754e+07
1.80754e+07
1.80755e+07
1.80755e+07
1.80755e+07
1.80755e+07
1.80756e+07
1.80756e+07
1.80756e+07
1.80755e+07
1.80755e+07
1.80755e+07
1.80754e+07
1.80754e+07
1.80753e+07
1.80753e+07
1.80752e+07
1.80751e+07
1.8075e+07
1.80749e+07
1.80748e+07
1.80747e+07
1.80746e+07
1.80745e+07
1.80744e+07
1.80743e+07
1.80742e+07
1.80741e+07
1.80741e+07
1.8074e+07
1.80739e+07
1.80739e+07
1.80738e+07
1.80738e+07
1.80737e+07
1.80737e+07
1.80737e+07
1.80737e+07
1.80737e+07
1.80737e+07
1.80737e+07
1.80737e+07
1.80737e+07
1.80737e+07
1.80737e+07
1.80737e+07
1.80737e+07
1.80736e+07
1.80736e+07
1.80736e+07
1.80735e+07
1.80734e+07
1.80734e+07
1.80733e+07
1.80732e+07
1.80731e+07
1.80729e+07
1.80728e+07
1.80726e+07
1.80725e+07
1.80723e+07
1.80721e+07
1.80719e+07
1.80717e+07
1.80715e+07
1.80713e+07
1.80711e+07
1.80708e+07
1.80706e+07
1.80703e+07
1.80701e+07
1.80698e+07
1.80696e+07
1.80693e+07
1.80691e+07
1.80688e+07
1.80686e+07
1.80684e+07
1.80682e+07
1.8068e+07
1.80679e+07
1.80677e+07
1.80676e+07
1.80677e+07
1.80684e+07
1.80548e+07
1.805e+07
1.80483e+07
1.8048e+07
1.80472e+07
1.80453e+07
1.80427e+07
1.80401e+07
1.80369e+07
1.8034e+07
1.80308e+07
1.80277e+07
1.80247e+07
1.80218e+07
1.80192e+07
1.80169e+07
1.80149e+07
1.80133e+07
1.80122e+07
1.80122e+07
1.8059e+07
1.80579e+07
1.80582e+07
1.80585e+07
1.80579e+07
1.80563e+07
1.80539e+07
1.80518e+07
1.80488e+07
1.80464e+07
1.80435e+07
1.80408e+07
1.80381e+07
1.80356e+07
1.80333e+07
1.80313e+07
1.80295e+07
1.8028e+07
1.80268e+07
1.80258e+07
1.80676e+07
1.80676e+07
1.80672e+07
1.80664e+07
1.80653e+07
1.8064e+07
1.80624e+07
1.80605e+07
1.80583e+07
1.80556e+07
1.8053e+07
1.80504e+07
1.80479e+07
1.80449e+07
1.80416e+07
1.8038e+07
1.80341e+07
1.80299e+07
1.80254e+07
1.80211e+07
1.80721e+07
1.80733e+07
1.80732e+07
1.80725e+07
1.80718e+07
1.80711e+07
1.80703e+07
1.80696e+07
1.80695e+07
1.80702e+07
1.80698e+07
1.80669e+07
1.80616e+07
1.80574e+07
1.80547e+07
1.80524e+07
1.80506e+07
1.80498e+07
1.80517e+07
1.80524e+07
1.80735e+07
1.80761e+07
1.80763e+07
1.80757e+07
1.8075e+07
1.80743e+07
1.80735e+07
1.80728e+07
1.80727e+07
1.80733e+07
1.80731e+07
1.80706e+07
1.80658e+07
1.80617e+07
1.80588e+07
1.80564e+07
1.80542e+07
1.80531e+07
1.80549e+07
1.80561e+07
1.80201e+07
1.8021e+07
1.80207e+07
1.80204e+07
1.80199e+07
1.80197e+07
1.80195e+07
1.80195e+07
1.80195e+07
1.80194e+07
1.80193e+07
1.80192e+07
1.80191e+07
1.80189e+07
1.80188e+07
1.80187e+07
1.80185e+07
1.80183e+07
1.80181e+07
1.80179e+07
1.80177e+07
1.80174e+07
1.80172e+07
1.80169e+07
1.80167e+07
1.80164e+07
1.80161e+07
1.80159e+07
1.80156e+07
1.80153e+07
1.80151e+07
1.80148e+07
1.80145e+07
1.80142e+07
1.80139e+07
1.80137e+07
1.80134e+07
1.80132e+07
1.8013e+07
1.80128e+07
1.80127e+07
1.80126e+07
1.80125e+07
1.80124e+07
1.80123e+07
1.80123e+07
1.80123e+07
1.80123e+07
1.80122e+07
1.80122e+07
1.80122e+07
1.80122e+07
1.80122e+07
1.80122e+07
1.80121e+07
1.80121e+07
1.8012e+07
1.80119e+07
1.80118e+07
1.80117e+07
1.80116e+07
1.80115e+07
1.80114e+07
1.80113e+07
1.80111e+07
1.8011e+07
1.80108e+07
1.80107e+07
1.80105e+07
1.80103e+07
1.80102e+07
1.801e+07
1.80098e+07
1.80096e+07
1.80094e+07
1.80092e+07
1.8009e+07
1.80088e+07
1.80086e+07
1.80084e+07
1.80082e+07
1.8008e+07
1.80078e+07
1.80076e+07
1.80074e+07
1.80072e+07
1.80071e+07
1.80069e+07
1.80067e+07
1.80066e+07
1.80065e+07
1.80064e+07
1.80063e+07
1.80062e+07
1.80061e+07
1.80061e+07
1.8006e+07
1.8006e+07
1.80057e+07
1.80047e+07
1.80227e+07
1.80213e+07
1.80208e+07
1.80204e+07
1.80199e+07
1.80197e+07
1.80195e+07
1.80195e+07
1.80195e+07
1.80194e+07
1.80193e+07
1.80192e+07
1.80191e+07
1.80189e+07
1.80188e+07
1.80187e+07
1.80185e+07
1.80183e+07
1.80181e+07
1.80179e+07
1.80177e+07
1.80174e+07
1.80172e+07
1.80169e+07
1.80167e+07
1.80164e+07
1.80161e+07
1.80159e+07
1.80156e+07
1.80153e+07
1.80151e+07
1.80148e+07
1.80145e+07
1.80142e+07
1.80139e+07
1.80137e+07
1.80134e+07
1.80132e+07
1.8013e+07
1.80128e+07
1.80127e+07
1.80126e+07
1.80125e+07
1.80124e+07
1.80123e+07
1.80123e+07
1.80123e+07
1.80123e+07
1.80123e+07
1.80122e+07
1.80122e+07
1.80122e+07
1.80122e+07
1.80122e+07
1.80121e+07
1.80121e+07
1.8012e+07
1.80119e+07
1.80118e+07
1.80117e+07
1.80116e+07
1.80115e+07
1.80114e+07
1.80113e+07
1.80111e+07
1.8011e+07
1.80108e+07
1.80107e+07
1.80105e+07
1.80103e+07
1.80102e+07
1.801e+07
1.80098e+07
1.80096e+07
1.80094e+07
1.80092e+07
1.8009e+07
1.80088e+07
1.80086e+07
1.80084e+07
1.80082e+07
1.8008e+07
1.80078e+07
1.80076e+07
1.80074e+07
1.80072e+07
1.80071e+07
1.80069e+07
1.80067e+07
1.80066e+07
1.80065e+07
1.80064e+07
1.80063e+07
1.80062e+07
1.80061e+07
1.80061e+07
1.8006e+07
1.8006e+07
1.80057e+07
1.80047e+07
1.80123e+07
1.80165e+07
1.80199e+07
1.80203e+07
1.80198e+07
1.80195e+07
1.80195e+07
1.80195e+07
1.80195e+07
1.80194e+07
1.80193e+07
1.80192e+07
1.80191e+07
1.80189e+07
1.80188e+07
1.80186e+07
1.80185e+07
1.80183e+07
1.80181e+07
1.80179e+07
1.80177e+07
1.80174e+07
1.80172e+07
1.80169e+07
1.80167e+07
1.80164e+07
1.80161e+07
1.80158e+07
1.80156e+07
1.80153e+07
1.8015e+07
1.80147e+07
1.80145e+07
1.80141e+07
1.80138e+07
1.80136e+07
1.80133e+07
1.80131e+07
1.80129e+07
1.80127e+07
1.80125e+07
1.80124e+07
1.80123e+07
1.80122e+07
1.80122e+07
1.80122e+07