/*--------------------------------*- C++ -*----------------------------------*\
| =========                 |                                                 |
| \\      /  F ield         | OpenFOAM: The Open Source CFD Toolbox           |
|  \\    /   O peration     | Version:  3.0.x                                 |
|   \\  /    A nd           | Web:      www.OpenFOAM.org                      |
|    \\/     M anipulation  |                                                 |
\*---------------------------------------------------------------------------*/
FoamFile
{
    version     2.0;
    format      ascii;
    class       volScalarField;
    location    "0.22";
    object      T;
}
// * * * * * * * * * * * * * * * * * * * * * * * * * * * * * * * * * * * * * //

dimensions      [0 0 0 1 0 0 0];

internalField   nonuniform List<scalar> 
6900
(
774.098
774.098
774.099
774.099
774.098
774.097
774.094
774.092
774.089
774.086
774.083
774.08
774.077
774.074
774.072
774.071
774.07
774.07
774.071
774.071
774.071
774.07
774.068
774.065
774.063
774.062
774.061
774.061
774.061
774.062
774.063
774.064
774.065
774.067
774.068
774.07
774.072
774.074
774.076
774.078
774.08
774.082
774.084
774.086
774.088
774.091
774.093
774.095
774.097
774.099
774.101
774.103
774.105
774.107
774.109
774.111
774.112
774.114
774.115
774.117
774.118
774.119
774.12
774.121
774.121
774.122
774.122
774.123
774.123
774.124
774.124
774.124
774.124
774.125
774.125
774.125
774.125
774.125
774.126
774.126
774.126
774.126
774.127
774.127
774.127
774.127
774.128
774.128
774.128
774.129
774.129
774.129
774.129
774.129
774.129
774.129
774.129
774.129
774.129
774.128
774.128
774.127
774.127
774.126
774.125
774.125
774.124
774.123
774.122
774.121
774.12
774.119
774.117
774.116
774.115
774.114
774.112
774.111
774.109
774.108
774.106
774.105
774.103
774.102
774.1
774.098
774.096
774.094
774.092
774.09
774.088
774.086
774.084
774.081
774.079
774.077
774.074
774.072
774.07
774.067
774.065
774.063
774.06
774.058
774.056
774.053
774.051
774.049
774.047
774.045
774.043
774.041
774.039
774.037
774.036
774.034
774.032
774.031
774.029
774.028
774.026
774.025
774.023
774.021
774.02
774.018
774.016
774.014
774.012
774.01
774.008
774.006
774.004
774.002
774
773.998
773.996
773.994
773.992
773.99
773.988
773.986
773.984
773.982
773.98
773.979
773.977
773.976
773.974
773.973
773.971
773.97
773.969
773.968
773.967
773.967
773.965
773.965
773.964
774.029
774.097
774.097
774.097
774.097
774.097
774.096
774.093
774.09
774.087
774.085
774.082
774.079
774.076
774.073
774.071
774.07
774.069
774.069
774.069
774.07
774.07
774.069
774.067
774.064
774.062
774.061
774.06
774.06
774.06
774.061
774.062
774.063
774.064
774.066
774.067
774.069
774.071
774.073
774.075
774.076
774.079
774.081
774.083
774.085
774.087
774.089
774.092
774.094
774.096
774.098
774.1
774.102
774.104
774.106
774.108
774.11
774.111
774.113
774.114
774.116
774.117
774.118
774.119
774.12
774.12
774.121
774.121
774.122
774.122
774.123
774.123
774.123
774.123
774.124
774.124
774.124
774.124
774.124
774.125
774.125
774.125
774.125
774.126
774.126
774.126
774.126
774.127
774.127
774.127
774.128
774.128
774.128
774.128
774.128
774.128
774.128
774.128
774.128
774.127
774.127
774.127
774.126
774.126
774.125
774.124
774.124
774.123
774.122
774.121
774.12
774.119
774.118
774.116
774.115
774.114
774.113
774.111
774.11
774.108
774.107
774.105
774.104
774.102
774.101
774.099
774.097
774.095
774.093
774.091
774.089
774.087
774.085
774.083
774.08
774.078
774.076
774.073
774.071
774.069
774.066
774.064
774.062
774.059
774.057
774.055
774.052
774.05
774.048
774.046
774.044
774.042
774.04
774.038
774.036
774.035
774.033
774.031
774.03
774.028
774.027
774.025
774.024
774.022
774.02
774.019
774.017
774.015
774.013
774.011
774.009
774.007
774.005
774.003
774.001
773.999
773.997
773.995
773.993
773.991
773.989
773.987
773.985
773.983
773.981
773.979
773.978
773.976
773.975
773.973
773.972
773.97
773.969
773.968
773.967
773.966
773.966
773.964
773.964
773.963
774.022
774.097
774.097
774.097
774.097
774.097
774.096
774.093
774.09
774.087
774.085
774.082
774.079
774.076
774.073
774.071
774.07
774.069
774.069
774.069
774.07
774.07
774.069
774.067
774.064
774.062
774.061
774.06
774.06
774.06
774.061
774.062
774.063
774.064
774.066
774.067
774.069
774.071
774.073
774.075
774.076
774.079
774.081
774.083
774.085
774.087
774.089
774.092
774.094
774.096
774.098
774.1
774.102
774.104
774.106
774.108
774.11
774.111
774.113
774.114
774.116
774.117
774.118
774.119
774.12
774.12
774.121
774.121
774.122
774.122
774.123
774.123
774.123
774.123
774.124
774.124
774.124
774.124
774.124
774.125
774.125
774.125
774.125
774.126
774.126
774.126
774.126
774.127
774.127
774.127
774.128
774.128
774.128
774.128
774.128
774.128
774.128
774.128
774.128
774.127
774.127
774.127
774.126
774.126
774.125
774.124
774.124
774.123
774.122
774.121
774.12
774.119
774.118
774.116
774.115
774.114
774.113
774.111
774.11
774.108
774.107
774.105
774.104
774.102
774.101
774.099
774.097
774.095
774.093
774.091
774.089
774.087
774.085
774.083
774.08
774.078
774.076
774.073
774.071
774.069
774.066
774.064
774.062
774.059
774.057
774.055
774.052
774.05
774.048
774.046
774.044
774.042
774.04
774.038
774.036
774.035
774.033
774.031
774.03
774.028
774.027
774.025
774.024
774.022
774.02
774.019
774.017
774.015
774.013
774.011
774.009
774.007
774.005
774.003
774.001
773.999
773.997
773.995
773.993
773.991
773.989
773.987
773.985
773.983
773.981
773.979
773.978
773.976
773.975
773.973
773.972
773.97
773.969
773.968
773.967
773.966
773.965
773.964
773.964
773.962
773.964
774.097
774.097
774.097
774.097
774.097
774.096
774.093
774.09
774.087
774.085
774.082
774.079
774.076
774.073
774.071
774.07
774.069
774.069
774.069
774.07
774.07
774.069
774.067
774.064
774.062
774.061
774.06
774.06
774.06
774.061
774.062
774.063
774.064
774.066
774.067
774.069
774.071
774.073
774.075
774.076
774.079
774.081
774.083
774.085
774.087
774.089
774.092
774.094
774.096
774.098
774.1
774.102
774.104
774.106
774.108
774.11
774.111
774.113
774.114
774.116
774.117
774.118
774.119
774.12
774.12
774.121
774.121
774.122
774.122
774.123
774.123
774.123
774.123
774.124
774.124
774.124
774.124
774.124
774.125
774.125
774.125
774.125
774.126
774.126
774.126
774.126
774.127
774.127
774.127
774.128
774.128
774.128
774.128
774.128
774.128
774.128
774.128
774.128
774.127
774.127
774.127
774.126
774.126
774.125
774.124
774.124
774.123
774.122
774.121
774.12
774.119
774.118
774.116
774.115
774.114
774.113
774.111
774.11
774.108
774.107
774.105
774.104
774.102
774.101
774.099
774.097
774.095
774.093
774.091
774.089
774.087
774.085
774.083
774.08
774.078
774.076
774.073
774.071
774.069
774.066
774.064
774.062
774.059
774.057
774.055
774.052
774.05
774.048
774.046
774.044
774.042
774.04
774.038
774.036
774.035
774.033
774.031
774.03
774.028
774.027
774.025
774.024
774.022
774.02
774.019
774.017
774.015
774.013
774.011
774.009
774.007
774.005
774.003
774.001
773.999
773.997
773.995
773.993
773.991
773.989
773.987
773.985
773.983
773.981
773.98
773.978
773.976
773.974
773.973
773.972
773.971
773.969
773.968
773.967
773.967
773.965
773.965
773.961
773.964
773.846
774.098
774.098
774.099
774.099
774.098
774.097
774.094
774.092
774.089
774.086
774.083
774.08
774.077
774.074
774.072
774.071
774.07
774.07
774.071
774.071
774.071
774.07
774.068
774.065
774.063
774.062
774.061
774.061
774.061
774.062
774.063
774.064
774.065
774.067
774.068
774.07
774.072
774.074
774.076
774.078
774.08
774.082
774.084
774.086
774.088
774.091
774.093
774.095
774.097
774.099
774.101
774.103
774.105
774.107
774.109
774.111
774.112
774.114
774.115
774.117
774.118
774.119
774.12
774.121
774.121
774.122
774.122
774.123
774.123
774.124
774.124
774.124
774.124
774.125
774.125
774.125
774.125
774.125
774.126
774.126
774.126
774.126
774.127
774.127
774.127
774.127
774.128
774.128
774.128
774.129
774.129
774.129
774.129
774.129
774.129
774.129
774.129
774.129
774.129
774.128
774.128
774.127
774.127
774.126
774.125
774.125
774.124
774.123
774.122
774.121
774.12
774.119
774.117
774.116
774.115
774.114
774.112
774.111
774.109
774.108
774.106
774.105
774.103
774.102
774.1
774.098
774.096
774.094
774.092
774.09
774.088
774.086
774.084
774.081
774.079
774.077
774.074
774.072
774.07
774.067
774.065
774.063
774.06
774.058
774.056
774.053
774.051
774.049
774.047
774.045
774.043
774.041
774.039
774.037
774.036
774.034
774.032
774.031
774.029
774.028
774.026
774.025
774.023
774.021
774.02
774.018
774.016
774.014
774.012
774.01
774.008
774.006
774.004
774.002
774
773.998
773.996
773.994
773.992
773.99
773.988
773.986
773.984
773.982
773.98
773.979
773.977
773.975
773.974
773.973
773.972
773.97
773.969
773.968
773.968
773.966
773.966
773.961
773.972
773.765
774.013
774.026
774.024
774.023
774.02
774.016
774.01
774.007
774.01
774.016
774
773.98
773.969
773.949
773.904
773.887
773.892
773.904
773.923
773.831
774.001
774.004
774.002
773.997
773.993
773.987
773.978
773.973
773.974
773.979
773.96
773.935
773.931
773.917
773.87
773.83
773.833
773.845
773.864
773.816
773.963
773.962
773.959
773.955
773.95
773.943
773.937
773.929
773.919
773.912
773.905
773.902
773.898
773.888
773.877
773.868
773.861
773.854
773.846
773.847
773.897
773.897
773.903
773.901
773.894
773.881
773.866
773.844
773.831
773.808
773.791
773.78
773.759
773.74
773.729
773.713
773.703
773.69
773.683
773.674
773.847
773.827
773.823
773.825
773.824
773.819
773.807
773.793
773.779
773.766
773.749
773.738
773.722
773.713
773.7
773.696
773.686
773.687
773.692
773.716
773.695
773.653
773.646
773.616
773.617
773.634
773.632
773.619
773.614
773.616
773.618
773.618
773.614
773.613
773.612
773.612
773.611
773.61
773.609
773.608
773.607
773.606
773.605
773.603
773.601
773.6
773.599
773.599
773.599
773.598
773.597
773.595
773.59
773.585
773.585
773.587
773.59
773.591
773.59
773.59
773.59
773.591
773.592
773.593
773.597
773.617
773.724
774.027
774.258
774.327
774.302
774.103
773.761
773.557
773.471
773.452
773.457
773.484
773.51
773.525
773.534
773.54
773.543
773.546
773.547
773.548
773.549
773.549
773.55
773.55
773.55
773.55
773.55
773.55
773.55
773.55
773.55
773.549
773.549
773.549
773.548
773.548
773.547
773.546
773.546
773.545
773.544
773.544
773.543
773.542
773.542
773.541
773.54
773.54
773.539
773.539
773.538
773.538
773.538
773.537
773.537
773.537
773.537
773.537
773.537
773.538
773.538
773.538
773.538
773.539
773.539
773.539
773.54
773.54
773.541
773.541
773.541
773.541
773.542
773.542
773.542
773.542
773.542
773.542
773.542
773.542
773.542
773.541
773.541
773.541
773.54
773.539
773.539
773.538
773.538
773.537
773.536
773.535
773.535
773.534
773.533
773.533
773.532
773.531
773.531
773.53
773.53
773.53
773.529
773.529
773.529
773.529
773.529
773.529
773.529
773.528
773.529
773.529
773.529
773.529
773.529
773.528
773.528
773.528
773.528
773.527
773.527
773.526
773.526
773.525
773.524
773.523
773.522
773.521
773.52
773.519
773.517
773.516
773.515
773.513
773.512
773.51
773.508
773.506
773.505
773.503
773.501
773.499
773.497
773.496
773.494
773.492
773.491
773.489
773.488
773.487
773.486
773.481
773.486
773.316
773.67
773.661
773.654
773.627
773.633
773.651
773.648
773.635
773.632
773.635
773.637
773.635
773.632
773.631
773.631
773.63
773.628
773.627
773.626
773.625
773.624
773.623
773.622
773.621
773.621
773.621
773.621
773.621
773.621
773.62
773.618
773.616
773.615
773.616
773.619
773.621
773.62
773.619
773.618
773.616
773.616
773.615
773.616
773.617
773.623
773.658
773.795
773.967
774.051
774.062
774.023
773.859
773.682
773.581
773.536
773.521
773.519
773.522
773.53
773.536
773.54
773.542
773.544
773.546
773.547
773.547
773.548
773.548
773.549
773.549
773.549
773.549
773.549
773.549
773.549
773.549
773.549
773.548
773.548
773.548
773.547
773.547
773.546
773.545
773.545
773.544
773.543
773.543
773.542
773.541
773.541
773.54
773.539
773.539
773.538
773.538
773.537
773.537
773.537
773.537
773.536
773.536
773.536
773.536
773.536
773.537
773.537
773.537
773.537
773.538
773.538
773.538
773.539
773.539
773.54
773.54
773.54
773.54
773.541
773.541
773.541
773.541
773.541
773.541
773.541
773.541
773.541
773.54
773.54
773.54
773.539
773.538
773.538
773.537
773.537
773.536
773.535
773.534
773.534
773.533
773.532
773.532
773.531
773.53
773.53
773.529
773.529
773.529
773.528
773.528
773.528
773.528
773.528
773.528
773.528
773.528
773.528
773.528
773.528
773.528
773.528
773.528
773.527
773.527
773.527
773.526
773.526
773.525
773.525
773.524
773.523
773.522
773.521
773.52
773.519
773.518
773.517
773.515
773.514
773.512
773.511
773.509
773.507
773.505
773.504
773.502
773.5
773.498
773.496
773.495
773.493
773.491
773.49
773.488
773.487
773.486
773.485
773.481
773.481
773.384
773.851
773.854
773.868
773.875
773.882
773.881
773.879
773.879
773.879
773.879
773.878
773.876
773.874
773.873
773.872
773.871
773.87
773.87
773.87
773.871
773.873
773.875
773.875
773.876
773.877
773.878
773.879
773.881
773.883
773.883
773.883
773.881
773.877
773.859
773.806
773.74
773.686
773.646
773.619
773.602
773.594
773.59
773.588
773.588
773.591
773.592
773.592
773.59
773.582
773.573
773.564
773.558
773.554
773.552
773.552
773.551
773.551
773.551
773.55
773.55
773.549
773.549
773.549
773.549
773.549
773.549
773.549
773.549
773.549
773.549
773.549
773.549
773.549
773.549
773.549
773.549
773.549
773.548
773.548
773.548
773.547
773.547
773.546
773.545
773.545
773.544
773.543
773.543
773.542
773.541
773.541
773.54
773.539
773.539
773.538
773.538
773.537
773.537
773.537
773.537
773.536
773.536
773.536
773.536
773.536
773.537
773.537
773.537
773.537
773.538
773.538
773.538
773.539
773.539
773.54
773.54
773.54
773.54
773.541
773.541
773.541
773.541
773.541
773.541
773.541
773.541
773.541
773.54
773.54
773.54
773.539
773.538
773.538
773.537
773.537
773.536
773.535
773.534
773.534
773.533
773.532
773.532
773.531
773.53
773.53
773.529
773.529
773.529
773.528
773.528
773.528
773.528
773.528
773.528
773.528
773.528
773.528
773.528
773.528
773.528
773.528
773.528
773.527
773.527
773.527
773.526
773.526
773.525
773.525
773.524
773.523
773.522
773.521
773.52
773.519
773.518
773.517
773.515
773.514
773.512
773.511
773.509
773.507
773.505
773.504
773.502
773.5
773.498
773.496
773.495
773.493
773.492
773.49
773.489
773.487
773.486
773.485
773.484
773.483
773.485
773.651
773.643
773.635
773.632
773.633
773.631
773.627
773.625
773.624
773.625
773.625
773.623
773.622
773.622
773.621
773.62
773.62
773.619
773.618
773.617
773.616
773.614
773.612
773.61
773.609
773.607
773.606
773.604
773.602
773.6
773.598
773.596
773.596
773.596
773.598
773.601
773.603
773.604
773.606
773.612
773.624
773.634
773.639
773.645
773.661
773.708
773.753
773.772
773.773
773.762
773.708
773.631
773.578
773.549
773.536
773.532
773.532
773.534
773.537
773.54
773.543
773.544
773.546
773.547
773.547
773.548
773.548
773.549
773.549
773.549
773.549
773.549
773.549
773.549
773.549
773.549
773.549
773.548
773.548
773.548
773.547
773.547
773.546
773.545
773.545
773.544
773.543
773.543
773.542
773.541
773.541
773.54
773.539
773.539
773.538
773.538
773.537
773.537
773.537
773.537
773.536
773.536
773.536
773.536
773.536
773.537
773.537
773.537
773.537
773.538
773.538
773.538
773.539
773.539
773.54
773.54
773.54
773.54
773.541
773.541
773.541
773.541
773.541
773.541
773.541
773.541
773.541
773.54
773.54
773.54
773.539
773.538
773.538
773.537
773.537
773.536
773.535
773.534
773.534
773.533
773.532
773.532
773.531
773.53
773.53
773.529
773.529
773.529
773.528
773.528
773.528
773.528
773.528
773.528
773.528
773.528
773.528
773.528
773.528
773.528
773.528
773.528
773.527
773.527
773.527
773.526
773.526
773.525
773.525
773.524
773.523
773.522
773.521
773.52
773.519
773.518
773.517
773.515
773.514
773.512
773.511
773.509
773.507
773.505
773.504
773.502
773.5
773.498
773.496
773.495
773.493
773.492
773.49
773.489
773.487
773.486
773.485
773.485
773.487
773.535
773.762
773.76
773.754
773.748
773.748
773.746
773.742
773.741
773.741
773.741
773.74
773.739
773.739
773.738
773.738
773.737
773.736
773.735
773.734
773.732
773.73
773.728
773.726
773.724
773.723
773.721
773.72
773.718
773.716
773.714
773.713
773.713
773.714
773.717
773.717
773.717
773.718
773.722
773.73
773.732
773.732
773.73
773.73
773.747
773.847
774.065
774.205
774.253
774.25
774.188
774.012
773.852
773.74
773.665
773.617
773.588
773.571
773.561
773.555
773.552
773.551
773.55
773.55
773.549
773.55
773.55
773.55
773.55
773.55
773.55
773.55
773.55
773.55
773.55
773.55
773.55
773.55
773.549
773.549
773.549
773.548
773.548
773.547
773.546
773.546
773.545
773.544
773.544
773.543
773.542
773.542
773.541
773.54
773.54
773.539
773.539
773.538
773.538
773.538
773.537
773.537
773.537
773.537
773.537
773.537
773.538
773.538
773.538
773.538
773.539
773.539
773.539
773.54
773.54
773.541
773.541
773.541
773.541
773.542
773.542
773.542
773.542
773.542
773.542
773.542
773.542
773.542
773.541
773.541
773.541
773.54
773.539
773.539
773.538
773.538
773.537
773.536
773.535
773.535
773.534
773.533
773.533
773.532
773.531
773.531
773.53
773.53
773.53
773.529
773.529
773.529
773.529
773.529
773.529
773.528
773.528
773.529
773.529
773.529
773.529
773.529
773.528
773.528
773.528
773.528
773.527
773.527
773.526
773.526
773.525
773.524
773.523
773.522
773.521
773.52
773.519
773.517
773.516
773.515
773.513
773.512
773.51
773.508
773.506
773.505
773.503
773.501
773.499
773.497
773.496
773.494
773.493
773.491
773.49
773.488
773.487
773.486
773.486
773.488
773.54
773.376
773.356
773.351
773.352
773.351
773.346
773.333
773.324
773.307
773.298
773.28
773.271
773.255
773.248
773.234
773.23
773.22
773.22
773.224
773.246
773.422
773.422
773.427
773.425
773.419
773.405
773.388
773.375
773.353
773.342
773.321
773.303
773.288
773.272
773.257
773.251
773.239
773.229
773.22
773.208
773.485
773.485
773.482
773.478
773.472
773.466
773.459
773.451
773.445
773.438
773.433
773.426
773.416
773.407
773.4
773.394
773.386
773.384
773.391
773.4
773.522
773.525
773.522
773.519
773.515
773.509
773.508
773.508
773.5
773.482
773.476
773.461
773.424
773.397
773.399
773.411
773.422
773.42
773.365
773.23
773.533
773.546
773.544
773.544
773.541
773.539
773.539
773.54
773.535
773.521
773.513
773.495
773.464
773.45
773.454
773.463
773.474
773.473
773.418
773.281
773.301
773.299
773.295
773.295
773.293
773.287
773.286
773.286
773.287
773.286
773.284
773.284
773.283
773.282
773.281
773.28
773.279
773.277
773.276
773.274
773.272
773.27
773.268
773.266
773.265
773.263
773.26
773.258
773.256
773.254
773.254
773.254
773.254
773.255
773.254
773.253
773.253
773.254
773.259
773.265
773.266
773.265
773.262
773.263
773.284
773.395
773.612
773.743
773.786
773.781
773.712
773.534
773.38
773.271
773.199
773.153
773.124
773.107
773.097
773.091
773.088
773.085
773.084
773.082
773.081
773.08
773.079
773.078
773.077
773.075
773.074
773.073
773.071
773.07
773.069
773.067
773.066
773.064
773.063
773.061
773.06
773.058
773.057
773.056
773.054
773.053
773.052
773.05
773.049
773.048
773.047
773.047
773.046
773.045
773.045
773.044
773.044
773.041
773.045
772.884
773.191
773.182
773.179
773.18
773.179
773.173
773.171
773.171
773.173
773.173
773.172
773.17
773.17
773.17
773.168
773.167
773.166
773.165
773.163
773.162
773.16
773.158
773.156
773.155
773.153
773.151
773.149
773.147
773.145
773.142
773.14
773.138
773.138
773.139
773.139
773.14
773.14
773.141
773.142
773.144
773.151
773.163
773.171
773.176
773.181
773.197
773.243
773.286
773.304
773.305
773.293
773.238
773.164
773.114
773.087
773.074
773.07
773.069
773.07
773.073
773.076
773.077
773.078
773.078
773.078
773.078
773.077
773.076
773.075
773.074
773.073
773.072
773.07
773.069
773.068
773.066
773.065
773.063
773.062
773.06
773.059
773.058
773.056
773.055
773.053
773.052
773.051
773.049
773.048
773.047
773.046
773.046
773.045
773.044
773.044
773.044
773.043
773.041
773.04
772.949
773.372
773.38
773.408
773.416
773.418
773.415
773.416
773.417
773.418
773.418
773.417
773.416
773.415
773.414
773.413
773.412
773.412
773.411
773.411
773.411
773.411
773.412
773.413
773.412
773.412
773.411
773.41
773.411
773.414
773.416
773.417
773.417
773.416
773.41
773.389
773.332
773.271
773.222
773.185
773.161
773.146
773.137
773.133
773.131
773.131
773.131
773.132
773.131
773.128
773.119
773.11
773.102
773.096
773.092
773.09
773.089
773.088
773.088
773.087
773.086
773.085
773.084
773.083
773.081
773.08
773.079
773.078
773.077
773.076
773.074
773.073
773.072
773.07
773.069
773.068
773.066
773.065
773.063
773.062
773.06
773.059
773.058
773.056
773.055
773.053
773.052
773.051
773.049
773.048
773.047
773.046
773.046
773.045
773.044
773.044
773.044
773.043
773.044
773.044
773.046
773.186
773.192
773.179
773.178
773.199
773.197
773.181
773.176
773.18
773.185
773.184
773.18
773.178
773.178
773.178
773.177
773.175
773.174
773.173
773.173
773.171
773.169
773.166
773.165
773.165
773.164
773.164
773.164
773.163
773.161
773.158
773.157
773.157
773.16
773.161
773.161
773.157
773.154
773.151
773.15
773.15
773.152
773.154
773.156
773.158
773.166
773.205
773.343
773.505
773.581
773.591
773.552
773.39
773.217
773.118
773.072
773.057
773.055
773.058
773.065
773.071
773.074
773.076
773.077
773.077
773.077
773.077
773.076
773.075
773.074
773.073
773.071
773.07
773.069
773.068
773.066
773.065
773.063
773.062
773.06
773.059
773.058
773.056
773.055
773.053
773.052
773.051
773.049
773.048
773.047
773.046
773.046
773.045
773.044
773.044
773.044
773.044
773.045
773.047
773.094
773.187
773.189
773.174
773.166
773.184
773.184
773.167
773.159
773.162
773.168
773.168
773.163
773.161
773.161
773.161
773.16
773.158
773.157
773.156
773.155
773.154
773.152
773.149
773.146
773.144
773.144
773.143
773.143
773.142
773.141
773.138
773.134
773.129
773.128
773.13
773.13
773.13
773.129
773.127
773.126
773.125
773.126
773.128
773.13
773.132
773.136
773.156
773.256
773.541
773.765
773.836
773.817
773.642
773.31
773.105
773.015
772.993
772.996
773.019
773.045
773.06
773.068
773.073
773.076
773.077
773.077
773.077
773.077
773.076
773.075
773.074
773.072
773.071
773.07
773.069
773.067
773.066
773.064
773.063
773.061
773.06
773.058
773.057
773.056
773.054
773.053
773.052
773.05
773.049
773.048
773.047
773.047
773.046
773.045
773.045
773.045
773.045
773.046
773.048
773.099
772.94
772.921
772.915
772.917
772.916
772.911
772.898
772.889
772.872
772.864
772.846
772.837
772.822
772.815
772.802
772.797
772.788
772.787
772.791
772.812
772.986
772.985
772.99
772.989
772.982
772.969
772.952
772.939
772.918
772.907
772.886
772.869
772.855
772.839
772.824
772.818
772.807
772.796
772.789
772.776
773.047
773.047
773.044
773.04
773.035
773.029
773.022
773.014
773.009
773.002
772.998
772.992
772.982
772.974
772.967
772.961
772.955
772.952
772.96
772.969
773.083
773.086
773.084
773.081
773.077
773.072
773.071
773.072
773.065
773.046
773.041
773.028
772.992
772.964
772.965
772.977
772.989
772.99
772.939
772.802
773.094
773.107
773.106
773.106
773.103
773.102
773.101
773.104
773.1
773.085
773.078
773.062
773.031
773.016
773.02
773.029
773.041
773.042
772.991
772.852
772.867
772.869
772.865
772.867
772.867
772.865
772.864
772.866
772.867
772.868
772.868
772.868
772.869
772.869
772.869
772.869
772.869
772.869
772.869
772.868
772.868
772.867
772.867
772.866
772.866
772.865
772.864
772.863
772.862
772.862
772.862
772.863
772.866
772.868
772.868
772.87
772.873
772.883
772.89
772.893
772.892
772.892
772.898
772.944
773.119
773.311
773.402
773.42
773.397
773.276
773.096
772.964
772.875
772.817
772.782
772.761
772.749
772.743
772.74
772.738
772.738
772.737
772.738
772.738
772.738
772.738
772.738
772.739
772.739
772.739
772.738
772.738
772.738
772.738
772.737
772.737
772.737
772.736
772.736
772.735
772.735
772.734
772.734
772.733
772.733
772.732
772.732
772.731
772.731
772.731
772.731
772.73
772.73
772.73
772.73
772.73
772.73
772.73
772.73
772.731
772.731
772.731
772.731
772.732
772.732
772.732
772.733
772.733
772.733
772.734
772.734
772.734
772.735
772.735
772.735
772.735
772.735
772.735
772.735
772.735
772.735
772.735
772.735
772.734
772.734
772.734
772.733
772.733
772.733
772.732
772.732
772.732
772.731
772.731
772.731
772.73
772.73
772.73
772.73
772.729
772.729
772.729
772.729
772.729
772.729
772.73
772.73
772.73
772.73
772.731
772.731
772.731
772.731
772.732
772.732
772.732
772.732
772.732
772.732
772.733
772.733
772.733
772.732
772.732
772.732
772.732
772.732
772.732
772.731
772.731
772.731
772.731
772.73
772.73
772.73
772.73
772.729
772.729
772.728
772.728
772.728
772.728
772.727
772.727
772.727
772.727
772.727
772.727
772.727
772.727
772.727
772.727
772.728
772.728
772.728
772.729
772.73
772.731
772.734
772.787
772.759
772.752
772.751
772.754
772.754
772.751
772.75
772.751
772.754
772.754
772.754
772.754
772.755
772.755
772.755
772.755
772.755
772.755
772.755
772.755
772.754
772.754
772.754
772.753
772.753
772.752
772.752
772.751
772.75
772.749
772.749
772.749
772.75
772.753
772.755
772.758
772.76
772.762
772.767
772.779
772.792
772.801
772.806
772.817
772.849
772.9
772.931
772.939
772.935
772.906
772.833
772.774
772.738
772.721
772.716
772.715
772.717
772.721
772.725
772.729
772.731
772.733
772.734
772.735
772.736
772.737
772.737
772.737
772.737
772.737
772.737
772.737
772.737
772.737
772.736
772.736
772.736
772.735
772.735
772.734
772.734
772.733
772.733
772.732
772.732
772.731
772.731
772.73
772.73
772.73
772.73
772.729
772.729
772.729
772.729
772.729
772.729
772.729
772.729
772.73
772.73
772.73
772.73
772.731
772.731
772.731
772.732
772.732
772.732
772.733
772.733
772.733
772.734
772.734
772.734
772.734
772.734
772.734
772.734
772.734
772.734
772.734
772.734
772.733
772.733
772.733
772.733
772.732
772.732
772.732
772.731
772.731
772.73
772.73
772.73
772.729
772.729
772.729
772.729
772.728
772.728
772.728
772.728
772.728
772.728
772.729
772.729
772.729
772.729
772.73
772.73
772.73
772.73
772.731
772.731
772.731
772.731
772.731
772.731
772.732
772.732
772.732
772.732
772.731
772.731
772.731
772.731
772.731
772.731
772.73
772.73
772.73
772.729
772.729
772.729
772.729
772.728
772.728
772.728
772.727
772.727
772.727
772.726
772.726
772.726
772.726
772.726
772.726
772.726
772.726
772.726
772.726
772.727
772.727
772.727
772.728
772.729
772.73
772.733
772.782
772.945
772.953
772.983
772.992
772.994
772.993
772.994
772.996
772.998
772.998
772.998
772.999
772.999
772.999
772.999
773
773
773
773
773
773.002
773.004
773.006
773.007
773.009
773.012
773.016
773.02
773.024
773.027
773.027
773.027
773.022
773.002
772.945
772.885
772.837
772.803
772.781
772.769
772.763
772.761
772.76
772.761
772.763
772.764
772.764
772.76
772.751
772.744
772.739
772.735
772.734
772.733
772.734
772.735
772.735
772.736
772.736
772.736
772.736
772.737
772.737
772.737
772.737
772.737
772.738
772.738
772.738
772.738
772.737
772.737
772.737
772.737
772.736
772.736
772.736
772.735
772.735
772.734
772.734
772.733
772.733
772.732
772.732
772.731
772.731
772.73
772.73
772.73
772.73
772.729
772.729
772.729
772.729
772.729
772.729
772.729
772.729
772.73
772.73
772.73
772.73
772.731
772.731
772.731
772.732
772.732
772.732
772.733
772.733
772.733
772.734
772.734
772.734
772.734
772.734
772.734
772.734
772.734
772.734
772.734
772.734
772.733
772.733
772.733
772.733
772.732
772.732
772.732
772.731
772.731
772.73
772.73
772.73
772.729
772.729
772.729
772.729
772.728
772.728
772.728
772.728
772.728
772.728
772.729
772.729
772.729
772.729
772.73
772.73
772.73
772.73
772.731
772.731
772.731
772.731
772.731
772.731
772.732
772.732
772.732
772.732
772.731
772.731
772.731
772.731
772.731
772.731
772.73
772.73
772.73
772.729
772.729
772.729
772.729
772.728
772.728
772.728
772.727
772.727
772.727
772.726
772.726
772.726
772.726
772.726
772.726
772.726
772.726
772.726
772.726
772.727
772.727
772.727
772.728
772.729
772.729
772.73
772.733
772.759
772.767
772.754
772.755
772.776
772.773
772.759
772.756
772.761
772.765
772.765
772.763
772.763
772.764
772.765
772.765
772.764
772.764
772.764
772.764
772.764
772.763
772.762
772.762
772.762
772.763
772.765
772.765
772.766
772.765
772.765
772.766
772.77
772.775
772.78
772.78
772.778
772.778
772.778
772.778
772.78
772.782
772.784
772.789
772.807
772.888
773.065
773.184
773.22
773.209
773.113
772.921
772.795
772.731
772.707
772.702
772.704
772.712
772.72
772.725
772.729
772.731
772.733
772.735
772.736
772.736
772.737
772.737
772.737
772.737
772.737
772.737
772.737
772.737
772.736
772.736
772.736
772.735
772.735
772.734
772.734
772.733
772.733
772.732
772.732
772.731
772.731
772.73
772.73
772.73
772.73
772.729
772.729
772.729
772.729
772.729
772.729
772.729
772.729
772.73
772.73
772.73
772.73
772.731
772.731
772.731
772.732
772.732
772.732
772.733
772.733
772.733
772.734
772.734
772.734
772.734
772.734
772.734
772.734
772.734
772.734
772.734
772.734
772.733
772.733
772.733
772.733
772.732
772.732
772.732
772.731
772.731
772.73
772.73
772.73
772.729
772.729
772.729
772.729
772.728
772.728
772.728
772.728
772.728
772.728
772.729
772.729
772.729
772.729
772.73
772.73
772.73
772.73
772.731
772.731
772.731
772.731
772.731
772.731
772.732
772.732
772.732
772.732
772.731
772.731
772.731
772.731
772.731
772.731
772.73
772.73
772.73
772.729
772.729
772.729
772.729
772.728
772.728
772.728
772.727
772.727
772.727
772.726
772.726
772.726
772.726
772.726
772.726
772.726
772.726
772.726
772.726
772.727
772.727
772.727
772.728
772.728
772.726
772.726
772.634
772.76
772.764
772.748
772.742
772.761
772.759
772.745
772.739
772.743
772.749
772.749
772.747
772.747
772.747
772.748
772.748
772.748
772.748
772.748
772.748
772.747
772.747
772.746
772.746
772.746
772.746
772.746
772.747
772.747
772.747
772.746
772.744
772.741
772.74
772.745
772.748
772.751
772.751
772.751
772.752
772.755
772.758
772.76
772.764
772.774
772.824
773.03
773.316
773.452
773.465
773.381
773.081
772.816
772.685
772.643
772.641
772.656
772.686
772.706
772.718
772.725
772.73
772.733
772.735
772.736
772.737
772.738
772.738
772.738
772.738
772.738
772.738
772.738
772.738
772.737
772.737
772.737
772.736
772.736
772.735
772.735
772.734
772.734
772.733
772.733
772.732
772.732
772.731
772.731
772.731
772.731
772.73
772.73
772.73
772.73
772.73
772.73
772.73
772.73