/*--------------------------------*- C++ -*----------------------------------*\
| =========                 |                                                 |
| \\      /  F ield         | OpenFOAM: The Open Source CFD Toolbox           |
|  \\    /   O peration     | Version:  3.0.x                                 |
|   \\  /    A nd           | Web:      www.OpenFOAM.org                      |
|    \\/     M anipulation  |                                                 |
\*---------------------------------------------------------------------------*/
FoamFile
{
    version     2.0;
    format      ascii;
    class       volScalarField;
    location    "0.52";
    object      rho;
}
// * * * * * * * * * * * * * * * * * * * * * * * * * * * * * * * * * * * * * //

dimensions      [1 -3 0 0 0 0 0];

internalField   nonuniform List<scalar> 
27600
(
50.8642
50.8653
50.8669
50.8684
50.8697
50.871
50.8722
50.8732
50.8742
50.8752
50.8761
50.8769
50.8778
50.8786
50.8795
50.8803
50.8812
50.882
50.8829
50.8839
50.8848
50.8858
50.8869
50.8879
50.889
50.8901
50.8913
50.8925
50.8937
50.8949
50.8962
50.8976
50.8989
50.9003
50.9017
50.9032
50.9047
50.9062
50.9077
50.9093
50.9109
50.9126
50.9143
50.916
50.9177
50.9195
50.9213
50.9232
50.9251
50.927
50.9289
50.9309
50.9329
50.935
50.9371
50.9392
50.9413
50.9435
50.9457
50.9479
50.9502
50.9525
50.9549
50.9572
50.9596
50.9621
50.9646
50.9671
50.9696
50.9722
50.9748
50.9774
50.9801
50.9828
50.9855
50.9882
50.991
50.9939
50.9967
50.9996
51.0025
51.0055
51.0085
51.0115
51.0145
51.0176
51.0207
51.0238
51.0269
51.0301
51.0333
51.0366
51.0398
51.0432
51.0465
51.0499
51.0534
51.0569
51.0604
51.0639
51.0675
51.0711
51.0748
51.0784
51.0821
51.0858
51.0895
51.0933
51.0971
51.1009
51.1047
51.1085
51.1124
51.1163
51.1203
51.1243
51.1283
51.1324
51.1365
51.1406
51.1447
51.1489
51.1531
51.1573
51.1616
51.1659
51.1702
51.1746
51.179
51.1834
51.1879
51.1924
51.1969
51.2015
51.206
51.2106
51.2152
51.2199
51.2245
51.2292
51.2339
51.2386
51.2434
51.2481
51.2529
51.2577
51.2626
51.2674
51.2724
51.2773
51.2823
51.2873
51.2924
51.2974
51.3025
51.3077
51.3128
51.318
51.3232
51.3284
51.3336
51.3389
51.3441
51.3494
51.3547
51.3601
51.3654
51.3708
51.3762
51.3817
51.3871
51.3926
51.3981
51.4036
51.4092
51.4147
51.4203
51.4259
51.4315
51.4372
51.4429
51.4485
51.4543
51.46
51.4657
51.4715
51.4773
51.4831
51.489
51.4948
51.5007
51.5066
51.5125
51.5184
51.5244
51.5303
51.5363
51.5423
51.5483
51.5544
51.5604
51.5665
51.5726
51.5787
51.5848
51.591
51.5971
51.6033
51.6095
51.6157
51.6219
51.6282
51.6344
51.6407
51.647
51.6533
51.6596
51.666
51.6723
51.6787
51.685
51.6914
51.6978
51.7042
51.7107
51.7171
51.7236
51.73
51.7365
51.743
51.7495
51.756
51.7626
51.7691
51.7757
51.7822
51.7888
51.7954
51.802
51.8086
51.8152
51.8218
51.8285
51.8351
51.8418
51.8485
51.8551
51.8618
51.8685
51.8752
51.8819
51.8887
51.8954
51.9021
51.9089
51.9156
51.9224
51.9291
51.9359
51.9427
51.9495
51.9563
51.9631
51.9699
51.9767
51.9835
51.9903
51.9972
52.004
52.0109
52.0177
52.0245
52.0314
52.0383
52.0451
52.052
52.0589
52.0657
52.0726
52.0795
52.0864
52.0933
52.1002
52.107
52.1139
52.1208
52.1277
52.1346
52.1415
52.1484
52.1553
52.1622
52.1692
52.1761
52.183
52.1899
52.1968
52.2037
52.2106
52.2175
52.2244
52.2313
52.2382
52.2451
52.252
52.2589
52.2658
52.2727
52.2796
52.2865
52.2934
52.3003
52.3072
52.3141
52.321
52.3278
52.3347
52.3416
52.3484
52.3553
52.3622
52.369
52.3759
52.3827
52.3896
52.3964
52.4032
52.4101
52.4169
52.4237
52.4305
52.4373
52.4441
52.4509
52.4577
52.4645
52.4713
52.4781
52.4848
52.4916
52.4983
52.5051
52.5118
52.5185
52.5252
52.532
52.5387
52.5454
52.552
52.5587
52.5654
52.572
52.5787
52.5853
52.592
52.5986
52.6052
52.6118
52.6184
52.625
52.6316
52.6381
52.6447
52.6513
52.6578
52.6643
52.6708
52.6773
52.6838
52.6903
52.6968
52.7032
52.7097
52.7161
52.7226
52.7289
52.7354
52.7417
52.7482
52.7544
52.7609
52.767
52.7736
52.7797
52.7862
52.7922
52.7988
52.8047
52.8113
52.8172
52.8238
52.8296
52.8362
52.8419
52.8485
52.8543
52.8608
52.8666
52.8732
52.8785
50.8648
50.8658
50.8674
50.8689
50.8703
50.8715
50.8727
50.8738
50.8748
50.8757
50.8766
50.8775
50.8783
50.8792
50.88
50.8808
50.8817
50.8826
50.8835
50.8844
50.8854
50.8864
50.8874
50.8884
50.8895
50.8906
50.8918
50.893
50.8942
50.8955
50.8968
50.8981
50.8994
50.9008
50.9022
50.9037
50.9052
50.9067
50.9082
50.9098
50.9114
50.9131
50.9148
50.9165
50.9182
50.92
50.9218
50.9237
50.9256
50.9275
50.9294
50.9314
50.9334
50.9355
50.9375
50.9397
50.9418
50.944
50.9462
50.9484
50.9507
50.953
50.9554
50.9577
50.9601
50.9626
50.965
50.9675
50.9701
50.9726
50.9752
50.9779
50.9805
50.9832
50.986
50.9887
50.9915
50.9943
50.9972
51.0001
51.003
51.0059
51.0089
51.012
51.015
51.0181
51.0211
51.0243
51.0274
51.0306
51.0338
51.037
51.0403
51.0436
51.047
51.0504
51.0538
51.0573
51.0608
51.0644
51.068
51.0716
51.0752
51.0788
51.0825
51.0862
51.09
51.0937
51.0975
51.1013
51.1051
51.109
51.1129
51.1168
51.1207
51.1247
51.1287
51.1328
51.1369
51.141
51.1451
51.1493
51.1535
51.1578
51.162
51.1663
51.1706
51.175
51.1794
51.1838
51.1883
51.1928
51.1973
51.2018
51.2064
51.211
51.2156
51.2203
51.2249
51.2296
51.2343
51.239
51.2438
51.2485
51.2533
51.2581
51.263
51.2678
51.2727
51.2777
51.2827
51.2877
51.2927
51.2978
51.3029
51.308
51.3132
51.3183
51.3235
51.3287
51.334
51.3392
51.3445
51.3498
51.3551
51.3604
51.3658
51.3712
51.3766
51.382
51.3875
51.3929
51.3984
51.404
51.4095
51.4151
51.4206
51.4262
51.4319
51.4375
51.4432
51.4489
51.4546
51.4603
51.4661
51.4719
51.4777
51.4835
51.4893
51.4952
51.501
51.5069
51.5128
51.5188
51.5247
51.5307
51.5367
51.5427
51.5487
51.5547
51.5608
51.5669
51.5729
51.5791
51.5852
51.5913
51.5975
51.6037
51.6099
51.6161
51.6223
51.6285
51.6348
51.6411
51.6473
51.6536
51.66
51.6663
51.6726
51.679
51.6854
51.6918
51.6982
51.7046
51.711
51.7175
51.7239
51.7304
51.7369
51.7434
51.7499
51.7564
51.7629
51.7695
51.776
51.7826
51.7891
51.7957
51.8023
51.8089
51.8156
51.8222
51.8288
51.8355
51.8421
51.8488
51.8555
51.8622
51.8689
51.8756
51.8823
51.889
51.8957
51.9025
51.9092
51.916
51.9227
51.9295
51.9363
51.943
51.9498
51.9566
51.9634
51.9702
51.977
51.9839
51.9907
51.9975
52.0044
52.0112
52.018
52.0249
52.0317
52.0386
52.0455
52.0523
52.0592
52.0661
52.073
52.0798
52.0867
52.0936
52.1005
52.1074
52.1143
52.1212
52.1281
52.135
52.1419
52.1488
52.1557
52.1626
52.1695
52.1764
52.1833
52.1902
52.1971
52.204
52.2109
52.2178
52.2248
52.2317
52.2386
52.2455
52.2524
52.2593
52.2662
52.2731
52.28
52.2869
52.2938
52.3006
52.3075
52.3144
52.3213
52.3282
52.3351
52.3419
52.3488
52.3557
52.3625
52.3694
52.3762
52.3831
52.3899
52.3968
52.4036
52.4104
52.4172
52.4241
52.4309
52.4377
52.4445
52.4513
52.4581
52.4648
52.4716
52.4784
52.4852
52.4919
52.4987
52.5054
52.5121
52.5189
52.5256
52.5323
52.539
52.5457
52.5524
52.5591
52.5657
52.5724
52.579
52.5857
52.5923
52.5989
52.6056
52.6122
52.6188
52.6253
52.6319
52.6385
52.645
52.6516
52.6581
52.6646
52.6712
52.6777
52.6842
52.6906
52.6971
52.7035
52.71
52.7164
52.7229
52.7292
52.7357
52.742
52.7485
52.7547
52.7613
52.7674
52.7739
52.78
52.7866
52.7926
52.7991
52.8051
52.8117
52.8175
52.8241
52.8299
52.8365
52.8423
52.8489
52.8546
52.8612
52.8669
52.8735
52.8791
50.8648
50.8658
50.8674
50.8689
50.8703
50.8715
50.8727
50.8738
50.8748
50.8757
50.8766
50.8775
50.8783
50.8792
50.88
50.8808
50.8817
50.8826
50.8835
50.8844
50.8854
50.8864
50.8874
50.8884
50.8895
50.8906
50.8918
50.893
50.8942
50.8955
50.8967
50.8981
50.8994
50.9008
50.9022
50.9037
50.9052
50.9067
50.9082
50.9098
50.9114
50.9131
50.9148
50.9165
50.9182
50.92
50.9218
50.9237
50.9256
50.9275
50.9294
50.9314
50.9334
50.9355
50.9375
50.9397
50.9418
50.944
50.9462
50.9484
50.9507
50.953
50.9553
50.9577
50.9601
50.9626
50.965
50.9675
50.9701
50.9726
50.9752
50.9779
50.9805
50.9832
50.986
50.9887
50.9915
50.9943
50.9972
51.0001
51.003
51.0059
51.0089
51.012
51.015
51.0181
51.0211
51.0243
51.0274
51.0306
51.0338
51.037
51.0403
51.0436
51.047
51.0504
51.0538
51.0573
51.0608
51.0644
51.068
51.0716
51.0752
51.0788
51.0825
51.0862
51.09
51.0937
51.0975
51.1013
51.1051
51.109
51.1129
51.1168
51.1207
51.1247
51.1287
51.1328
51.1369
51.141
51.1451
51.1493
51.1535
51.1578
51.162
51.1663
51.1706
51.175
51.1794
51.1838
51.1883
51.1928
51.1973
51.2018
51.2064
51.211
51.2156
51.2203
51.2249
51.2296
51.2343
51.239
51.2438
51.2485
51.2533
51.2581
51.263
51.2678
51.2727
51.2777
51.2827
51.2877
51.2927
51.2978
51.3029
51.308
51.3132
51.3183
51.3235
51.3287
51.334
51.3392
51.3445
51.3498
51.3551
51.3604
51.3658
51.3712
51.3766
51.382
51.3875
51.3929
51.3984
51.404
51.4095
51.4151
51.4206
51.4263
51.4319
51.4375
51.4432
51.4489
51.4546
51.4603
51.4661
51.4719
51.4777
51.4835
51.4893
51.4952
51.501
51.5069
51.5128
51.5188
51.5247
51.5307
51.5367
51.5427
51.5487
51.5547
51.5608
51.5669
51.5729
51.5791
51.5852
51.5913
51.5975
51.6037
51.6099
51.6161
51.6223
51.6285
51.6348
51.6411
51.6473
51.6536
51.66
51.6663
51.6726
51.679
51.6854
51.6918
51.6982
51.7046
51.711
51.7175
51.7239
51.7304
51.7369
51.7434
51.7499
51.7564
51.7629
51.7695
51.776
51.7826
51.7891
51.7957
51.8023
51.8089
51.8156
51.8222
51.8288
51.8355
51.8421
51.8488
51.8555
51.8622
51.8689
51.8756
51.8823
51.889
51.8957
51.9025
51.9092
51.916
51.9227
51.9295
51.9363
51.943
51.9498
51.9566
51.9634
51.9702
51.977
51.9839
51.9907
51.9975
52.0044
52.0112
52.018
52.0249
52.0317
52.0386
52.0455
52.0523
52.0592
52.0661
52.073
52.0798
52.0867
52.0936
52.1005
52.1074
52.1143
52.1212
52.1281
52.135
52.1419
52.1488
52.1557
52.1626
52.1695
52.1764
52.1833
52.1902
52.1971
52.204
52.2109
52.2178
52.2248
52.2317
52.2386
52.2455
52.2524
52.2593
52.2662
52.2731
52.28
52.2869
52.2938
52.3006
52.3075
52.3144
52.3213
52.3282
52.3351
52.3419
52.3488
52.3557
52.3625
52.3694
52.3762
52.3831
52.3899
52.3968
52.4036
52.4104
52.4172
52.4241
52.4309
52.4377
52.4445
52.4513
52.4581
52.4648
52.4716
52.4784
52.4852
52.4919
52.4987
52.5054
52.5121
52.5189
52.5256
52.5323
52.539
52.5457
52.5524
52.5591
52.5657
52.5724
52.579
52.5857
52.5923
52.5989
52.6056
52.6122
52.6188
52.6253
52.6319
52.6385
52.645
52.6516
52.6581
52.6646
52.6712
52.6777
52.6842
52.6906
52.6971
52.7035
52.71
52.7164
52.7229
52.7292
52.7357
52.742
52.7485
52.7547
52.7613
52.7674
52.7739
52.78
52.7866
52.7926
52.7991
52.8051
52.8117
52.8175
52.8241
52.8299
52.8365
52.8423
52.8489
52.8546
52.8612
52.8669
52.8735
52.8791
50.8648
50.8658
50.8674
50.8689
50.8703
50.8715
50.8727
50.8738
50.8748
50.8757
50.8766
50.8775
50.8783
50.8791
50.88
50.8808
50.8817
50.8826
50.8835
50.8844
50.8853
50.8863
50.8874
50.8884
50.8895
50.8906
50.8918
50.893
50.8942
50.8954
50.8967
50.8981
50.8994
50.9008
50.9022
50.9037
50.9052
50.9067
50.9082
50.9098
50.9114
50.9131
50.9148
50.9165
50.9182
50.92
50.9218
50.9237
50.9256
50.9275
50.9294
50.9314
50.9334
50.9355
50.9375
50.9396
50.9418
50.944
50.9462
50.9484
50.9507
50.953
50.9553
50.9577
50.9601
50.9626
50.965
50.9675
50.9701
50.9726
50.9752
50.9779
50.9805
50.9832
50.9859
50.9887
50.9915
50.9943
50.9972
51.0001
51.003
51.0059
51.0089
51.0119
51.015
51.0181
51.0211
51.0242
51.0274
51.0306
51.0338
51.037
51.0403
51.0436
51.047
51.0504
51.0538
51.0573
51.0608
51.0644
51.0679
51.0715
51.0752
51.0788
51.0825
51.0862
51.09
51.0937
51.0975
51.1013
51.1051
51.109
51.1128
51.1168
51.1207
51.1247
51.1287
51.1328
51.1369
51.141
51.1451
51.1493
51.1535
51.1578
51.162
51.1663
51.1706
51.175
51.1794
51.1838
51.1883
51.1928
51.1973
51.2018
51.2064
51.211
51.2156
51.2203
51.2249
51.2296
51.2343
51.239
51.2438
51.2485
51.2533
51.2581
51.263
51.2678
51.2727
51.2777
51.2827
51.2877
51.2927
51.2978
51.3029
51.308
51.3132
51.3183
51.3235
51.3287
51.334
51.3392
51.3445
51.3498
51.3551
51.3604
51.3658
51.3712
51.3766
51.382
51.3875
51.3929
51.3984
51.404
51.4095
51.4151
51.4206
51.4263
51.4319
51.4375
51.4432
51.4489
51.4546
51.4603
51.4661
51.4719
51.4777
51.4835
51.4893
51.4952
51.501
51.5069
51.5128
51.5188
51.5247
51.5307
51.5367
51.5427
51.5487
51.5547
51.5608
51.5669
51.5729
51.5791
51.5852
51.5913
51.5975
51.6037
51.6099
51.6161
51.6223
51.6285
51.6348
51.6411
51.6473
51.6536
51.66
51.6663
51.6726
51.679
51.6854
51.6918
51.6982
51.7046
51.711
51.7175
51.7239
51.7304
51.7369
51.7434
51.7499
51.7564
51.7629
51.7695
51.776
51.7826
51.7891
51.7957
51.8023
51.8089
51.8156
51.8222
51.8288
51.8355
51.8421
51.8488
51.8555
51.8622
51.8689
51.8756
51.8823
51.889
51.8957
51.9025
51.9092
51.916
51.9227
51.9295
51.9363
51.943
51.9498
51.9566
51.9634
51.9702
51.977
51.9839
51.9907
51.9975
52.0044
52.0112
52.018
52.0249
52.0317
52.0386
52.0455
52.0523
52.0592
52.0661
52.073
52.0798
52.0867
52.0936
52.1005
52.1074
52.1143
52.1212
52.1281
52.135
52.1419
52.1488
52.1557
52.1626
52.1695
52.1764
52.1833
52.1902
52.1971
52.204
52.2109
52.2178
52.2248
52.2317
52.2386
52.2455
52.2524
52.2593
52.2662
52.2731
52.28
52.2869
52.2938
52.3006
52.3075
52.3144
52.3213
52.3282
52.3351
52.3419
52.3488
52.3557
52.3625
52.3694
52.3762
52.3831
52.3899
52.3968
52.4036
52.4104
52.4172
52.4241
52.4309
52.4377
52.4445
52.4513
52.4581
52.4648
52.4716
52.4784
52.4852
52.4919
52.4987
52.5054
52.5121
52.5189
52.5256
52.5323
52.539
52.5457
52.5524
52.5591
52.5657
52.5724
52.579
52.5857
52.5923
52.5989
52.6056
52.6122
52.6188
52.6253
52.6319
52.6385
52.645
52.6516
52.6581
52.6646
52.6712
52.6777
52.6842
52.6906
52.6971
52.7035
52.71
52.7164
52.7229
52.7292
52.7357
52.742
52.7485
52.7547
52.7613
52.7674
52.7739
52.78
52.7866
52.7926
52.7991
52.8051
52.8117
52.8175
52.8241
52.8299
52.8365
52.8423
52.8489
52.8546
52.8611
52.867
52.8733
52.8793
50.8647
50.8658
50.8674
50.8689
50.8702
50.8715
50.8727
50.8737
50.8747
50.8757
50.8766
50.8775
50.8783
50.8791
50.88
50.8808
50.8817
50.8825
50.8834
50.8844
50.8853
50.8863
50.8874
50.8884
50.8895
50.8906
50.8918
50.893
50.8942
50.8954
50.8967
50.898
50.8994
50.9008
50.9022
50.9037
50.9051
50.9067
50.9082
50.9098
50.9114
50.9131
50.9148
50.9165
50.9182
50.92
50.9218
50.9237
50.9255
50.9275
50.9294
50.9314
50.9334
50.9354
50.9375
50.9396
50.9418
50.944
50.9462
50.9484
50.9507
50.953
50.9553
50.9577
50.9601
50.9625
50.965
50.9675
50.9701
50.9726
50.9752
50.9779
50.9805
50.9832
50.9859
50.9887
50.9915
50.9943
50.9972
51.0001
51.003
51.0059
51.0089
51.0119
51.015
51.018
51.0211
51.0242
51.0274
51.0306
51.0338
51.037
51.0403
51.0436
51.047
51.0504
51.0538
51.0573
51.0608
51.0644
51.0679
51.0715
51.0752
51.0788
51.0825
51.0862
51.09
51.0937
51.0975
51.1013
51.1051
51.109
51.1128
51.1168
51.1207
51.1247
51.1287
51.1328
51.1369
51.141
51.1451
51.1493
51.1535
51.1578
51.162
51.1663
51.1706
51.175
51.1794
51.1838
51.1883
51.1928
51.1973
51.2018
51.2064
51.211
51.2156
51.2203
51.2249
51.2296
51.2343
51.239
51.2438
51.2485
51.2533
51.2581
51.263
51.2678
51.2727
51.2777
51.2827
51.2877
51.2927
51.2978
51.3029
51.308
51.3132
51.3183
51.3235
51.3287
51.334
51.3392
51.3445
51.3498
51.3551
51.3604
51.3658
51.3712
51.3766
51.382
51.3875
51.3929
51.3984
51.404
51.4095
51.4151
51.4206
51.4262
51.4319
51.4375
51.4432
51.4489
51.4546
51.4603
51.4661
51.4719
51.4777
51.4835
51.4893
51.4952
51.501
51.5069
51.5128
51.5188
51.5247
51.5307
51.5367
51.5427
51.5487
51.5547
51.5608
51.5669
51.5729
51.5791
51.5852
51.5913
51.5975
51.6037
51.6099
51.6161
51.6223
51.6285
51.6348
51.6411
51.6473
51.6536
51.66
51.6663
51.6726
51.679
51.6854
51.6918
51.6982
51.7046
51.711
51.7175
51.7239
51.7304
51.7369
51.7434
51.7499
51.7564
51.7629
51.7695
51.776
51.7826
51.7891
51.7957
51.8023
51.8089
51.8156
51.8222
51.8288
51.8355
51.8421
51.8488
51.8555
51.8622
51.8689
51.8756
51.8823
51.889
51.8957
51.9025
51.9092
51.916
51.9227
51.9295
51.9363
51.943
51.9498
51.9566
51.9634
51.9702
51.977
51.9839
51.9907
51.9975
52.0044
52.0112
52.018
52.0249
52.0317
52.0386
52.0455
52.0523
52.0592
52.0661
52.073
52.0798
52.0867
52.0936
52.1005
52.1074
52.1143
52.1212
52.1281
52.135
52.1419
52.1488
52.1557
52.1626
52.1695
52.1764
52.1833
52.1902
52.1971
52.204
52.2109
52.2178
52.2248
52.2317
52.2386
52.2455
52.2524
52.2593
52.2662
52.2731
52.28
52.2869
52.2938
52.3006
52.3075
52.3144
52.3213
52.3282
52.3351
52.3419
52.3488
52.3557
52.3625
52.3694
52.3762
52.3831
52.3899
52.3968
52.4036
52.4104
52.4172
52.4241
52.4309
52.4377
52.4445
52.4513
52.4581
52.4648
52.4716
52.4784
52.4852
52.4919
52.4987
52.5054
52.5121
52.5189
52.5256
52.5323
52.539
52.5457
52.5524
52.5591
52.5657
52.5724
52.579
52.5857
52.5923
52.5989
52.6056
52.6122
52.6188
52.6253
52.6319
52.6385
52.645
52.6516
52.6581
52.6646
52.6712
52.6777
52.6842
52.6906
52.6971
52.7035
52.7101
52.7164
52.7229
52.7292
52.7357
52.742
52.7485
52.7547
52.7613
52.7674
52.7739
52.78
52.7866
52.7926
52.7991
52.8051
52.8117
52.8175
52.8241
52.8299
52.8365
52.8423
52.8489
52.8546
52.8612
52.8669
52.8734
52.8791
50.8647
50.8658
50.8674
50.8689
50.8702
50.8715
50.8727
50.8737
50.8747
50.8757
50.8766
50.8775
50.8783
50.8791
50.88
50.8808
50.8817
50.8825
50.8834
50.8844
50.8853
50.8863
50.8874
50.8884
50.8895
50.8906
50.8918
50.893
50.8942
50.8954
50.8967
50.898
50.8994
50.9008
50.9022
50.9037
50.9051
50.9067
50.9082
50.9098
50.9114
50.9131
50.9148
50.9165
50.9182
50.92
50.9218
50.9237
50.9255
50.9275
50.9294
50.9314
50.9334
50.9354
50.9375
50.9396
50.9418
50.944
50.9462
50.9484
50.9507
50.953
50.9553
50.9577
50.9601
50.9625
50.965
50.9675
50.9701
50.9726
50.9752
50.9779
50.9805
50.9832
50.9859
50.9887
50.9915
50.9943
50.9972
51.0001
51.003
51.0059
51.0089
51.0119
51.015
51.018
51.0211
51.0242
51.0274
51.0306
51.0338
51.037
51.0403
51.0436
51.047
51.0504
51.0538
51.0573
51.0608
51.0644
51.0679
51.0715
51.0752
51.0788
51.0825
51.0862
51.09
51.0937
51.0975
51.1013
51.1051
51.109
51.1128
51.1168
51.1207
51.1247
51.1287
51.1328
51.1369
51.141
51.1451
51.1493
51.1535
51.1578
51.162
51.1663
51.1706
51.175
51.1794
51.1838
51.1883
51.1928
51.1973
51.2018
51.2064
51.211
51.2156
51.2203
51.2249
51.2296
51.2343
51.239
51.2438
51.2485
51.2533
51.2581
51.263
51.2678
51.2727
51.2777
51.2827
51.2877
51.2927
51.2978
51.3029
51.308
51.3132
51.3183
51.3235
51.3287
51.334
51.3392
51.3445
51.3498
51.3551
51.3604
51.3658
51.3712
51.3766
51.382
51.3875
51.3929
51.3984
51.404
51.4095
51.4151
51.4206
51.4262
51.4319
51.4375
51.4432
51.4489
51.4546
51.4603
51.4661
51.4719
51.4777
51.4835
51.4893
51.4952
51.501
51.5069
51.5128
51.5188
51.5247
51.5307
51.5367
51.5427
51.5487
51.5547
51.5608
51.5669
51.5729
51.5791
51.5852
51.5913
51.5975
51.6037
51.6099
51.6161
51.6223
51.6285
51.6348
51.6411
51.6473
51.6536
51.66
51.6663
51.6726
51.679
51.6854
51.6918
51.6982
51.7046
51.711
51.7175
51.7239
51.7304
51.7369
51.7434
51.7499
51.7564
51.7629
51.7695
51.776
51.7826
51.7891
51.7957
51.8023
51.8089
51.8156
51.8222
51.8288
51.8355
51.8421
51.8488
51.8555
51.8622
51.8689
51.8756
51.8823
51.889
51.8957
51.9025
51.9092
51.916
51.9227
51.9295
51.9363
51.943
51.9498
51.9566
51.9634
51.9702
51.977
51.9839
51.9907
51.9975
52.0044
52.0112
52.018
52.0249
52.0317
52.0386
52.0455
52.0523
52.0592
52.0661
52.073
52.0798
52.0867
52.0936
52.1005
52.1074
52.1143
52.1212
52.1281
52.135
52.1419
52.1488
52.1557
52.1626
52.1695
52.1764
52.1833
52.1902
52.1971
52.204
52.2109
52.2178
52.2248
52.2317
52.2386
52.2455
52.2524
52.2593
52.2662
52.2731
52.28
52.2869
52.2938
52.3006
52.3075
52.3144
52.3213
52.3282
52.3351
52.3419
52.3488
52.3557
52.3625
52.3694
52.3762
52.3831
52.3899
52.3968
52.4036
52.4104
52.4172
52.4241
52.4309
52.4377
52.4445
52.4513
52.4581
52.4648
52.4716
52.4784
52.4852
52.4919
52.4987
52.5054
52.5121
52.5189
52.5256
52.5323
52.539
52.5457
52.5524
52.5591
52.5657
52.5724
52.579
52.5857
52.5923
52.5989
52.6056
52.6122
52.6188
52.6253
52.6319
52.6385
52.645
52.6516
52.6581
52.6647
52.6712
52.6777
52.6842
52.6906
52.6971
52.7036
52.71
52.7164
52.7229
52.7293
52.7357
52.742
52.7485
52.7548
52.7612
52.7675
52.7738
52.7802
52.7864
52.7927
52.799
52.8052
52.8115
52.8177
52.824
52.8301
52.8363
52.8426
52.8485
52.855
52.8608
52.8672
52.873
52.8792
50.8648
50.8658
50.8674
50.8689
50.8703
50.8715
50.8727
50.8738
50.8748
50.8757
50.8766
50.8775
50.8783
50.8791
50.88
50.8808
50.8817
50.8826
50.8835
50.8844
50.8853
50.8863
50.8874
50.8884
50.8895
50.8906
50.8918
50.893
50.8942
50.8954
50.8967
50.8981
50.8994
50.9008
50.9022
50.9037
50.9052
50.9067
50.9082
50.9098
50.9114
50.9131
50.9148
50.9165
50.9182
50.92
50.9218
50.9237
50.9256
50.9275
50.9294
50.9314
50.9334
50.9355
50.9375
50.9396
50.9418
50.944
50.9462
50.9484
50.9507
50.953
50.9553
50.9577
50.9601
50.9626
50.965
50.9675
50.9701
50.9726
50.9752
50.9779
50.9805
50.9832
50.9859
50.9887
50.9915
50.9943
50.9972
51.0001
51.003
51.0059
51.0089
51.0119
51.015
51.0181
51.0211
51.0242
51.0274
51.0306
51.0338
51.037
51.0403
51.0436
51.047
51.0504
51.0538
51.0573
51.0608
51.0644
51.0679
51.0715
51.0752
51.0788
51.0825
51.0862
51.09
51.0937
51.0975
51.1013
51.1051
51.109
51.1128
51.1168
51.1207
51.1247
51.1287
51.1328
51.1369
51.141
51.1451
51.1493
51.1535
51.1578
51.162
51.1663
51.1706
51.175
51.1794
51.1838
51.1883
51.1928
51.1973
51.2018
51.2064
51.211
51.2156
51.2203
51.2249
51.2296
51.2343
51.239
51.2438
51.2485
51.2533
51.2581
51.263
51.2678
51.2727
51.2777
51.2827
51.2877
51.2927
51.2978
51.3029
51.308
51.3132
51.3183
51.3235
51.3287
51.334
51.3392
51.3445
51.3498
51.3551
51.3604
51.3658
51.3712
51.3766
51.382
51.3875
51.3929
51.3984
51.404
51.4095
51.4151
51.4206
51.4263
51.4319
51.4375
51.4432
51.4489
51.4546
51.4603
51.4661
51.4719
51.4777
51.4835
51.4893
51.4952
51.501
51.5069
51.5128
51.5188
51.5247
51.5307
51.5367
51.5427
51.5487
51.5547
51.5608
51.5669
51.5729
51.5791
51.5852
51.5913
51.5975
51.6037
51.6099
51.6161
51.6223
51.6285
51.6348
51.6411
51.6473
51.6536
51.66
51.6663
51.6726
51.679
51.6854
51.6918
51.6982
51.7046
51.711
51.7175
51.7239
51.7304
51.7369
51.7434
51.7499
51.7564
51.7629
51.7695
51.776
51.7826
51.7891
51.7957
51.8023
51.8089
51.8156
51.8222
51.8288
51.8355
51.8421
51.8488
51.8555
51.8622
51.8689
51.8756
51.8823
51.889
51.8957
51.9025
51.9092
51.916
51.9227
51.9295
51.9363
51.943
51.9498
51.9566
51.9634
51.9702
51.977
51.9839
51.9907
51.9975
52.0044
52.0112
52.018
52.0249
52.0317
52.0386
52.0455
52.0523
52.0592
52.0661
52.073
52.0798
52.0867
52.0936
52.1005
52.1074
52.1143
52.1212
52.1281
52.135
52.1419
52.1488
52.1557
52.1626
52.1695
52.1764
52.1833
52.1902
52.1971
52.204
52.2109
52.2178
52.2248
52.2317
52.2386
52.2455
52.2524
52.2593
52.2662
52.2731
52.28
52.2869
52.2938
52.3006
52.3075
52.3144
52.3213
52.3282
52.3351
52.3419
52.3488
52.3557
52.3625
52.3694
52.3762
52.3831
52.3899
52.3968
52.4036
52.4104
52.4172
52.4241
52.4309
52.4377
52.4445
52.4513
52.4581
52.4648
52.4716
52.4784
52.4852
52.4919
52.4987
52.5054
52.5121
52.5189
52.5256
52.5323
52.539
52.5457
52.5524
52.5591
52.5657
52.5724
52.579
52.5857
52.5923
52.5989
52.6056
52.6122
52.6188
52.6253
52.6319
52.6385
52.645
52.6516
52.6581
52.6647
52.6712
52.6777
52.6842
52.6906
52.6971
52.7036
52.71
52.7164
52.7229
52.7293
52.7357
52.7421
52.7484
52.7549
52.7611
52.7675
52.7738
52.7801
52.7865
52.7926
52.7991
52.8052
52.8115
52.8178
52.8238
52.8304
52.8361
52.8427
52.8485
52.855
52.8608
52.867
52.8729
52.8791
50.8648
50.8658
50.8674
50.8689
50.8703
50.8715
50.8727
50.8738
50.8748
50.8757
50.8766
50.8775
50.8783
50.8792
50.88
50.8808
50.8817
50.8826
50.8835
50.8844
50.8854
50.8864
50.8874
50.8884
50.8895
50.8906
50.8918
50.893
50.8942
50.8955
50.8967
50.8981
50.8994
50.9008
50.9022
50.9037
50.9052
50.9067
50.9082
50.9098
50.9114
50.9131
50.9148
50.9165
50.9182
50.92
50.9218
50.9237
50.9256
50.9275
50.9294
50.9314
50.9334
50.9355
50.9375
50.9397
50.9418
50.944
50.9462
50.9484
50.9507
50.953
50.9553
50.9577
50.9601
50.9626
50.965
50.9675
50.9701
50.9726
50.9752
50.9779
50.9805
50.9832
50.986
50.9887
50.9915
50.9943
50.9972
51.0001
51.003
51.0059
51.0089
51.012
51.015
51.0181
51.0211
51.0243
51.0274
51.0306
51.0338
51.037
51.0403
51.0436
51.047
51.0504
51.0538
51.0573
51.0608
51.0644
51.068
51.0716
51.0752
51.0788
51.0825
51.0862
51.09
51.0937
51.0975
51.1013
51.1051
51.109
51.1129
51.1168
51.1207
51.1247
51.1287
51.1328
51.1369
51.141
51.1451
51.1493
51.1535
51.1578
51.162
51.1663
51.1706
51.175
51.1794
51.1838
51.1883
51.1928
51.1973
51.2018
51.2064
51.211
51.2156
51.2203
51.2249
51.2296
51.2343
51.239
51.2438
51.2485
51.2533
51.2581
51.263
51.2678
51.2727
51.2777
51.2827
51.2877
51.2927
51.2978
51.3029
51.308
51.3132
51.3183
51.3235
51.3287
51.334
51.3392
51.3445
51.3498
51.3551
51.3604
51.3658
51.3712
51.3766
51.382
51.3875
51.3929
51.3984
51.404
51.4095
51.4151
51.4206
51.4263
51.4319
51.4375
51.4432
51.4489
51.4546
51.4603
51.4661
51.4719
51.4777
51.4835
51.4893
51.4952
51.501
51.5069
51.5128
51.5188
51.5247
51.5307
51.5367
51.5427
51.5487
51.5547
51.5608
51.5669
51.5729
51.5791
51.5852
51.5913
51.5975
51.6037
51.6099
51.6161
51.6223
51.6285
51.6348
51.6411
51.6473
51.6536
51.66
51.6663
51.6726
51.679
51.6854
51.6918
51.6982
51.7046
51.711
51.7175
51.7239
51.7304
51.7369
51.7434
51.7499
51.7564
51.7629
51.7695
51.776
51.7826
51.7891
51.7957
51.8023
51.8089
51.8156
51.8222
51.8288
51.8355
51.8421
51.8488
51.8555
51.8622
51.8689
51.8756
51.8823
51.889
51.8957
51.9025
51.9092
51.916
51.9227
51.9295
51.9363
51.943
51.9498
51.9566
51.9634
51.9702
51.977
51.9839
51.9907
51.9975
52.0044
52.0112
52.018
52.0249
52.0317
52.0386
52.0455
52.0523
52.0592
52.0661
52.073
52.0798
52.0867
52.0936
52.1005
52.1074
52.1143
52.1212
52.1281
52.135
52.1419
52.1488
52.1557
52.1626
52.1695
52.1764
52.1833
52.1902
52.1971
52.204
52.2109
52.2178
52.2248
52.2317
52.2386
52.2455
52.2524
52.2593
52.2662
52.2731
52.28
52.2869
52.2938
52.3006
52.3075
52.3144
52.3213
52.3282
52.3351
52.3419
52.3488
52.3557
52.3625
52.3694
52.3762
52.3831
52.3899
52.3968
52.4036
52.4104
52.4172
52.4241
52.4309
52.4377
52.4445
52.4513
52.4581
52.4648
52.4716
52.4784
52.4852
52.4919
52.4987
52.5054
52.5121
52.5189
52.5256
52.5323
52.539
52.5457
52.5524
52.5591
52.5657
52.5724
52.579
52.5857
52.5923
52.5989
52.6056
52.6122
52.6188
52.6253
52.6319
52.6385
52.645
52.6516
52.6581
52.6647
52.6712
52.6777
52.6842
52.6906
52.6971
52.7036
52.71
52.7164
52.7229
52.7293
52.7357
52.7421
52.7484
52.7549
52.761
52.7676
52.7737
52.7802
52.7863
52.7928
52.7989
52.8054
52.8113
52.8179
52.8237
52.8303
52.8361
52.8427
52.8484
52.855
52.8607
52.8672
52.8725
52.8793
50.8648
50.8658
50.8674
50.8689
50.8703
50.8715
50.8727
50.8738
50.8748
50.8757
50.8766
50.8775
50.8783
50.8792
50.88
50.8808
50.8817
50.8826
50.8835
50.8844
50.8854
50.8864
50.8874
50.8884
50.8895
50.8906
50.8918
50.893
50.8942
50.8955
50.8968
50.8981
50.8994
50.9008
50.9022
50.9037
50.9052
50.9067
50.9082
50.9098
50.9114
50.9131
50.9148
50.9165
50.9182
50.92
50.9218
50.9237
50.9256
50.9275
50.9294
50.9314
50.9334
50.9355
50.9375
50.9397
50.9418
50.944
50.9462
50.9484
50.9507
50.953
50.9554
50.9577
50.9601
50.9626
50.965
50.9675
50.9701
50.9726
50.9752
50.9779
50.9805
50.9832
50.986
50.9887
50.9915
50.9943
50.9972
51.0001
51.003
51.0059
51.0089
51.012
51.015
51.0181
51.0211
51.0243
51.0274
51.0306
51.0338
51.037
51.0403
51.0436
51.047
51.0504
51.0538
51.0573
51.0608
51.0644
51.068
51.0716
51.0752
51.0788
51.0825
51.0862
51.09
51.0937
51.0975
51.1013
51.1051
51.109
51.1129
51.1168
51.1207
51.1247
51.1287
51.1328
51.1369
51.141
51.1451
51.1493
51.1535
51.1578
51.162
51.1663
51.1706
51.175
51.1794
51.1838
51.1883
51.1928
51.1973
51.2018
51.2064
51.211
51.2156
51.2203
51.2249
51.2296
51.2343
51.239
51.2438
51.2485
51.2533
51.2581
51.263
51.2678
51.2727
51.2777
51.2827
51.2877
51.2927
51.2978
51.3029
51.308
51.3132
51.3183
51.3235
51.3287
51.334
51.3392
51.3445
51.3498
51.3551
51.3604
51.3658
51.3712
51.3766
51.382
51.3875
51.3929
51.3984
51.404
51.4095
51.4151
51.4206
51.4262
51.4319
51.4375
51.4432
51.4489
51.4546
51.4603
51.4661
51.4719
51.4777
51.4835
51.4893
51.4952
51.501
51.5069
51.5128
51.5188
51.5247
51.5307
51.5367
51.5427
51.5487
51.5547
51.5608
51.5669
51.5729
51.5791
51.5852
51.5913
51.5975
51.6037
51.6099
51.6161
51.6223
51.6285
51.6348
51.6411
51.6473
51.6536
51.66
51.6663
51.6726
51.679
51.6854
51.6918
51.6982
51.7046
51.711
51.7175
51.7239
51.7304
51.7369
51.7434
51.7499
51.7564
51.7629
51.7695
51.776
51.7826
51.7891
51.7957
51.8023
51.8089
51.8156
51.8222
51.8288
51.8355
51.8421
51.8488
51.8555
51.8622
51.8689
51.8756
51.8823
51.889
51.8957
51.9025
51.9092
51.916
51.9227
51.9295
51.9363
51.943
51.9498
51.9566
51.9634
51.9702
51.977
51.9839
51.9907
51.9975
52.0044
52.0112
52.018
52.0249
52.0317
52.0386
52.0455
52.0523
52.0592
52.0661
52.073
52.0798
52.0867
52.0936
52.1005
52.1074
52.1143
52.1212
52.1281
52.135
52.1419
52.1488
52.1557
52.1626
52.1695
52.1764
52.1833
52.1902
52.1971
52.204
52.2109
52.2178
52.2248
52.2317
52.2386
52.2455
52.2524
52.2593
52.2662
52.2731
52.28
52.2869
52.2938
52.3006
52.3075
52.3144
52.3213
52.3282
52.3351
52.3419
52.3488
52.3557
52.3625
52.3694
52.3762
52.3831
52.3899
52.3968
52.4036
52.4104
52.4172
52.4241
52.4309
52.4377
52.4445
52.4513
52.4581
52.4648
52.4716
52.4784
52.4852
52.4919
52.4987
52.5054
52.5121
52.5189
52.5256
52.5323
52.539
52.5457
52.5524
52.5591
52.5657
52.5724
52.579
52.5857
52.5923
52.5989
52.6056
52.6122
52.6188
52.6253
52.6319
52.6385
52.645
52.6516
52.6581
52.6647
52.6712
52.6777
52.6842
52.6906
52.6971
52.7036
52.71
52.7164
52.7229
52.7293
52.7356
52.7421
52.7484
52.7549
52.761
52.7676
52.7737
52.7803
52.7863
52.7929
52.7988
52.8054
52.8113
52.8179
52.8237
52.8304
52.8361
52.8427
52.8484
52.855
52.8607
52.8672
52.8724
52.8795
50.8642
50.8653
50.8669
50.8684
50.8697
50.871
50.8722
50.8732
50.8742
50.8752
50.8761
50.8769
50.8778
50.8786
50.8795
50.8803
50.8812
50.882
50.8829
50.8839
50.8848
50.8858
50.8869
50.8879
50.889
50.8901
50.8913
50.8925
50.8937
50.8949
50.8962
50.8976
50.8989
50.9003
50.9017
50.9032
50.9047
50.9062
50.9077
50.9093
50.9109
50.9126
50.9143
50.916
50.9177
50.9195
50.9213
50.9232
50.9251
50.927
50.9289
50.9309
50.9329
50.935
50.9371
50.9392
50.9413
50.9435
50.9457
50.9479
50.9502
50.9525
50.9549
50.9572
50.9596
50.9621
50.9646
50.9671
50.9696
50.9722
50.9748
50.9774
50.9801
50.9828
50.9855
50.9882
50.991
50.9939
50.9967
50.9996
51.0025
51.0055
51.0085
51.0115
51.0145
51.0176
51.0207
51.0238
51.0269
51.0301
51.0333
51.0366
51.0398
51.0432
51.0465
51.0499
51.0534
51.0569