/*--------------------------------*- C++ -*----------------------------------*\
| =========                 |                                                 |
| \\      /  F ield         | OpenFOAM: The Open Source CFD Toolbox           |
|  \\    /   O peration     | Version:  3.0.x                                 |
|   \\  /    A nd           | Web:      www.OpenFOAM.org                      |
|    \\/     M anipulation  |                                                 |
\*---------------------------------------------------------------------------*/
FoamFile
{
    version     2.0;
    format      ascii;
    class       volScalarField;
    location    "0.52";
    object      T;
}
// * * * * * * * * * * * * * * * * * * * * * * * * * * * * * * * * * * * * * //

dimensions      [0 0 0 1 0 0 0];

internalField   nonuniform List<scalar> 
27600
(
774.37
774.358
774.341
774.326
774.313
774.302
774.294
774.287
774.282
774.278
774.276
774.275
774.275
774.275
774.276
774.278
774.28
774.282
774.285
774.288
774.29
774.293
774.296
774.3
774.303
774.306
774.31
774.314
774.317
774.321
774.325
774.329
774.333
774.337
774.342
774.346
774.351
774.355
774.36
774.365
774.37
774.375
774.38
774.385
774.39
774.396
774.401
774.407
774.413
774.418
774.424
774.43
774.437
774.443
774.449
774.455
774.462
774.469
774.475
774.482
774.489
774.496
774.503
774.51
774.518
774.525
774.533
774.54
774.548
774.556
774.564
774.572
774.58
774.588
774.596
774.605
774.613
774.622
774.631
774.639
774.648
774.657
774.666
774.675
774.685
774.694
774.704
774.714
774.725
774.735
774.745
774.755
774.766
774.776
774.786
774.796
774.806
774.816
774.827
774.837
774.847
774.858
774.868
774.879
774.89
774.901
774.912
774.924
774.936
774.948
774.96
774.972
774.984
774.997
775.009
775.021
775.034
775.046
775.058
775.071
775.083
775.096
775.109
775.122
775.135
775.148
775.161
775.174
775.187
775.199
775.212
775.225
775.238
775.252
775.265
775.279
775.292
775.306
775.32
775.334
775.349
775.364
775.378
775.393
775.408
775.423
775.438
775.453
775.468
775.483
775.498
775.513
775.528
775.543
775.557
775.572
775.588
775.603
775.618
775.634
775.649
775.665
775.681
775.697
775.713
775.729
775.745
775.761
775.778
775.794
775.811
775.827
775.844
775.86
775.877
775.894
775.911
775.928
775.945
775.962
775.979
775.996
776.014
776.031
776.048
776.066
776.083
776.101
776.119
776.136
776.154
776.172
776.19
776.208
776.226
776.244
776.262
776.28
776.298
776.316
776.335
776.353
776.371
776.39
776.408
776.427
776.446
776.464
776.483
776.502
776.52
776.539
776.558
776.577
776.596
776.615
776.634
776.653
776.672
776.691
776.711
776.73
776.749
776.769
776.788
776.807
776.827
776.846
776.866
776.885
776.905
776.925
776.944
776.964
776.984
777.003
777.023
777.043
777.063
777.083
777.103
777.123
777.143
777.163
777.183
777.203
777.223
777.243
777.263
777.283
777.303
777.323
777.344
777.364
777.384
777.404
777.425
777.445
777.465
777.486
777.506
777.527
777.547
777.567
777.588
777.608
777.629
777.649
777.67
777.69
777.711
777.731
777.752
777.772
777.793
777.814
777.834
777.855
777.875
777.896
777.917
777.937
777.958
777.979
777.999
778.02
778.04
778.061
778.082
778.102
778.123
778.144
778.164
778.185
778.206
778.226
778.247
778.268
778.288
778.309
778.33
778.35
778.371
778.392
778.412
778.433
778.453
778.474
778.495
778.515
778.536
778.556
778.577
778.598
778.618
778.639
778.659
778.68
778.7
778.721
778.741
778.762
778.782
778.802
778.823
778.843
778.864
778.884
778.904
778.925
778.945
778.965
778.985
779.006
779.026
779.046
779.066
779.086
779.107
779.127
779.147
779.167
779.187
779.207
779.227
779.247
779.267
779.287
779.307
779.326
779.346
779.366
779.386
779.406
779.425
779.445
779.465
779.484
779.504
779.523
779.543
779.563
779.582
779.601
779.621
779.64
779.66
779.679
779.698
779.718
779.736
779.756
779.774
779.795
779.812
779.833
779.85
779.871
779.888
779.909
779.925
779.947
779.962
779.985
779.999
780.022
780.036
780.06
780.073
780.097
780.11
780.134
780.146
780.171
780.183
780.207
780.22
780.244
780.257
780.288
774.361
774.35
774.333
774.318
774.305
774.294
774.285
774.279
774.274
774.27
774.268
774.267
774.267
774.267
774.268
774.27
774.272
774.274
774.277
774.28
774.282
774.285
774.288
774.292
774.295
774.298
774.302
774.306
774.309
774.313
774.317
774.321
774.325
774.329
774.334
774.338
774.343
774.347
774.352
774.357
774.362
774.367
774.372
774.377
774.383
774.388
774.394
774.399
774.405
774.411
774.417
774.423
774.429
774.435
774.442
774.448
774.455
774.461
774.468
774.475
774.482
774.489
774.496
774.503
774.51
774.518
774.525
774.533
774.541
774.549
774.557
774.565
774.573
774.581
774.589
774.598
774.606
774.615
774.624
774.632
774.641
774.65
774.659
774.668
774.678
774.687
774.697
774.707
774.718
774.728
774.738
774.748
774.759
774.769
774.779
774.79
774.8
774.81
774.82
774.83
774.841
774.851
774.862
774.872
774.883
774.894
774.906
774.917
774.929
774.941
774.953
774.966
774.978
774.99
775.003
775.015
775.027
775.04
775.052
775.065
775.077
775.09
775.103
775.116
775.128
775.142
775.155
775.168
775.181
775.194
775.206
775.219
775.233
775.246
775.259
775.273
775.286
775.3
775.314
775.328
775.343
775.358
775.372
775.387
775.402
775.417
775.432
775.448
775.463
775.478
775.493
775.507
775.522
775.537
775.552
775.567
775.582
775.597
775.613
775.628
775.644
775.66
775.675
775.691
775.707
775.724
775.74
775.756
775.772
775.789
775.805
775.822
775.839
775.855
775.872
775.889
775.906
775.923
775.94
775.957
775.974
775.991
776.009
776.026
776.043
776.061
776.078
776.096
776.113
776.131
776.149
776.167
776.185
776.203
776.221
776.239
776.257
776.275
776.293
776.311
776.329
776.348
776.366
776.385
776.403
776.422
776.44
776.459
776.478
776.496
776.515
776.534
776.553
776.572
776.591
776.61
776.629
776.648
776.667
776.686
776.705
776.725
776.744
776.763
776.783
776.802
776.822
776.841
776.861
776.88
776.9
776.919
776.939
776.959
776.978
776.998
777.018
777.038
777.058
777.078
777.097
777.117
777.137
777.157
777.177
777.197
777.218
777.238
777.258
777.278
777.298
777.318
777.338
777.359
777.379
777.399
777.42
777.44
777.46
777.481
777.501
777.521
777.542
777.562
777.583
777.603
777.624
777.644
777.665
777.685
777.706
777.726
777.747
777.767
777.788
777.808
777.829
777.85
777.87
777.891
777.911
777.932
777.953
777.973
777.994
778.015
778.035
778.056
778.077
778.097
778.118
778.139
778.159
778.18
778.201
778.221
778.242
778.263
778.283
778.304
778.325
778.345
778.366
778.386
778.407
778.428
778.448
778.469
778.49
778.51
778.531
778.551
778.572
778.592
778.613
778.634
778.654
778.675
778.695
778.716
778.736
778.756
778.777
778.797
778.818
778.838
778.858
778.879
778.899
778.919
778.94
778.96
778.98
779.001
779.021
779.041
779.061
779.081
779.101
779.122
779.142
779.162
779.182
779.202
779.222
779.242
779.262
779.282
779.302
779.321
779.341
779.361
779.381
779.401
779.42
779.44
779.46
779.479
779.499
779.518
779.538
779.558
779.577
779.596
779.616
779.635
779.654
779.674
779.693
779.713
779.731
779.751
779.769
779.79
779.807
779.828
779.845
779.866
779.883
779.904
779.92
779.942
779.957
779.98
779.994
780.017
780.031
780.055
780.068
780.092
780.105
780.129
780.141
780.166
780.178
780.202
780.215
780.239
780.253
780.28
774.361
774.35
774.333
774.318
774.305
774.294
774.285
774.279
774.274
774.27
774.268
774.267
774.267
774.267
774.268
774.27
774.272
774.274
774.277
774.28
774.282
774.285
774.289
774.292
774.295
774.299
774.302
774.306
774.309
774.313
774.317
774.321
774.325
774.33
774.334
774.338
774.343
774.347
774.352
774.357
774.362
774.367
774.372
774.377
774.383
774.388
774.394
774.399
774.405
774.411
774.417
774.423
774.429
774.435
774.442
774.448
774.455
774.461
774.468
774.475
774.482
774.489
774.496
774.503
774.51
774.518
774.525
774.533
774.541
774.549
774.557
774.565
774.573
774.581
774.589
774.598
774.606
774.615
774.624
774.632
774.641
774.65
774.659
774.668
774.678
774.687
774.697
774.707
774.718
774.728
774.738
774.748
774.759
774.769
774.779
774.79
774.8
774.81
774.82
774.83
774.841
774.851
774.862
774.872
774.883
774.894
774.906
774.917
774.929
774.941
774.953
774.966
774.978
774.99
775.003
775.015
775.027
775.04
775.052
775.065
775.077
775.09
775.103
775.116
775.128
775.142
775.155
775.168
775.181
775.194
775.206
775.219
775.233
775.246
775.259
775.273
775.286
775.3
775.314
775.328
775.343
775.358
775.372
775.387
775.402
775.417
775.432
775.448
775.463
775.478
775.493
775.507
775.522
775.537
775.552
775.567
775.582
775.597
775.613
775.628
775.644
775.66
775.675
775.691
775.707
775.724
775.74
775.756
775.772
775.789
775.805
775.822
775.839
775.855
775.872
775.889
775.906
775.923
775.94
775.957
775.974
775.991
776.009
776.026
776.043
776.061
776.078
776.096
776.113
776.131
776.149
776.167
776.185
776.203
776.221
776.239
776.257
776.275
776.293
776.311
776.329
776.348
776.366
776.385
776.403
776.422
776.44
776.459
776.478
776.496
776.515
776.534
776.553
776.572
776.591
776.61
776.629
776.648
776.667
776.686
776.705
776.725
776.744
776.763
776.783
776.802
776.822
776.841
776.861
776.88
776.9
776.919
776.939
776.959
776.978
776.998
777.018
777.038
777.058
777.078
777.097
777.117
777.137
777.157
777.177
777.197
777.217
777.238
777.258
777.278
777.298
777.318
777.338
777.359
777.379
777.399
777.42
777.44
777.46
777.481
777.501
777.521
777.542
777.562
777.583
777.603
777.624
777.644
777.665
777.685
777.706
777.726
777.747
777.767
777.788
777.808
777.829
777.85
777.87
777.891
777.911
777.932
777.953
777.973
777.994
778.015
778.035
778.056
778.077
778.097
778.118
778.139
778.159
778.18
778.201
778.221
778.242
778.263
778.283
778.304
778.325
778.345
778.366
778.386
778.407
778.428
778.448
778.469
778.49
778.51
778.531
778.551
778.572
778.592
778.613
778.633
778.654
778.675
778.695
778.715
778.736
778.756
778.777
778.797
778.818
778.838
778.858
778.879
778.899
778.919
778.94
778.96
778.98
779.001
779.021
779.041
779.061
779.081
779.101
779.122
779.142
779.162
779.182
779.202
779.222
779.242
779.262
779.282
779.302
779.321
779.341
779.361
779.381
779.401
779.42
779.44
779.46
779.479
779.499
779.518
779.538
779.558
779.577
779.596
779.616
779.635
779.654
779.674
779.693
779.713
779.731
779.751
779.769
779.79
779.807
779.828
779.845
779.866
779.883
779.904
779.92
779.942
779.957
779.98
779.994
780.017
780.031
780.055
780.068
780.092
780.105
780.129
780.141
780.166
780.178
780.202
780.215
780.239
780.252
780.279
774.362
774.35
774.333
774.318
774.305
774.294
774.286
774.279
774.274
774.27
774.268
774.267
774.267
774.267
774.268
774.27
774.272
774.274
774.277
774.28
774.283
774.286
774.289
774.292
774.295
774.299
774.302
774.306
774.31
774.313
774.317
774.321
774.325
774.33
774.334
774.338
774.343
774.348
774.352
774.357
774.362
774.367
774.372
774.378
774.383
774.388
774.394
774.399
774.405
774.411
774.417
774.423
774.429
774.435
774.442
774.448
774.455
774.461
774.468
774.475
774.482
774.489
774.496
774.503
774.511
774.518
774.526
774.533
774.541
774.549
774.557
774.565
774.573
774.581
774.589
774.598
774.606
774.615
774.624
774.633
774.641
774.65
774.659
774.669
774.678
774.688
774.697
774.708
774.718
774.728
774.738
774.749
774.759
774.769
774.78
774.79
774.8
774.81
774.82
774.83
774.841
774.851
774.862
774.873
774.883
774.894
774.906
774.917
774.929
774.941
774.953
774.966
774.978
774.99
775.003
775.015
775.027
775.04
775.052
775.065
775.077
775.09
775.103
775.116
775.129
775.142
775.155
775.168
775.181
775.194
775.207
775.22
775.233
775.246
775.259
775.273
775.287
775.3
775.314
775.328
775.343
775.358
775.372
775.387
775.402
775.417
775.433
775.448
775.463
775.478
775.493
775.507
775.522
775.537
775.552
775.567
775.582
775.597
775.613
775.628
775.644
775.66
775.675
775.691
775.707
775.724
775.74
775.756
775.772
775.789
775.805
775.822
775.839
775.855
775.872
775.889
775.906
775.923
775.94
775.957
775.974
775.991
776.009
776.026
776.043
776.061
776.078
776.096
776.113
776.131
776.149
776.167
776.185
776.203
776.221
776.239
776.257
776.275
776.293
776.311
776.329
776.348
776.366
776.385
776.403
776.422
776.44
776.459
776.478
776.496
776.515
776.534
776.553
776.572
776.591
776.61
776.629
776.648
776.667
776.686
776.705
776.725
776.744
776.763
776.783
776.802
776.822
776.841
776.861
776.88
776.9
776.919
776.939
776.959
776.978
776.998
777.018
777.038
777.058
777.078
777.097
777.117
777.137
777.157
777.177
777.197
777.217
777.238
777.258
777.278
777.298
777.318
777.338
777.359
777.379
777.399
777.42
777.44
777.46
777.481
777.501
777.521
777.542
777.562
777.583
777.603
777.624
777.644
777.665
777.685
777.706
777.726
777.747
777.767
777.788
777.808
777.829
777.85
777.87
777.891
777.911
777.932
777.953
777.973
777.994
778.015
778.035
778.056
778.077
778.097
778.118
778.139
778.159
778.18
778.201
778.221
778.242
778.263
778.283
778.304
778.325
778.345
778.366
778.386
778.407
778.428
778.448
778.469
778.49
778.51
778.531
778.551
778.572
778.592
778.613
778.633
778.654
778.675
778.695
778.715
778.736
778.756
778.777
778.797
778.818
778.838
778.858
778.879
778.899
778.919
778.94
778.96
778.98
779.001
779.021
779.041
779.061
779.081
779.101
779.122
779.142
779.162
779.182
779.202
779.222
779.242
779.262
779.282
779.302
779.321
779.341
779.361
779.381
779.401
779.42
779.44
779.46
779.479
779.499
779.518
779.538
779.558
779.577
779.596
779.616
779.635
779.654
779.674
779.693
779.713
779.731
779.751
779.769
779.79
779.807
779.828
779.845
779.866
779.883
779.904
779.92
779.942
779.957
779.98
779.994
780.017
780.031
780.055
780.068
780.092
780.105
780.129
780.141
780.166
780.178
780.202
780.215
780.238
780.254
780.276
774.362
774.35
774.333
774.318
774.305
774.295
774.286
774.279
774.274
774.27
774.268
774.267
774.267
774.268
774.268
774.27
774.272
774.275
774.277
774.28
774.283
774.286
774.289
774.292
774.295
774.299
774.302
774.306
774.31
774.314
774.317
774.321
774.326
774.33
774.334
774.339
774.343
774.348
774.352
774.357
774.362
774.367
774.372
774.378
774.383
774.388
774.394
774.4
774.405
774.411
774.417
774.423
774.429
774.436
774.442
774.448
774.455
774.461
774.468
774.475
774.482
774.489
774.496
774.503
774.511
774.518
774.526
774.533
774.541
774.549
774.557
774.565
774.573
774.581
774.589
774.598
774.606
774.615
774.624
774.633
774.641
774.65
774.659
774.669
774.678
774.688
774.698
774.708
774.718
774.728
774.738
774.749
774.759
774.769
774.78
774.79
774.8
774.81
774.82
774.83
774.841
774.851
774.862
774.873
774.883
774.895
774.906
774.917
774.929
774.941
774.953
774.966
774.978
774.99
775.003
775.015
775.027
775.04
775.052
775.065
775.077
775.09
775.103
775.116
775.129
775.142
775.155
775.168
775.181
775.194
775.207
775.22
775.233
775.246
775.259
775.273
775.287
775.3
775.314
775.328
775.343
775.358
775.372
775.387
775.402
775.417
775.433
775.448
775.463
775.478
775.493
775.507
775.522
775.537
775.552
775.567
775.582
775.597
775.613
775.628
775.644
775.66
775.676
775.691
775.707
775.724
775.74
775.756
775.772
775.789
775.805
775.822
775.839
775.855
775.872
775.889
775.906
775.923
775.94
775.957
775.974
775.991
776.009
776.026
776.043
776.061
776.078
776.096
776.113
776.131
776.149
776.167
776.185
776.203
776.221
776.239
776.257
776.275
776.293
776.311
776.329
776.348
776.366
776.385
776.403
776.422
776.44
776.459
776.478
776.496
776.515
776.534
776.553
776.572
776.591
776.61
776.629
776.648
776.667
776.686
776.705
776.725
776.744
776.763
776.783
776.802
776.822
776.841
776.861
776.88
776.9
776.919
776.939
776.959
776.978
776.998
777.018
777.038
777.058
777.078
777.097
777.117
777.137
777.157
777.177
777.197
777.217
777.238
777.258
777.278
777.298
777.318
777.338
777.359
777.379
777.399
777.42
777.44
777.46
777.481
777.501
777.521
777.542
777.562
777.583
777.603
777.624
777.644
777.665
777.685
777.706
777.726
777.747
777.767
777.788
777.808
777.829
777.85
777.87
777.891
777.911
777.932
777.953
777.973
777.994
778.015
778.035
778.056
778.077
778.097
778.118
778.139
778.159
778.18
778.201
778.221
778.242
778.263
778.283
778.304
778.325
778.345
778.366
778.386
778.407
778.428
778.448
778.469
778.49
778.51
778.531
778.551
778.572
778.592
778.613
778.633
778.654
778.675
778.695
778.715
778.736
778.756
778.777
778.797
778.818
778.838
778.858
778.879
778.899
778.919
778.94
778.96
778.98
779.001
779.021
779.041
779.061
779.081
779.101
779.122
779.142
779.162
779.182
779.202
779.222
779.242
779.262
779.282
779.302
779.321
779.341
779.361
779.381
779.401
779.42
779.44
779.46
779.479
779.499
779.518
779.538
779.558
779.577
779.596
779.616
779.635
779.654
779.674
779.693
779.713
779.731
779.751
779.769
779.79
779.807
779.828
779.845
779.866
779.883
779.904
779.92
779.942
779.957
779.98
779.994
780.017
780.031
780.055
780.068
780.092
780.105
780.129
780.141
780.166
780.178
780.202
780.214
780.239
780.251
780.277
774.362
774.35
774.333
774.318
774.305
774.295
774.286
774.279
774.274
774.27
774.268
774.267
774.267
774.268
774.268
774.27
774.272
774.275
774.277
774.28
774.283
774.286
774.289
774.292
774.295
774.299
774.302
774.306
774.31
774.314
774.317
774.321
774.326
774.33
774.334
774.339
774.343
774.348
774.352
774.357
774.362
774.367
774.372
774.378
774.383
774.388
774.394
774.4
774.405
774.411
774.417
774.423
774.429
774.436
774.442
774.448
774.455
774.461
774.468
774.475
774.482
774.489
774.496
774.503
774.511
774.518
774.526
774.533
774.541
774.549
774.557
774.565
774.573
774.581
774.589
774.598
774.606
774.615
774.624
774.633
774.641
774.65
774.659
774.669
774.678
774.688
774.698
774.708
774.718
774.728
774.738
774.749
774.759
774.769
774.78
774.79
774.8
774.81
774.82
774.83
774.841
774.851
774.862
774.873
774.883
774.895
774.906
774.917
774.929
774.941
774.953
774.966
774.978
774.99
775.003
775.015
775.027
775.04
775.052
775.065
775.077
775.09
775.103
775.116
775.129
775.142
775.155
775.168
775.181
775.194
775.207
775.22
775.233
775.246
775.259
775.273
775.287
775.3
775.314
775.328
775.343
775.358
775.372
775.387
775.402
775.417
775.433
775.448
775.463
775.478
775.493
775.507
775.522
775.537
775.552
775.567
775.582
775.597
775.613
775.628
775.644
775.66
775.676
775.691
775.707
775.724
775.74
775.756
775.772
775.789
775.805
775.822
775.839
775.855
775.872
775.889
775.906
775.923
775.94
775.957
775.974
775.991
776.009
776.026
776.043
776.061
776.078
776.096
776.113
776.131
776.149
776.167
776.185
776.203
776.221
776.239
776.257
776.275
776.293
776.311
776.329
776.348
776.366
776.385
776.403
776.422
776.44
776.459
776.478
776.496
776.515
776.534
776.553
776.572
776.591
776.61
776.629
776.648
776.667
776.686
776.705
776.725
776.744
776.763
776.783
776.802
776.822
776.841
776.861
776.88
776.9
776.919
776.939
776.959
776.978
776.998
777.018
777.038
777.058
777.078
777.097
777.117
777.137
777.157
777.177
777.197
777.217
777.238
777.258
777.278
777.298
777.318
777.338
777.359
777.379
777.399
777.42
777.44
777.46
777.481
777.501
777.521
777.542
777.562
777.583
777.603
777.624
777.644
777.665
777.685
777.706
777.726
777.747
777.767
777.788
777.808
777.829
777.85
777.87
777.891
777.911
777.932
777.953
777.973
777.994
778.015
778.035
778.056
778.077
778.097
778.118
778.139
778.159
778.18
778.201
778.221
778.242
778.263
778.283
778.304
778.325
778.345
778.366
778.386
778.407
778.428
778.448
778.469
778.49
778.51
778.531
778.551
778.572
778.592
778.613
778.633
778.654
778.675
778.695
778.715
778.736
778.756
778.777
778.797
778.818
778.838
778.858
778.879
778.899
778.919
778.94
778.96
778.98
779.001
779.021
779.041
779.061
779.081
779.101
779.122
779.142
779.162
779.182
779.202
779.222
779.242
779.262
779.282
779.302
779.321
779.341
779.361
779.381
779.401
779.42
779.44
779.46
779.479
779.499
779.518
779.538
779.557
779.577
779.596
779.616
779.635
779.655
779.674
779.693
779.712
779.732
779.751
779.77
779.789
779.808
779.827
779.845
779.866
779.883
779.903
779.921
779.94
779.96
779.977
779.997
780.014
780.034
780.053
780.07
780.09
780.107
780.126
780.145
780.161
780.183
780.197
780.219
780.233
780.255
780.268
774.362
774.35
774.333
774.318
774.305
774.294
774.286
774.279
774.274
774.27
774.268
774.267
774.267
774.267
774.268
774.27
774.272
774.274
774.277
774.28
774.283
774.286
774.289
774.292
774.295
774.299
774.302
774.306
774.31
774.313
774.317
774.321
774.325
774.33
774.334
774.338
774.343
774.348
774.352
774.357
774.362
774.367
774.372
774.378
774.383
774.388
774.394
774.399
774.405
774.411
774.417
774.423
774.429
774.435
774.442
774.448
774.455
774.461
774.468
774.475
774.482
774.489
774.496
774.503
774.511
774.518
774.526
774.533
774.541
774.549
774.557
774.565
774.573
774.581
774.589
774.598
774.606
774.615
774.624
774.633
774.641
774.65
774.659
774.669
774.678
774.688
774.697
774.708
774.718
774.728
774.738
774.749
774.759
774.769
774.78
774.79
774.8
774.81
774.82
774.83
774.841
774.851
774.862
774.873
774.883
774.894
774.906
774.917
774.929
774.941
774.953
774.966
774.978
774.99
775.003
775.015
775.027
775.04
775.052
775.065
775.077
775.09
775.103
775.116
775.129
775.142
775.155
775.168
775.181
775.194
775.207
775.22
775.233
775.246
775.259
775.273
775.287
775.3
775.314
775.328
775.343
775.358
775.372
775.387
775.402
775.417
775.433
775.448
775.463
775.478
775.493
775.507
775.522
775.537
775.552
775.567
775.582
775.597
775.613
775.628
775.644
775.66
775.675
775.691
775.707
775.724
775.74
775.756
775.772
775.789
775.805
775.822
775.839
775.855
775.872
775.889
775.906
775.923
775.94
775.957
775.974
775.991
776.009
776.026
776.043
776.061
776.078
776.096
776.113
776.131
776.149
776.167
776.185
776.203
776.221
776.239
776.257
776.275
776.293
776.311
776.329
776.348
776.366
776.385
776.403
776.422
776.44
776.459
776.478
776.496
776.515
776.534
776.553
776.572
776.591
776.61
776.629
776.648
776.667
776.686
776.705
776.725
776.744
776.763
776.783
776.802
776.822
776.841
776.861
776.88
776.9
776.919
776.939
776.959
776.978
776.998
777.018
777.038
777.058
777.078
777.097
777.117
777.137
777.157
777.177
777.197
777.217
777.238
777.258
777.278
777.298
777.318
777.338
777.359
777.379
777.399
777.42
777.44
777.46
777.481
777.501
777.521
777.542
777.562
777.583
777.603
777.624
777.644
777.665
777.685
777.706
777.726
777.747
777.767
777.788
777.808
777.829
777.85
777.87
777.891
777.911
777.932
777.953
777.973
777.994
778.015
778.035
778.056
778.077
778.097
778.118
778.139
778.159
778.18
778.201
778.221
778.242
778.263
778.283
778.304
778.325
778.345
778.366
778.386
778.407
778.428
778.448
778.469
778.49
778.51
778.531
778.551
778.572
778.592
778.613
778.633
778.654
778.675
778.695
778.715
778.736
778.756
778.777
778.797
778.818
778.838
778.858
778.879
778.899
778.919
778.94
778.96
778.98
779.001
779.021
779.041
779.061
779.081
779.101
779.122
779.142
779.162
779.182
779.202
779.222
779.242
779.262
779.282
779.302
779.321
779.341
779.361
779.381
779.401
779.42
779.44
779.46
779.479
779.499
779.518
779.538
779.557
779.577
779.596
779.616
779.635
779.655
779.674
779.693
779.712
779.731
779.751
779.77
779.789
779.808
779.827
779.846
779.864
779.885
779.902
779.922
779.94
779.959
779.978
779.995
780.016
780.033
780.053
780.071
780.088
780.11
780.123
780.148
780.16
780.184
780.197
780.218
780.234
780.253
780.267
774.361
774.35
774.333
774.318
774.305
774.294
774.285
774.279
774.274
774.27
774.268
774.267
774.267
774.267
774.268
774.27
774.272
774.274
774.277
774.28
774.282
774.285
774.289
774.292
774.295
774.299
774.302
774.306
774.309
774.313
774.317
774.321
774.325
774.33
774.334
774.338
774.343
774.347
774.352
774.357
774.362
774.367
774.372
774.377
774.383
774.388
774.394
774.399
774.405
774.411
774.417
774.423
774.429
774.435
774.442
774.448
774.455
774.461
774.468
774.475
774.482
774.489
774.496
774.503
774.51
774.518
774.525
774.533
774.541
774.549
774.557
774.565
774.573
774.581
774.589
774.598
774.606
774.615
774.624
774.632
774.641
774.65
774.659
774.668
774.678
774.687
774.697
774.707
774.718
774.728
774.738
774.748
774.759
774.769
774.779
774.79
774.8
774.81
774.82
774.83
774.841
774.851
774.862
774.872
774.883
774.894
774.906
774.917
774.929
774.941
774.953
774.966
774.978
774.99
775.003
775.015
775.027
775.04
775.052
775.065
775.077
775.09
775.103
775.116
775.128
775.142
775.155
775.168
775.181
775.194
775.206
775.219
775.233
775.246
775.259
775.273
775.286
775.3
775.314
775.328
775.343
775.358
775.372
775.387
775.402
775.417
775.432
775.448
775.463
775.478
775.493
775.507
775.522
775.537
775.552
775.567
775.582
775.597
775.613
775.628
775.644
775.66
775.675
775.691
775.707
775.724
775.74
775.756
775.772
775.789
775.805
775.822
775.839
775.855
775.872
775.889
775.906
775.923
775.94
775.957
775.974
775.991
776.009
776.026
776.043
776.061
776.078
776.096
776.113
776.131
776.149
776.167
776.185
776.203
776.221
776.239
776.257
776.275
776.293
776.311
776.329
776.348
776.366
776.385
776.403
776.422
776.44
776.459
776.478
776.496
776.515
776.534
776.553
776.572
776.591
776.61
776.629
776.648
776.667
776.686
776.705
776.725
776.744
776.763
776.783
776.802
776.822
776.841
776.861
776.88
776.9
776.919
776.939
776.959
776.978
776.998
777.018
777.038
777.058
777.078
777.097
777.117
777.137
777.157
777.177
777.197
777.217
777.238
777.258
777.278
777.298
777.318
777.338
777.359
777.379
777.399
777.42
777.44
777.46
777.481
777.501
777.521
777.542
777.562
777.583
777.603
777.624
777.644
777.665
777.685
777.706
777.726
777.747
777.767
777.788
777.808
777.829
777.85
777.87
777.891
777.911
777.932
777.953
777.973
777.994
778.015
778.035
778.056
778.077
778.097
778.118
778.139
778.159
778.18
778.201
778.221
778.242
778.263
778.283
778.304
778.325
778.345
778.366
778.386
778.407
778.428
778.448
778.469
778.49
778.51
778.531
778.551
778.572
778.592
778.613
778.633
778.654
778.675
778.695
778.715
778.736
778.756
778.777
778.797
778.818
778.838
778.858
778.879
778.899
778.919
778.94
778.96
778.98
779.001
779.021
779.041
779.061
779.081
779.101
779.122
779.142
779.162
779.182
779.202
779.222
779.242
779.262
779.282
779.302
779.321
779.341
779.361
779.381
779.401
779.42
779.44
779.46
779.479
779.499
779.518
779.538
779.557
779.577
779.596
779.616
779.635
779.655
779.674
779.693
779.712
779.732
779.751
779.77
779.789
779.808
779.827
779.846
779.864
779.885
779.901
779.923
779.939
779.96
779.977
779.998
780.014
780.035
780.05
780.073
780.086
780.111
780.123
780.147
780.159
780.184
780.196
780.22
780.231
780.258
780.263
774.361
774.35
774.333
774.318
774.305
774.294
774.285
774.279
774.274
774.27
774.268
774.267
774.267
774.267
774.268
774.27
774.272
774.274
774.277
774.28
774.282
774.285
774.288
774.292
774.295
774.298
774.302
774.306
774.309
774.313
774.317
774.321
774.325
774.329
774.334
774.338
774.343
774.347
774.352
774.357
774.362
774.367
774.372
774.377
774.383
774.388
774.394
774.399
774.405
774.411
774.417
774.423
774.429
774.435
774.442
774.448
774.455
774.461
774.468
774.475
774.482
774.489
774.496
774.503
774.51
774.518
774.525
774.533
774.541
774.549
774.557
774.565
774.573
774.581
774.589
774.598
774.606
774.615
774.624
774.632
774.641
774.65
774.659
774.668
774.678
774.687
774.697
774.707
774.718
774.728
774.738
774.748
774.759
774.769
774.779
774.79
774.8
774.81
774.82
774.83
774.841
774.851
774.862
774.872
774.883
774.894
774.906
774.917
774.929
774.941
774.953
774.966
774.978
774.99
775.003
775.015
775.027
775.04
775.052
775.065
775.077
775.09
775.103
775.116
775.128
775.142
775.155
775.168
775.181
775.194
775.206
775.219
775.233
775.246
775.259
775.273
775.286
775.3
775.314
775.328
775.343
775.358
775.372
775.387
775.402
775.417
775.432
775.448
775.463
775.478
775.493
775.507
775.522
775.537
775.552
775.567
775.582
775.597
775.613
775.628
775.644
775.66
775.675
775.691
775.707
775.724
775.74
775.756
775.772
775.789
775.805
775.822
775.839
775.855
775.872
775.889
775.906
775.923
775.94
775.957
775.974
775.991
776.009
776.026
776.043
776.061
776.078
776.096
776.113
776.131
776.149
776.167
776.185
776.203
776.221
776.239
776.257
776.275
776.293
776.311
776.329
776.348
776.366
776.385
776.403
776.422
776.44
776.459
776.478
776.496
776.515
776.534
776.553
776.572
776.591
776.61
776.629
776.648
776.667
776.686
776.705
776.725
776.744
776.763
776.783
776.802
776.822
776.841
776.861
776.88
776.9
776.919
776.939
776.959
776.978
776.998
777.018
777.038
777.058
777.078
777.097
777.117
777.137
777.157
777.177
777.197
777.218
777.238
777.258
777.278
777.298
777.318
777.338
777.359
777.379
777.399
777.42
777.44
777.46
777.481
777.501
777.521
777.542
777.562
777.583
777.603
777.624
777.644
777.665
777.685
777.706
777.726
777.747
777.767
777.788
777.808
777.829
777.85
777.87
777.891
777.911
777.932
777.953
777.973
777.994
778.015
778.035
778.056
778.077
778.097
778.118
778.139
778.159
778.18
778.201
778.221
778.242
778.263
778.283
778.304
778.325
778.345
778.366
778.386
778.407
778.428
778.448
778.469
778.49
778.51
778.531
778.551
778.572
778.592
778.613
778.634
778.654
778.675
778.695
778.716
778.736
778.756
778.777
778.797
778.818
778.838
778.858
778.879
778.899
778.919
778.94
778.96
778.98
779.001
779.021
779.041
779.061
779.081
779.101
779.122
779.142
779.162
779.182
779.202
779.222
779.242
779.262
779.282
779.302
779.321
779.341
779.361
779.381
779.401
779.42
779.44
779.46
779.479
779.499
779.518
779.538
779.558
779.577
779.596
779.616
779.635
779.655
779.674
779.693
779.712
779.732
779.751
779.77
779.789
779.808
779.827
779.847
779.864
779.885
779.901
779.923
779.938
779.961
779.976
779.999
780.013
780.036
780.05
780.074
780.086
780.111
780.123
780.147
780.159
780.184
780.196
780.22
780.231
780.26
780.259
774.37
774.358
774.341
774.326
774.313
774.302
774.294
774.287
774.282
774.278
774.276
774.275
774.275
774.275
774.276
774.278
774.28
774.282
774.285
774.288
774.29
774.293
774.296
774.3
774.303
774.306
774.31
774.314
774.317
774.321
774.325
774.329
774.333
774.337
774.342
774.346
774.351
774.355
774.36
774.365
774.37
774.375
774.38
774.385
774.39
774.396
774.401
774.407
774.413
774.418
774.424
774.43
774.437
774.443
774.449
774.455
774.462
774.469
774.475
774.482
774.489
774.496
774.503
774.51
774.518
774.525
774.533
774.54
774.548
774.556
774.564
774.572
774.58
774.588
774.596
774.605
774.613
774.622
774.631
774.639
774.648
774.657
774.666
774.675
774.685
774.694
774.704
774.714
774.725
774.735
774.745
774.755
774.766
774.776