/*--------------------------------*- C++ -*----------------------------------*\
| =========                 |                                                 |
| \\      /  F ield         | OpenFOAM: The Open Source CFD Toolbox           |
|  \\    /   O peration     | Version:  3.0.x                                 |
|   \\  /    A nd           | Web:      www.OpenFOAM.org                      |
|    \\/     M anipulation  |                                                 |
\*---------------------------------------------------------------------------*/
FoamFile
{
    version     2.0;
    format      ascii;
    class       volScalarField;
    location    "0.06";
    object      rho;
}
// * * * * * * * * * * * * * * * * * * * * * * * * * * * * * * * * * * * * * //

dimensions      [1 -3 0 0 0 0 0];

internalField   nonuniform List<scalar> 
6900
(
50.4677
50.4677
50.4677
50.4677
50.4677
50.4677
50.4677
50.4677
50.4677
50.4677
50.4678
50.4678
50.4678
50.4678
50.4678
50.4678
50.4678
50.4678
50.4679
50.4679
50.468
50.4681
50.4682
50.4683
50.4684
50.4686
50.4688
50.4691
50.4694
50.4698
50.4703
50.4709
50.4715
50.4722
50.4731
50.474
50.4751
50.4763
50.4776
50.479
50.4805
50.4821
50.4838
50.4855
50.4873
50.4891
50.4908
50.4925
50.4941
50.4957
50.497
50.4983
50.4993
50.5002
50.5008
50.5013
50.5016
50.5017
50.5017
50.5016
50.5013
50.5011
50.5007
50.5004
50.5001
50.4999
50.4998
50.4997
50.4998
50.5
50.5003
50.5007
50.5013
50.502
50.5028
50.5036
50.5045
50.5055
50.5065
50.5075
50.5085
50.5096
50.5106
50.5116
50.5126
50.5136
50.5146
50.5155
50.5164
50.5173
50.5181
50.5189
50.5197
50.5204
50.5211
50.5217
50.5224
50.523
50.5235
50.524
50.5245
50.5249
50.5253
50.5256
50.5259
50.5262
50.5264
50.5266
50.5267
50.5268
50.5269
50.5269
50.527
50.5269
50.5269
50.5268
50.5267
50.5266
50.5265
50.5263
50.5262
50.526
50.5258
50.5257
50.5255
50.5254
50.5253
50.5252
50.5251
50.525
50.525
50.525
50.525
50.5251
50.5252
50.5253
50.5255
50.5256
50.5258
50.5261
50.5263
50.5266
50.5268
50.5271
50.5273
50.5275
50.5278
50.5279
50.5281
50.5282
50.5283
50.5284
50.5284
50.5284
50.5284
50.5283
50.5282
50.5281
50.5279
50.5277
50.5275
50.5273
50.5271
50.5269
50.5267
50.5265
50.5263
50.5261
50.526
50.5258
50.5258
50.5257
50.5257
50.5257
50.5258
50.526
50.5261
50.5264
50.5266
50.5269
50.5273
50.5276
50.528
50.5284
50.5287
50.5291
50.5294
50.5298
50.5301
50.5304
50.5308
50.5311
50.5315
50.532
50.5326
50.5332
50.534
50.5348
50.5363
50.5345
50.4678
50.4678
50.4678
50.4678
50.4678
50.4678
50.4678
50.4678
50.4678
50.4678
50.4678
50.4678
50.4678
50.4678
50.4678
50.4678
50.4678
50.4679
50.4679
50.4679
50.468
50.4681
50.4682
50.4683
50.4684
50.4686
50.4689
50.4691
50.4695
50.4699
50.4703
50.4709
50.4715
50.4722
50.4731
50.474
50.4751
50.4763
50.4776
50.479
50.4805
50.4821
50.4838
50.4855
50.4873
50.4891
50.4908
50.4925
50.4942
50.4957
50.4971
50.4983
50.4993
50.5002
50.5009
50.5013
50.5016
50.5018
50.5017
50.5016
50.5014
50.5011
50.5007
50.5004
50.5001
50.4999
50.4998
50.4997
50.4998
50.5
50.5003
50.5008
50.5013
50.502
50.5028
50.5036
50.5045
50.5055
50.5065
50.5075
50.5086
50.5096
50.5106
50.5117
50.5127
50.5136
50.5146
50.5155
50.5164
50.5173
50.5181
50.5189
50.5197
50.5204
50.5211
50.5218
50.5224
50.523
50.5235
50.524
50.5245
50.5249
50.5253
50.5256
50.5259
50.5262
50.5264
50.5266
50.5268
50.5269
50.5269
50.527
50.527
50.5269
50.5269
50.5268
50.5267
50.5266
50.5265
50.5263
50.5262
50.526
50.5259
50.5257
50.5256
50.5254
50.5253
50.5252
50.5251
50.5251
50.525
50.525
50.525
50.5251
50.5252
50.5253
50.5255
50.5256
50.5259
50.5261
50.5263
50.5266
50.5268
50.5271
50.5273
50.5276
50.5278
50.528
50.5281
50.5283
50.5284
50.5284
50.5284
50.5284
50.5284
50.5283
50.5282
50.5281
50.5279
50.5278
50.5276
50.5274
50.5272
50.5269
50.5267
50.5265
50.5263
50.5261
50.526
50.5259
50.5258
50.5257
50.5257
50.5258
50.5258
50.526
50.5262
50.5264
50.5267
50.527
50.5273
50.5276
50.528
50.5284
50.5287
50.5291
50.5294
50.5298
50.5301
50.5304
50.5308
50.5311
50.5316
50.532
50.5326
50.5333
50.534
50.5349
50.5363
50.5348
50.4678
50.4678
50.4678
50.4678
50.4678
50.4678
50.4678
50.4678
50.4678
50.4678
50.4678
50.4678
50.4678
50.4678
50.4678
50.4678
50.4678
50.4679
50.4679
50.4679
50.468
50.4681
50.4682
50.4683
50.4684
50.4686
50.4689
50.4691
50.4695
50.4699
50.4703
50.4709
50.4715
50.4722
50.4731
50.474
50.4751
50.4763
50.4776
50.479
50.4805
50.4821
50.4838
50.4855
50.4873
50.4891
50.4908
50.4925
50.4942
50.4957
50.4971
50.4983
50.4993
50.5002
50.5009
50.5013
50.5016
50.5018
50.5017
50.5016
50.5014
50.5011
50.5007
50.5004
50.5001
50.4999
50.4998
50.4997
50.4998
50.5
50.5003
50.5008
50.5013
50.502
50.5028
50.5036
50.5045
50.5055
50.5065
50.5075
50.5086
50.5096
50.5106
50.5117
50.5127
50.5136
50.5146
50.5155
50.5164
50.5173
50.5181
50.5189
50.5197
50.5204
50.5211
50.5218
50.5224
50.523
50.5235
50.524
50.5245
50.5249
50.5253
50.5256
50.5259
50.5262
50.5264
50.5266
50.5268
50.5269
50.5269
50.527
50.527
50.5269
50.5269
50.5268
50.5267
50.5266
50.5265
50.5263
50.5262
50.526
50.5259
50.5257
50.5256
50.5254
50.5253
50.5252
50.5251
50.5251
50.525
50.525
50.525
50.5251
50.5252
50.5253
50.5255
50.5256
50.5259
50.5261
50.5263
50.5266
50.5268
50.5271
50.5273
50.5276
50.5278
50.528
50.5281
50.5283
50.5284
50.5284
50.5284
50.5284
50.5284
50.5283
50.5282
50.5281
50.5279
50.5278
50.5276
50.5274
50.5272
50.5269
50.5267
50.5265
50.5263
50.5261
50.526
50.5259
50.5258
50.5257
50.5257
50.5258
50.5258
50.526
50.5262
50.5264
50.5267
50.527
50.5273
50.5276
50.528
50.5284
50.5287
50.5291
50.5294
50.5298
50.5301
50.5304
50.5308
50.5311
50.5316
50.532
50.5326
50.5333
50.534
50.5349
50.5359
50.5369
50.4678
50.4678
50.4678
50.4678
50.4678
50.4678
50.4678
50.4678
50.4678
50.4678
50.4678
50.4678
50.4678
50.4678
50.4678
50.4678
50.4678
50.4679
50.4679
50.4679
50.468
50.4681
50.4682
50.4683
50.4684
50.4686
50.4689
50.4691
50.4695
50.4699
50.4703
50.4709
50.4715
50.4722
50.4731
50.474
50.4751
50.4763
50.4776
50.479
50.4805
50.4821
50.4838
50.4855
50.4873
50.4891
50.4908
50.4925
50.4942
50.4957
50.4971
50.4983
50.4993
50.5002
50.5009
50.5013
50.5016
50.5018
50.5017
50.5016
50.5014
50.5011
50.5007
50.5004
50.5001
50.4999
50.4998
50.4997
50.4998
50.5
50.5003
50.5008
50.5013
50.502
50.5028
50.5036
50.5045
50.5055
50.5065
50.5075
50.5086
50.5096
50.5106
50.5117
50.5127
50.5136
50.5146
50.5155
50.5164
50.5173
50.5181
50.5189
50.5197
50.5204
50.5211
50.5218
50.5224
50.523
50.5235
50.524
50.5245
50.5249
50.5253
50.5256
50.5259
50.5262
50.5264
50.5266
50.5268
50.5269
50.5269
50.527
50.527
50.5269
50.5269
50.5268
50.5267
50.5266
50.5265
50.5263
50.5262
50.526
50.5259
50.5257
50.5256
50.5254
50.5253
50.5252
50.5251
50.5251
50.525
50.525
50.525
50.5251
50.5252
50.5253
50.5255
50.5256
50.5259
50.5261
50.5263
50.5266
50.5268
50.5271
50.5273
50.5276
50.5278
50.528
50.5281
50.5283
50.5284
50.5284
50.5284
50.5284
50.5284
50.5283
50.5282
50.5281
50.5279
50.5278
50.5276
50.5274
50.5272
50.5269
50.5267
50.5265
50.5263
50.5261
50.526
50.5259
50.5258
50.5257
50.5257
50.5258
50.5258
50.526
50.5262
50.5264
50.5267
50.527
50.5273
50.5276
50.528
50.5284
50.5287
50.5291
50.5294
50.5298
50.5301
50.5304
50.5308
50.5312
50.5316
50.5321
50.5326
50.5333
50.534
50.5349
50.5351
50.5422
50.4677
50.4677
50.4677
50.4677
50.4677
50.4677
50.4677
50.4677
50.4677
50.4677
50.4678
50.4678
50.4678
50.4678
50.4678
50.4678
50.4678
50.4678
50.4679
50.4679
50.468
50.4681
50.4682
50.4683
50.4684
50.4686
50.4688
50.4691
50.4694
50.4698
50.4703
50.4709
50.4715
50.4722
50.4731
50.474
50.4751
50.4763
50.4776
50.479
50.4805
50.4821
50.4838
50.4855
50.4873
50.4891
50.4908
50.4925
50.4941
50.4957
50.497
50.4983
50.4993
50.5002
50.5008
50.5013
50.5016
50.5017
50.5017
50.5016
50.5013
50.5011
50.5007
50.5004
50.5001
50.4999
50.4998
50.4997
50.4998
50.5
50.5003
50.5007
50.5013
50.502
50.5028
50.5036
50.5045
50.5055
50.5065
50.5075
50.5085
50.5096
50.5106
50.5116
50.5126
50.5136
50.5146
50.5155
50.5164
50.5173
50.5181
50.5189
50.5197
50.5204
50.5211
50.5217
50.5224
50.523
50.5235
50.524
50.5245
50.5249
50.5253
50.5256
50.5259
50.5262
50.5264
50.5266
50.5267
50.5268
50.5269
50.5269
50.527
50.5269
50.5269
50.5268
50.5267
50.5266
50.5265
50.5263
50.5262
50.526
50.5258
50.5257
50.5255
50.5254
50.5253
50.5252
50.5251
50.525
50.525
50.525
50.525
50.5251
50.5252
50.5253
50.5255
50.5256
50.5258
50.5261
50.5263
50.5266
50.5268
50.5271
50.5273
50.5275
50.5278
50.5279
50.5281
50.5282
50.5283
50.5284
50.5284
50.5284
50.5284
50.5283
50.5282
50.5281
50.5279
50.5277
50.5275
50.5273
50.5271
50.5269
50.5267
50.5265
50.5263
50.5261
50.526
50.5258
50.5258
50.5257
50.5257
50.5257
50.5258
50.526
50.5261
50.5264
50.5266
50.5269
50.5273
50.5276
50.528
50.5284
50.5287
50.5291
50.5294
50.5298
50.5301
50.5304
50.5308
50.5311
50.5315
50.532
50.5326
50.5333
50.5339
50.535
50.5345
50.5478
50.5532
50.5601
50.5611
50.5596
50.5583
50.5574
50.557
50.5554
50.551
50.5446
50.5392
50.5351
50.5326
50.5369
50.5462
50.5529
50.5488
50.5336
50.51
50.4888
50.5497
50.5532
50.5533
50.5519
50.5507
50.5499
50.5497
50.548
50.5431
50.5368
50.5317
50.5278
50.5256
50.5301
50.5404
50.5452
50.5383
50.5184
50.4939
50.4748
50.5385
50.5386
50.5377
50.5359
50.5333
50.53
50.5259
50.5212
50.516
50.5102
50.5033
50.4951
50.486
50.4757
50.4646
50.4539
50.4446
50.4367
50.4289
50.4194
50.5163
50.5134
50.5145
50.5162
50.5154
50.5118
50.5068
50.4999
50.4939
50.4868
50.4802
50.4735
50.4676
50.4616
50.4558
50.4505
50.4456
50.4413
50.4382
50.4362
50.5066
50.4948
50.4905
50.4901
50.4881
50.4834
50.4771
50.4691
50.4617
50.4532
50.4454
50.4373
50.4298
50.4225
50.4158
50.4092
50.4033
50.398
50.3945
50.3927
50.4332
50.4322
50.4423
50.4368
50.4337
50.4317
50.4053
50.2846
50.174
50.1606
50.219
50.4046
50.5265
50.5592
50.5539
50.5174
50.4823
50.4643
50.4559
50.4522
50.4506
50.4498
50.4494
50.449
50.4488
50.4486
50.4484
50.4483
50.4482
50.4482
50.4483
50.4484
50.4487
50.449
50.4494
50.4499
50.4504
50.451
50.4517
50.4524
50.4531
50.4539
50.4547
50.4555
50.4563
50.4571
50.4579
50.4587
50.4595
50.4602
50.461
50.4617
50.4624
50.463
50.4637
50.4643
50.4649
50.4655
50.466
50.4666
50.4671
50.4676
50.4681
50.4686
50.469
50.4695
50.4699
50.4703
50.4708
50.4712
50.4716
50.4719
50.4723
50.4727
50.4731
50.4735
50.4739
50.4743
50.4747
50.4751
50.4755
50.4759
50.4764
50.4769
50.4774
50.4779
50.4785
50.4791
50.4798
50.4805
50.4812
50.482
50.4828
50.4837
50.4847
50.4857
50.4868
50.4879
50.489
50.4902
50.4915
50.4927
50.494
50.4954
50.4967
50.498
50.4992
50.5005
50.5017
50.5028
50.5039
50.5049
50.5058
50.5066
50.5073
50.5079
50.5084
50.5087
50.509
50.5092
50.5093
50.5093
50.5093
50.5092
50.5091
50.5089
50.5087
50.5086
50.5085
50.5084
50.5083
50.5083
50.5084
50.5085
50.5087
50.509
50.5093
50.5097
50.5102
50.5107
50.5114
50.512
50.5127
50.5135
50.5143
50.5152
50.516
50.5169
50.5179
50.5188
50.5198
50.5207
50.5217
50.5227
50.5237
50.5247
50.5257
50.5267
50.5278
50.5288
50.5299
50.531
50.5321
50.5332
50.5344
50.5355
50.5367
50.5379
50.5392
50.5404
50.5417
50.5429
50.5442
50.5454
50.5467
50.5479
50.5491
50.5502
50.5513
50.5523
50.5533
50.5542
50.555
50.5557
50.5563
50.5567
50.5571
50.5573
50.5575
50.5575
50.5574
50.5572
50.5569
50.5566
50.5561
50.5556
50.5549
50.5543
50.5524
50.5602
50.4297
50.4325
50.4416
50.4357
50.4351
50.4368
50.435
50.4167
50.3925
50.3888
50.3974
50.4198
50.4325
50.4369
50.4405
50.4443
50.4473
50.4489
50.4496
50.4498
50.4498
50.4495
50.4493
50.449
50.4488
50.4486
50.4484
50.4483
50.4482
50.4482
50.4483
50.4485
50.4487
50.449
50.4494
50.4499
50.4504
50.451
50.4517
50.4524
50.4531
50.4539
50.4547
50.4555
50.4563
50.4571
50.4579
50.4587
50.4595
50.4603
50.461
50.4617
50.4624
50.4631
50.4637
50.4643
50.4649
50.4655
50.4661
50.4666
50.4671
50.4676
50.4681
50.4686
50.4691
50.4695
50.4699
50.4704
50.4708
50.4712
50.4716
50.472
50.4723
50.4727
50.4731
50.4735
50.4739
50.4743
50.4747
50.4751
50.4755
50.4759
50.4764
50.4769
50.4774
50.4779
50.4785
50.4791
50.4798
50.4805
50.4812
50.482
50.4829
50.4838
50.4847
50.4857
50.4868
50.4879
50.489
50.4902
50.4915
50.4928
50.4941
50.4954
50.4967
50.498
50.4992
50.5005
50.5017
50.5028
50.5039
50.5049
50.5058
50.5066
50.5073
50.5079
50.5084
50.5087
50.509
50.5092
50.5093
50.5093
50.5093
50.5092
50.5091
50.5089
50.5088
50.5086
50.5085
50.5084
50.5083
50.5083
50.5084
50.5085
50.5087
50.509
50.5093
50.5097
50.5102
50.5108
50.5114
50.512
50.5128
50.5135
50.5143
50.5152
50.5161
50.5169
50.5179
50.5188
50.5198
50.5207
50.5217
50.5227
50.5237
50.5247
50.5257
50.5267
50.5278
50.5288
50.5299
50.531
50.5321
50.5332
50.5344
50.5356
50.5367
50.538
50.5392
50.5404
50.5417
50.5429
50.5442
50.5455
50.5467
50.5479
50.5491
50.5502
50.5513
50.5524
50.5533
50.5542
50.555
50.5557
50.5563
50.5567
50.5571
50.5574
50.5575
50.5575
50.5574
50.5572
50.5569
50.5566
50.5561
50.5556
50.5549
50.5543
50.5528
50.5557
50.391
50.4013
50.4105
50.4138
50.4163
50.4231
50.432
50.4375
50.4405
50.4426
50.444
50.4455
50.4471
50.4484
50.4494
50.4499
50.4499
50.4499
50.4497
50.4496
50.4495
50.4493
50.4491
50.4489
50.4487
50.4485
50.4484
50.4483
50.4482
50.4482
50.4483
50.4485
50.4487
50.449
50.4494
50.4499
50.4504
50.451
50.4517
50.4524
50.4531
50.4539
50.4547
50.4555
50.4563
50.4571
50.4579
50.4587
50.4595
50.4603
50.461
50.4617
50.4624
50.4631
50.4637
50.4643
50.4649
50.4655
50.4661
50.4666
50.4671
50.4676
50.4681
50.4686
50.4691
50.4695
50.4699
50.4704
50.4708
50.4712
50.4716
50.472
50.4723
50.4727
50.4731
50.4735
50.4739
50.4743
50.4747
50.4751
50.4755
50.4759
50.4764
50.4769
50.4774
50.4779
50.4785
50.4791
50.4798
50.4805
50.4812
50.482
50.4829
50.4838
50.4847
50.4857
50.4868
50.4879
50.489
50.4902
50.4915
50.4928
50.4941
50.4954
50.4967
50.498
50.4992
50.5005
50.5017
50.5028
50.5039
50.5049
50.5058
50.5066
50.5073
50.5079
50.5084
50.5087
50.509
50.5092
50.5093
50.5093
50.5093
50.5092
50.5091
50.5089
50.5088
50.5086
50.5085
50.5084
50.5083
50.5083
50.5084
50.5085
50.5087
50.509
50.5093
50.5097
50.5102
50.5108
50.5114
50.512
50.5128
50.5135
50.5143
50.5152
50.5161
50.5169
50.5179
50.5188
50.5198
50.5207
50.5217
50.5227
50.5237
50.5247
50.5257
50.5267
50.5278
50.5288
50.5299
50.531
50.5321
50.5332
50.5344
50.5356
50.5367
50.538
50.5392
50.5404
50.5417
50.5429
50.5442
50.5455
50.5467
50.5479
50.5491
50.5502
50.5513
50.5524
50.5533
50.5542
50.555
50.5557
50.5563
50.5568
50.5571
50.5574
50.5575
50.5575
50.5574
50.5572
50.5569
50.5566
50.5561
50.5556
50.555
50.5543
50.5537
50.5531
50.4319
50.4322
50.4316
50.4312
50.4313
50.431
50.4299
50.4313
50.4336
50.4347
50.4312
50.4295
50.4316
50.4377
50.4457
50.4495
50.4508
50.4511
50.4507
50.4501
50.4498
50.4495
50.4492
50.449
50.4487
50.4485
50.4484
50.4483
50.4482
50.4482
50.4483
50.4485
50.4487
50.449
50.4494
50.4499
50.4504
50.451
50.4517
50.4524
50.4531
50.4539
50.4547
50.4555
50.4563
50.4571
50.4579
50.4587
50.4595
50.4603
50.461
50.4617
50.4624
50.4631
50.4637
50.4643
50.4649
50.4655
50.4661
50.4666
50.4671
50.4676
50.4681
50.4686
50.4691
50.4695
50.4699
50.4704
50.4708
50.4712
50.4716
50.472
50.4723
50.4727
50.4731
50.4735
50.4739
50.4743
50.4747
50.4751
50.4755
50.4759
50.4764
50.4769
50.4774
50.4779
50.4785
50.4791
50.4798
50.4805
50.4812
50.482
50.4829
50.4838
50.4847
50.4857
50.4868
50.4879
50.489
50.4902
50.4915
50.4928
50.4941
50.4954
50.4967
50.498
50.4992
50.5005
50.5017
50.5028
50.5039
50.5049
50.5058
50.5066
50.5073
50.5079
50.5084
50.5087
50.509
50.5092
50.5093
50.5093
50.5093
50.5092
50.5091
50.5089
50.5088
50.5086
50.5085
50.5084
50.5083
50.5083
50.5084
50.5085
50.5087
50.509
50.5093
50.5097
50.5102
50.5108
50.5114
50.512
50.5128
50.5135
50.5143
50.5152
50.5161
50.5169
50.5179
50.5188
50.5198
50.5207
50.5217
50.5227
50.5237
50.5247
50.5257
50.5267
50.5278
50.5288
50.5299
50.531
50.5321
50.5332
50.5344
50.5356
50.5367
50.538
50.5392
50.5404
50.5417
50.5429
50.5442
50.5455
50.5467
50.5479
50.5491
50.5502
50.5513
50.5524
50.5533
50.5542
50.555
50.5557
50.5563
50.5567
50.5571
50.5574
50.5575
50.5575
50.5574
50.5572
50.557
50.5566
50.5561
50.5556
50.555
50.5544
50.5541
50.5524
50.4164
50.4227
50.4233
50.4231
50.4225
50.4213
50.4235
50.4352
50.4497
50.4507
50.4249
50.3659
50.3408
50.3408
50.3579
50.397
50.4235
50.4377
50.4446
50.4476
50.4487
50.449
50.449
50.4489
50.4487
50.4485
50.4484
50.4483
50.4482
50.4482
50.4483
50.4484
50.4487
50.449
50.4494
50.4499
50.4504
50.451
50.4517
50.4524
50.4531
50.4539
50.4547
50.4555
50.4563
50.4571
50.4579
50.4587
50.4595
50.4602
50.461
50.4617
50.4624
50.463
50.4637
50.4643
50.4649
50.4655
50.466
50.4666
50.4671
50.4676
50.4681
50.4686
50.469
50.4695
50.4699
50.4703
50.4708
50.4712
50.4716
50.4719
50.4723
50.4727
50.4731
50.4735
50.4739
50.4743
50.4747
50.4751
50.4755
50.4759
50.4764
50.4769
50.4774
50.4779
50.4785
50.4791
50.4798
50.4805
50.4812
50.482
50.4828
50.4837
50.4847
50.4857
50.4868
50.4879
50.489
50.4902
50.4915
50.4927
50.494
50.4954
50.4967
50.498
50.4992
50.5005
50.5017
50.5028
50.5039
50.5049
50.5058
50.5066
50.5073
50.5079
50.5084
50.5087
50.509
50.5092
50.5093
50.5093
50.5093
50.5092
50.5091
50.5089
50.5087
50.5086
50.5085
50.5084
50.5083
50.5083
50.5084
50.5085
50.5087
50.509
50.5093
50.5097
50.5102
50.5107
50.5114
50.512
50.5127
50.5135
50.5143
50.5152
50.516
50.5169
50.5179
50.5188
50.5198
50.5207
50.5217
50.5227
50.5237
50.5247
50.5257
50.5267
50.5278
50.5288
50.5299
50.531
50.5321
50.5332
50.5344
50.5355
50.5367
50.5379
50.5392
50.5404
50.5417
50.5429
50.5442
50.5454
50.5467
50.5479
50.5491
50.5502
50.5513
50.5523
50.5533
50.5542
50.555
50.5557
50.5563
50.5567
50.5571
50.5573
50.5575
50.5575
50.5574
50.5572
50.5569
50.5565
50.5561
50.5555
50.555
50.5544
50.5541
50.5522
50.5241
50.5115
50.5069
50.5058
50.5034
50.4983
50.4915
50.4844
50.4763
50.4685
50.4604
50.4522
50.4447
50.4372
50.4303
50.4235
50.4176
50.4122
50.4085
50.4067
50.5326
50.5294
50.5298
50.5308
50.5295
50.5256
50.5197
50.5143
50.5069
50.501
50.4936
50.487
50.481
50.4747
50.4687
50.4632
50.4581
50.4536
50.4505
50.4483
50.5533
50.5531
50.5519
50.5497
50.5469
50.5433
50.5392
50.5342
50.529
50.5228
50.5157
50.5074
50.4982
50.4877
50.4768
50.4665
50.458
50.4501
50.4421
50.4323
50.5637
50.5668
50.5665
50.5648
50.5634
50.5623
50.5614
50.5587
50.5531
50.5473
50.5424
50.5385
50.5372
50.5446
50.5533
50.5543
50.5433
50.5214
50.498
50.4795
50.567
50.5734
50.574
50.5721
50.5705
50.5694
50.5684
50.5658
50.5606
50.5546
50.5494
50.5453
50.5438
50.5504
50.5592
50.5624
50.5542
50.5365
50.5125
50.4919
50.4287
50.4325
50.4309
50.4294
50.428
50.4255
50.4254
50.4325
50.4492
50.4525
50.4371
50.3794
50.3432
50.3384
50.3495
50.386
50.4181
50.4365
50.4463
50.4514
50.4544
50.4563
50.4579
50.4594
50.4607
50.462
50.4633
50.4646
50.4658
50.467
50.4682
50.4692
50.4702
50.4712
50.472
50.4728
50.4736
50.4742
50.4748
50.4753
50.4757
50.4761
50.4764
50.4766
50.4768
50.4769
50.4769
50.4769
50.4768
50.4768
50.4766
50.4764
50.4762
50.476
50.4758
50.4755
50.4753
50.475
50.4748
50.4745
50.4743
50.4741
50.4739
50.4737
50.4736
50.4735
50.4734
50.4734
50.4734
50.4734
50.4735
50.4736
50.4738
50.4739
50.4741
50.4743
50.4746
50.4748
50.4751
50.4754
50.4758
50.4761
50.4764
50.4768
50.4772
50.4776
50.4779
50.4784
50.4788
50.4793
50.4798
50.4804
50.481
50.4817
50.4824
50.4832
50.484
50.485
50.4848
50.494
50.4436
50.4414
50.4391
50.4373
50.4364
50.4353
50.4323
50.4319
50.4332
50.4347
50.4341
50.4314
50.4324
50.4359
50.4434
50.4489
50.4516
50.4531
50.4542
50.4549
50.4558
50.4569
50.4582
50.4595
50.4608
50.4621
50.4634
50.4646
50.4659
50.467
50.4682
50.4692
50.4702
50.4712
50.4721
50.4729
50.4736
50.4742
50.4748
50.4753
50.4757
50.4761
50.4764
50.4766
50.4768
50.4769
50.4769
50.4769
50.4769
50.4768
50.4766
50.4764
50.4763
50.476
50.4758
50.4756
50.4753
50.475
50.4748
50.4745
50.4743
50.4741
50.4739
50.4738
50.4736
50.4735
50.4735
50.4734
50.4734
50.4735
50.4735
50.4736
50.4738
50.4739
50.4741
50.4743
50.4746
50.4749
50.4751
50.4755
50.4758
50.4761
50.4765
50.4768
50.4772
50.4776
50.478
50.4784
50.4788
50.4793
50.4799
50.4804
50.481
50.4817
50.4824
50.4832
50.484
50.485
50.4852
50.4895
50.4036
50.4111
50.4177
50.4192
50.4199
50.424
50.4318
50.437
50.4396
50.4412
50.4424
50.4438
50.4455
50.4472
50.4487
50.4501
50.4512
50.4521
50.4531
50.4542
50.4555
50.4568
50.4581
50.4594
50.4608
50.4621
50.4634
50.4646
50.4659
50.467
50.4682
50.4692
50.4702
50.4712
50.4721
50.4729
50.4736
50.4742
50.4748
50.4753
50.4757
50.4761
50.4764
50.4766
50.4768
50.4769
50.4769
50.4769
50.4769
50.4768
50.4766
50.4764
50.4763
50.476
50.4758
50.4756
50.4753
50.475
50.4748
50.4745
50.4743
50.4741
50.4739
50.4738
50.4736
50.4735
50.4735
50.4734
50.4734
50.4735
50.4735
50.4736
50.4738
50.4739
50.4741
50.4743
50.4746
50.4749
50.4751
50.4755
50.4758
50.4761
50.4765
50.4768
50.4772
50.4776
50.478
50.4784
50.4788
50.4793
50.4799
50.4804
50.481
50.4817
50.4824
50.4832
50.4841
50.485
50.486
50.487
50.4403
50.4439
50.4487
50.4404
50.4383
50.4404
50.4398
50.4241
50.3951
50.386
50.3911
50.4128
50.431
50.4379
50.4418
50.4454
50.4487
50.4513
50.453
50.4545
50.4559
50.457
50.4583
50.4595
50.4608
50.4621
50.4634
50.4646
50.4659
50.467
50.4682
50.4692
50.4702
50.4712
50.4721
50.4729
50.4736
50.4742
50.4748
50.4753
50.4757
50.4761
50.4764
50.4766
50.4768
50.4769
50.4769
50.4769
50.4769
50.4768
50.4766
50.4764
50.4763
50.476
50.4758
50.4756
50.4753
50.475
50.4748
50.4745
50.4743
50.4741
50.4739
50.4738
50.4736
50.4735
50.4735
50.4734
50.4734
50.4735
50.4735
50.4736
50.4738
50.4739
50.4741
50.4743
50.4746
50.4749
50.4751
50.4755
50.4758
50.4761
50.4765
50.4768
50.4772
50.4776
50.478
50.4784
50.4788
50.4793
50.4799
50.4804
50.481
50.4817
50.4824
50.4832
50.4841
50.4851
50.4865
50.4864
50.4435
50.4438
50.4491
50.4413
50.4382
50.4375
50.4237
50.3346
50.2033
50.1686
50.1984
50.3501
50.5004
50.5529
50.5556
50.5305
50.4915
50.4706
50.4612
50.4577
50.457
50.4574
50.4584
50.4596
50.4608
50.4621
50.4634
50.4646
50.4658
50.467
50.4682
50.4692
50.4702
50.4712
50.472
50.4728
50.4736
50.4742
50.4748
50.4753
50.4757
50.4761
50.4764
50.4766
50.4768
50.4769
50.4769
50.4769
50.4768
50.4768
50.4766
50.4764
50.4762
50.476
50.4758
50.4755
50.4753
50.475
50.4748
50.4745
50.4743
50.4741
50.4739
50.4737
50.4736
50.4735
50.4734
50.4734
50.4734
50.4734
50.4735
50.4736
50.4738
50.4739
50.4741
50.4743
50.4746
50.4748
50.4751
50.4754
50.4758
50.4761
50.4764
50.4768
50.4772
50.4776
50.478
50.4784
50.4788
50.4793
50.4798
50.4804
50.481
50.4817
50.4824
50.4832
50.4841
50.485
50.4865
50.4862
50.4593
50.4469
50.4424
50.4418
50.4398
50.435
50.4286
50.4218
50.414
50.4065
50.3987
50.3908
50.3836
50.3764
50.3699
50.3635
50.3578
50.3527
50.3494
50.3478
50.4679
50.4649
50.4657
50.4672
50.4663
50.4628
50.4572
50.4522
50.4451
50.4395
50.4325
50.4261
50.4205
50.4145
50.409
50.4037
50.399
50.3949
50.3921
50.3903
50.4884
50.4887
50.4879
50.4862
50.4838
50.4806
50.4769
50.4723
50.4674
50.4616
50.4548
50.4469
50.438
50.4279
50.4173
50.4074
50.3992
50.3918
50.3841
50.3747
50.4987
50.5024
50.5027
50.5015
50.5005
50.4998
50.4993
50.4971
50.4919
50.4864
50.4818
50.4782
50.4773
50.4852
50.4942
50.4957
50.485
50.4635
50.4406
50.4227
50.5021
50.5092
50.5103
50.5089
50.5078
50.507
50.5065
50.5043
50.4994
50.4938
50.4889
50.4851
50.4841
50.4911
50.5003
50.5039
50.4961
50.4787
50.4551
50.4353
50.3713
50.3772
50.3776
50.3778
50.3776
50.3765
50.3789
50.3909
50.4034
50.4029
50.3723
50.3163
50.2957
50.2973
50.3178
50.356
50.3801
50.3927
50.3987
50.4011
50.4018
50.402
50.4018
50.4014
50.4011
50.4007
50.4003
50.4001
50.3999
50.3997
50.3997
50.3997
50.3999
50.4001
50.4005
50.4009
50.4014
50.4021
50.4028
50.4036
50.4044
50.4053
50.4062
50.4072
50.4082
50.4093
50.4103
50.4114
50.4125
50.4136
50.4146
50.4157
50.4168
50.4179
50.419
50.42
50.4211
50.4222
50.4232
50.4243
50.4254
50.4265
50.4275
50.4286
50.4297
50.4308
50.4318
50.4329
50.4339
50.435
50.436
50.4371
50.4381
50.4391
50.4401
50.4411
50.442
50.4429
50.4438
50.4446
50.4454
50.4461
50.4468
50.4474
50.4479
50.4484
50.4488
50.4491
50.4493
50.4494
50.4495
50.4495
50.4494
50.4492
50.449
50.4487
50.4484
50.448
50.4476
50.4472
50.4469
50.4465
50.4462
50.4459
50.4456
50.4454
50.4453
50.4453
50.4454
50.4456
50.4459
50.4463
50.4468
50.4474
50.448
50.4489
50.4498
50.4507
50.4518
50.4529
50.454
50.4553
50.4565
50.4578
50.459
50.4603
50.4616
50.4628
50.464
50.4652
50.4664
50.4674
50.4685
50.4695
50.4704
50.4712
50.472
50.4728
50.4734
50.474
50.4746
50.4751
50.4756
50.476
50.4764
50.4768
50.4771
50.4774
50.4777
50.478
50.4783
50.4786
50.4789
50.4792
50.4795
50.4798
50.4801
50.4805
50.4809
50.4813
50.4817
50.4822
50.4826
50.4832
50.4837
50.4844
50.485
50.4857
50.4864
50.4872
50.488
50.4888
50.4897
50.4906
50.4915
50.4924
50.4933
50.4941
50.495
50.4958
50.4966
50.4973
50.4979
50.4985
50.499
50.4994
50.4997
50.4999
50.5
50.5
50.4999
50.4998
50.4996
50.4992
50.4989
50.4984
50.498
50.4975
50.4975
50.4956
50.3863
50.3864
50.3858
50.3858
50.3863
50.3859
50.3847
50.3862
50.3886
50.3904
50.3887
50.3876
50.3894
50.394
50.4004
50.4034
50.4044
50.4045
50.404
50.4033
50.4028
50.4023
50.4019
50.4015
50.4011
50.4007
50.4004
50.4001
50.3999
50.3997
50.3997
50.3997
50.3999
50.4001
50.4005
50.4009
50.4015
50.4021
50.4028
50.4036
50.4044
50.4053
50.4063
50.4072
50.4083
50.4093
50.4104
50.4114
50.4125
50.4136
50.4147
50.4157
50.4168
50.4179
50.419
50.42
50.4211
50.4222
50.4233
50.4243
50.4254
50.4265
50.4276
50.4286
50.4297
50.4308
50.4318
50.4329
50.434
50.435
50.4361
50.4371
50.4381
50.4391
50.4401
50.4411
50.442
50.4429
50.4438
50.4446
50.4454
50.4461
50.4468
50.4474
50.4479
50.4484
50.4488
50.4491
50.4493
50.4494
50.4495
50.4495
50.4494
50.4492
50.449
50.4487
50.4484
50.448
50.4476
50.4473
50.4469
50.4465
50.4462
50.4459
50.4456
50.4455
50.4454
50.4453
50.4454
50.4456
50.4459
50.4463
50.4468
50.4474
50.4481
50.4489
50.4498
50.4507
50.4518
50.4529
50.4541
50.4553
50.4565
50.4578
50.4591
50.4603
50.4616
50.4628
50.4641
50.4652
50.4664
50.4675
50.4685
50.4695
50.4704
50.4712
50.472
50.4728
50.4734
50.4741
50.4746
50.4751
50.4756
50.476
50.4764
50.4768
50.4771
50.4775
50.4778
50.4781
50.4783
50.4786
50.4789
50.4792
50.4795
50.4798
50.4802
50.4805
50.4809
50.4813
50.4817
50.4822
50.4827
50.4832
50.4838
50.4844
50.485
50.4857
50.4865
50.4872
50.488
50.4889
50.4897
50.4906
50.4915
50.4924
50.4933
50.4942
50.495
50.4958
50.4966
50.4973
50.4979
50.4985
50.499
50.4994
50.4997
50.4999
50.5
50.5
50.5
50.4998
50.4996
50.4993
50.4989
50.4985
50.4981
50.4976
50.4975
50.4958
50.3461
50.356
50.3649
50.3682
50.3706
50.3769
50.3857
50.3911
50.3941
50.3963
50.3978
50.3995
50.401
50.4023
50.4032
50.4036
50.4036
50.4034
50.4031
50.4029
50.4026
50.4022
50.4018
50.4015
50.4011
50.4007
50.4004
50.4001
50.3999
50.3997
50.3997
50.3997
50.3999
50.4001
50.4005
50.4009
50.4015
50.4021
50.4028
50.4036
50.4044
50.4053
50.4063
50.4072
50.4083
50.4093
50.4104
50.4114
50.4125
50.4136
50.4147
50.4157
50.4168
50.4179
50.419
50.42
50.4211
50.4222
50.4233
50.4243
50.4254
50.4265
50.4276
50.4286
50.4297
50.4308
50.4318
50.4329
50.434
50.435
50.4361
50.4371
50.4381
50.4391
50.4401
50.4411
50.442
50.4429
50.4438
50.4446
50.4454
50.4461
50.4468
50.4474
50.4479
50.4484
50.4488
50.4491
50.4493
50.4494
50.4495
50.4495
50.4494
50.4492
50.449
50.4487
50.4484
50.448
50.4476
50.4473
50.4469
50.4465
50.4462
50.4459
50.4456
50.4455
50.4454
50.4453
50.4454
50.4456
50.4459
50.4463
50.4468
50.4474
50.4481
50.4489
50.4498
50.4507
50.4518
50.4529
50.4541
50.4553
50.4565
50.4578
50.4591
50.4603
50.4616
50.4628
50.4641
50.4652
50.4664
50.4675
50.4685
50.4695
50.4704
50.4712
50.472
50.4728
50.4734
50.4741
50.4746
50.4751
50.4756
50.476
50.4764
50.4768
50.4771
50.4775
50.4778
50.4781
50.4783
50.4786
50.4789
50.4792
50.4795
50.4798
50.4802
50.4805
50.4809
50.4813
50.4817
50.4822
50.4827
50.4832
50.4838
50.4844
50.485
50.4857
50.4865
50.4872
50.488
50.4889
50.4897
50.4906
50.4915
50.4924
50.4933
50.4942
50.495
50.4958
50.4966
50.4973
50.4979
50.4985
50.499
50.4994
50.4997
50.4999
50.5
50.5
50.5
50.4998
50.4996
50.4993
50.4989
50.4985
50.498
50.4975
50.497
50.4965
50.383
50.3883
50.3945
50.3887
50.3885
50.3909
50.3887
50.3688
50.3457
50.3429
50.3526
50.3766
50.3896
50.3944
50.3976
50.4002
50.4021
50.403
50.4033
50.4032
50.4029
50.4024
50.402
50.4015
50.4011
50.4007
50.4004
50.4001
50.3999
50.3997
50.3997
50.3997
50.3999
50.4001
50.4005
50.4009
50.4015
50.4021
50.4028
50.4036
50.4044
50.4053
50.4063
50.4072
50.4083
50.4093
50.4104
50.4114
50.4125
50.4136
50.4147
50.4157
50.4168
50.4179
50.419
50.42
50.4211
50.4222
50.4233
50.4243
50.4254
50.4265
50.4276
50.4286
50.4297
50.4308
50.4318
50.4329
50.434
50.435
50.4361
50.4371
50.4381
50.4391
50.4401
50.4411
50.442
50.4429
50.4438
50.4446
50.4454
50.4461
50.4468
50.4474
50.4479
50.4484
50.4488
50.4491
50.4493
50.4494
50.4495
50.4495
50.4494
50.4492
50.449
50.4487
50.4484
50.448
50.4476
50.4473
50.4469
50.4465
50.4462
50.4459
50.4456
50.4455
50.4454
50.4453
50.4454
50.4456
50.4459
50.4463
50.4468
50.4474
50.4481
50.4489
50.4498
50.4507
50.4518
50.4529
50.4541
50.4553
50.4565
50.4578
50.4591
50.4603
50.4616
50.4628
50.4641
50.4652
50.4664
50.4675
50.4685
50.4695
50.4704
50.4712
50.472
50.4728
50.4734
50.4741
50.4746
50.4751
50.4756
50.476
50.4764
50.4768
50.4771
50.4775
50.4778
50.4781
50.4783
50.4786
50.4789
50.4792
50.4795
50.4798
50.4802
50.4805
50.4809
50.4813
50.4817
50.4822
50.4827
50.4832
50.4838
50.4844
50.485
50.4857
50.4865
50.4872
50.488
50.4889
50.4897
50.4906
50.4915
50.4924
50.4933
50.4942
50.495
50.4958
50.4966
50.4973
50.4979
50.4985
50.499
50.4994
50.4997
50.4999
50.5
50.5
50.5
50.4998
50.4996
50.4993
50.4989
50.4985
50.498
50.4975
50.4962
50.4994
50.386
50.3879
50.3952
50.3899
50.3879
50.3871
50.3617
50.2467
50.1456
50.1355
50.1949
50.3711
50.4794
50.5063
50.4993
50.4631
50.4317
50.4159
50.4085
50.4051
50.4035
50.4026
50.402
50.4015
50.4011
50.4007
50.4004
50.4001
50.3999
50.3997
50.3997
50.3997
50.3999
50.4001
50.4005
50.4009
50.4014
50.4021
50.4028
50.4036
50.4044
50.4053
50.4062
50.4072
50.4082
50.4093
50.4103
50.4114
50.4125
50.4136
50.4146
50.4157
50.4168
50.4179
50.419
50.42
50.4211
50.4222
50.4232
50.4243
50.4254
50.4265
50.4275
50.4286
50.4297
50.4308
50.4318
50.4329
50.4339
50.435
50.436
50.4371
50.4381
50.4391
50.4401
50.4411
50.442
50.4429
50.4438
50.4446
50.4454
50.4461
50.4468
50.4474
50.4479
50.4484
50.4488
50.4491
50.4493
50.4494