/*--------------------------------*- C++ -*----------------------------------*\
| =========                 |                                                 |
| \\      /  F ield         | OpenFOAM: The Open Source CFD Toolbox           |
|  \\    /   O peration     | Version:  3.0.x                                 |
|   \\  /    A nd           | Web:      www.OpenFOAM.org                      |
|    \\/     M anipulation  |                                                 |
\*---------------------------------------------------------------------------*/
FoamFile
{
    version     2.0;
    format      ascii;
    class       surfaceScalarField;
    location    "0.57";
    object      phi;
}
// * * * * * * * * * * * * * * * * * * * * * * * * * * * * * * * * * * * * * //

dimensions      [1 0 -1 0 0 0 0];

internalField   nonuniform List<scalar> 
12415
(
6.05242
0.000330869
6.00879
0.000241014
5.96513
0.000234389
5.92144
0.000238231
5.87771
0.00024079
5.83394
0.000242704
5.79015
0.000244498
5.74633
0.000246073
5.70251
0.000247395
5.65866
0.00024849
5.6148
0.000249378
5.57095
0.000250084
5.52712
0.000250637
5.48332
0.000251043
5.43955
0.000251391
5.39581
0.000251644
5.35211
0.000251797
5.30848
0.000251934
5.2649
0.000252034
5.22139
0.000252119
5.17796
0.000252184
5.13459
0.000252246
5.0913
0.000252302
5.04809
0.000252354
5.00497
0.000252405
4.96193
0.000252462
4.91899
0.000252505
4.87613
0.000252566
4.83338
0.000252615
4.79072
0.000252666
4.74816
0.000252728
4.70571
0.000252773
4.66337
0.000252837
4.62113
0.000252889
4.57901
0.000252946
4.537
0.000253011
4.49512
0.000253066
4.45335
0.000253127
4.41171
0.000253199
4.37019
0.000253258
4.32879
0.000253323
4.28753
0.000253396
4.24641
0.00025348
4.20542
0.000253566
4.16457
0.000253651
4.12385
0.000253748
4.08329
0.000253815
4.04287
0.000253902
4.0026
0.000253977
3.96249
0.000254082
3.92254
0.000254218
3.88276
0.000254376
3.84314
0.000254549
3.80368
0.000254729
3.76439
0.000254893
3.72527
0.000255039
3.68632
0.00025518
3.64756
0.00025532
3.60898
0.000255457
3.57058
0.000255597
3.53238
0.000255737
3.49437
0.000255872
3.45656
0.000256004
3.41895
0.000256147
3.38156
0.000256306
3.34436
0.000256466
3.30738
0.000256599
3.27061
0.000256671
3.23405
0.000256638
3.1977
0.00025646
3.16158
0.000256109
3.12567
0.000255564
3.08999
0.000254802
3.05454
0.000253793
3.01932
0.000252496
2.98433
0.000250855
2.94957
0.000248803
2.91505
0.000246265
2.88076
0.000243161
2.84671
0.00023942
2.8129
0.000234977
2.77933
0.000229781
2.74599
0.000223798
2.7129
0.000217008
2.68005
0.000209414
2.64744
0.000201037
2.61508
0.000191919
2.58296
0.000182121
2.55108
0.000171722
2.51946
0.000160819
2.48808
0.000149524
2.45695
0.000137958
2.42606
0.000126252
2.39543
0.00011454
2.36504
0.000102953
2.3349
9.16198e-05
2.30501
8.06592e-05
2.27538
7.01764e-05
2.24599
6.02609e-05
2.21685
5.09835e-05
2.18796
4.23956e-05
2.15932
3.45304e-05
2.13093
2.74042e-05
2.10279
2.10139e-05
2.0749
1.53427e-05
2.04727
1.03597e-05
2.01988
6.0262e-06
1.99275
2.27067e-06
1.96587
-9.6751e-07
1.93925
-3.61637e-06
1.91288
-5.87159e-06
1.88677
-7.7431e-06
1.86091
-9.27998e-06
1.83531
-1.05323e-05
1.80997
-1.15451e-05
1.78488
-1.2357e-05
1.76006
-1.30034e-05
1.73549
-1.35147e-05
1.71119
-1.39183e-05
1.68714
-1.42368e-05
1.66335
-1.44876e-05
1.63982
-1.46863e-05
1.61656
-1.48438e-05
1.59355
-1.49714e-05
1.5708
-1.50768e-05
1.54831
-1.51649e-05
1.52607
-1.52398e-05
1.50409
-1.53036e-05
1.48237
-1.53601e-05
1.4609
-1.54129e-05
1.43968
-1.5463e-05
1.41872
-1.55118e-05
1.39801
-1.55588e-05
1.37755
-1.5604e-05
1.35734
-1.56481e-05
1.33738
-1.56916e-05
1.31766
-1.57359e-05
1.2982
-1.57808e-05
1.27898
-1.58262e-05
1.26
-1.5871e-05
1.24127
-1.59137e-05
1.22279
-1.59551e-05
1.20455
-1.59964e-05
1.18656
-1.60372e-05
1.16881
-1.60781e-05
1.1513
-1.61193e-05
1.13404
-1.61611e-05
1.11702
-1.62029e-05
1.10025
-1.62449e-05
1.08371
-1.62859e-05
1.06742
-1.63256e-05
1.05137
-1.63643e-05
1.03557
-1.64011e-05
1.02
-1.64386e-05
1.00468
-1.6476e-05
0.989601
-1.65144e-05
0.974761
-1.65526e-05
0.960162
-1.65916e-05
0.945803
-1.66273e-05
0.931683
-1.66641e-05
0.917802
-1.67003e-05
0.904158
-1.67398e-05
0.890752
-1.67776e-05
0.877581
-1.68164e-05
0.864645
-1.68526e-05
0.851942
-1.68899e-05
0.839469
-1.69232e-05
0.827226
-1.69628e-05
0.815209
-1.69931e-05
0.803416
-1.70374e-05
0.791845
-1.7063e-05
0.780494
-1.7112e-05
0.769359
-1.71275e-05
0.758437
-1.71855e-05
0.747728
-1.71828e-05
0.737227
-1.72684e-05
0.726934
-1.7223e-05
0.716847
-1.73815e-05
0.706965
-1.72169e-05
0.697287
-1.75556e-05
0.687811
-1.71166e-05
0.678539
-1.78166e-05
0.669469
-1.6375e-05
0.660602
-1.86664e-05
0.651936
-1.52781e-05
0.643472
-2.02062e-05
0.635205
-1.4176e-05
0.627136
-2.16742e-05
0.619257
-1.31189e-05
0.611569
-2.25844e-05
0.60406
-1.29992e-05
0.596729
-2.20662e-05
0.589566
-1.52786e-05
0.582561
-1.77784e-05
0.575707
-7.86862e-06
0.56895
3.90279e-05
0.562101
0.000282859
0.553994
0.00169154
0.530356
0.0173678
0.0386929
0.485555
12.1056
0.000262957
12.0189
0.00021956
11.9321
0.000198582
11.8452
0.000204095
11.7582
0.000206909
11.6712
0.000208171
11.5842
0.000209627
11.4971
0.000211004
11.4099
0.000212154
11.3228
0.000213105
11.2356
0.000213882
11.1484
0.000214503
11.0613
0.000214992
10.9742
0.000215363
10.8872
0.000215667
10.8003
0.000215897
10.7134
0.000216048
10.6267
0.000216178
10.5401
0.000216279
10.4536
0.000216366
10.3673
0.000216437
10.2811
0.000216503
10.195
0.000216565
10.1092
0.000216624
10.0235
0.000216682
9.93793
0.000216744
9.85257
0.000216797
9.76741
0.000216861
9.68243
0.000216918
9.59765
0.000216976
9.51308
0.000217042
9.42872
0.000217097
9.34457
0.000217163
9.26064
0.000217224
9.17694
0.000217287
9.09347
0.000217355
9.01024
0.000217418
8.92724
0.000217484
8.8445
0.000217559
8.762
0.000217626
8.67976
0.000217696
8.59778
0.000217773
8.51607
0.000217858
8.43463
0.000217946
8.35347
0.000218033
8.27259
0.000218128
8.192
0.000218203
8.1117
0.00021829
8.03171
0.000218375
7.95203
0.000218479
7.87268
0.000218611
7.79365
0.000218759
7.71495
0.00021892
7.63658
0.000219088
7.55855
0.000219243
7.48085
0.000219385
7.40351
0.000219523
7.32652
0.00021966
7.24991
0.000219794
7.17366
0.000219928
7.0978
0.000220062
7.02233
0.000220193
6.94726
0.000220321
6.8726
0.000220458
6.79834
0.000220607
6.72451
0.000220755
6.65109
0.000220879
6.5781
0.000220947
6.50553
0.000220924
6.43339
0.000220773
6.36168
0.000220472
6.29041
0.000219999
6.2196
0.000219334
6.14923
0.00021845
6.07933
0.000217309
6.00988
0.000215864
5.9409
0.000214056
5.87239
0.000211819
5.80434
0.000209086
5.73675
0.000205795
5.66963
0.00020189
5.60298
0.00019733
5.53679
0.000192084
5.47106
0.00018614
5.40581
0.0001795
5.34102
0.000172186
5.27671
0.000164237
5.21286
0.000155707
5.14948
0.000146669
5.08657
0.000137207
5.02413
0.000127422
4.96216
0.000117419
4.90067
0.000107312
4.83964
9.72175e-05
4.77909
8.72496e-05
4.71902
7.75177e-05
4.65941
6.81228e-05
4.60029
5.9154e-05
4.54164
5.06861e-05
4.48347
4.27773e-05
4.42578
3.54696e-05
4.36858
2.87906e-05
4.31186
2.2753e-05
4.25563
1.73507e-05
4.19989
1.25663e-05
4.14464
8.37226e-06
4.08988
4.73539e-06
4.03562
1.53894e-06
3.98187
-1.29025e-06
3.92861
-3.36881e-06
3.87586
-5.24886e-06
3.82362
-6.81193e-06
3.77188
-8.09358e-06
3.72066
-9.13688e-06
3.66995
-9.98023e-06
3.61975
-1.06564e-05
3.57007
-1.11945e-05
3.52091
-1.16206e-05
3.47227
-1.1957e-05
3.42415
-1.2223e-05
3.37654
-1.24328e-05
3.32946
-1.25993e-05
3.28289
-1.27318e-05
3.23684
-1.28393e-05
3.1913
-1.29284e-05
3.14629
-1.30031e-05
3.10178
-1.30666e-05
3.05779
-1.31212e-05
3.01431
-1.31693e-05
2.97134
-1.32145e-05
2.92888
-1.32573e-05
2.88692
-1.32992e-05
2.84546
-1.33394e-05
2.80451
-1.33782e-05
2.76405
-1.34161e-05
2.72409
-1.34534e-05
2.68463
-1.34913e-05
2.64567
-1.353e-05
2.60719
-1.35686e-05
2.56921
-1.36075e-05
2.53172
-1.36437e-05
2.49472
-1.36796e-05
2.45821
-1.37148e-05
2.42219
-1.37498e-05
2.38666
-1.37851e-05
2.35161
-1.38204e-05
2.31705
-1.38561e-05
2.28298
-1.3892e-05
2.24939
-1.39282e-05
2.21629
-1.39633e-05
2.18367
-1.39971e-05
2.15154
-1.40308e-05
2.11989
-1.40618e-05
2.08873
-1.40945e-05
2.05805
-1.4126e-05
2.02785
-1.41598e-05
1.99814
-1.41913e-05
1.9689
-1.42264e-05
1.94015
-1.42553e-05
1.91187
-1.4289e-05
1.88407
-1.43174e-05
1.85675
-1.43534e-05
1.8299
-1.43845e-05
1.80353
-1.442e-05
1.77762
-1.44479e-05
1.75217
-1.44832e-05
1.72719
-1.45064e-05
1.70267
-1.455e-05
1.6786
-1.45621e-05
1.65498
-1.46179e-05
1.6318
-1.46167e-05
1.60906
-1.46904e-05
1.58675
-1.46613e-05
1.56487
-1.47683e-05
1.54342
-1.46841e-05
1.52238
-1.48789e-05
1.50175
-1.46558e-05
1.48154
-1.50789e-05
1.46174
-1.44864e-05
1.44235
-1.54777e-05
1.42336
-1.40436e-05
1.40478
-1.61441e-05
1.3866
-1.15522e-05
1.36883
-1.86829e-05
1.35146
-8.0101e-06
1.33449
-2.32893e-05
1.31792
-4.51709e-06
1.30175
-2.75728e-05
1.28595
-1.20917e-06
1.27054
-3.01634e-05
1.25548
-6.81098e-07
1.24078
-2.8652e-05
1.22641
-6.73344e-06
1.21237
-1.75274e-05
1.19862
2.15978e-05
1.18508
0.000141008
1.17131
0.00092343
1.15505
0.00510324
1.12494
0.0349551
0.0743604
1.07705
145.267
-0.000262957
144.226
-0.00021956
143.185
-0.000198582
142.142
-0.000204095
141.099
-0.000206909
140.055
-0.000208171
139.01
-0.000209627
137.965
-0.000211004
136.919
-0.000212154
135.873
-0.000213105
134.827
-0.000213882
133.781
-0.000214503
132.735
-0.000214992
131.691
-0.000215363
130.647
-0.000215667
129.603
-0.000215897
128.561
-0.000216048
127.52
-0.000216178
126.481
-0.000216279
125.443
-0.000216366
124.407
-0.000216437
123.373
-0.000216503
122.34
-0.000216565
121.31
-0.000216624
120.281
-0.000216682
119.255
-0.000216744
118.231
-0.000216797
117.209
-0.000216861
116.189
-0.000216918
115.172
-0.000216976
114.157
-0.000217042
113.145
-0.000217097
112.135
-0.000217163
111.128
-0.000217224
110.123
-0.000217287
109.122
-0.000217355
108.123
-0.000217418
107.127
-0.000217484
106.134
-0.000217559
105.144
-0.000217626
104.157
-0.000217696
103.173
-0.000217773
102.193
-0.000217858
101.216
-0.000217946
100.242
-0.000218033
99.2711
-0.000218128
98.304
-0.000218203
97.3405
-0.00021829
96.3806
-0.000218375
95.4245
-0.000218479
94.4723
-0.000218611
93.524
-0.000218759
92.5796
-0.00021892
91.6391
-0.000219088
90.7027
-0.000219243
89.7704
-0.000219385
88.8423
-0.000219523
87.9185
-0.00021966
86.9991
-0.000219794
86.0841
-0.000219928
85.1738
-0.000220062
84.2682
-0.000220193
83.3674
-0.000220321
82.4714
-0.000220458
81.5804
-0.000220607
80.6944
-0.000220755
79.8134
-0.000220879
78.9375
-0.000220947
78.0666
-0.000220924
77.201
-0.000220773
76.3405
-0.000220472
75.4853
-0.000219999
74.6355
-0.000219334
73.7912
-0.00021845
72.9523
-0.000217309
72.119
-0.000215864
71.2913
-0.000214056
70.4691
-0.000211819
69.6525
-0.000209086
68.8415
-0.000205795
68.036
-0.00020189
67.2362
-0.00019733
66.4419
-0.000192084
65.6532
-0.00018614
64.8702
-0.0001795
64.0928
-0.000172186
63.3209
-0.000164237
62.5548
-0.000155707
61.7942
-0.000146669
61.0393
-0.000137207
60.29
-0.000127422
59.5464
-0.000117419
58.8084
-0.000107312
58.0761
-9.72175e-05
57.3495
-8.72496e-05
56.6285
-7.75177e-05
55.9133
-6.81228e-05
55.2038
-5.9154e-05
54.5
-5.0686e-05
53.8019
-4.27774e-05
53.1097
-3.54696e-05
52.4232
-2.87906e-05
51.7426
-2.2753e-05
51.0678
-1.73508e-05
50.3989
-1.25662e-05
49.7359
-8.37238e-06
49.0788
-4.73524e-06
48.4277
-1.53911e-06
47.7826
1.29042e-06
47.1436
3.36863e-06
46.5105
5.24902e-06
45.8836
6.81177e-06
45.2628
8.09374e-06
44.6481
9.13672e-06
44.0396
9.98039e-06
43.4373
1.06562e-05
42.8411
1.11946e-05
42.2512
1.16204e-05
41.6675
1.19572e-05
41.09
1.22228e-05
40.5187
1.2433e-05
39.9537
1.25992e-05
39.3949
1.27319e-05
38.8423
1.28393e-05
38.2959
1.29284e-05
37.7557
1.3003e-05
37.2216
1.3067e-05
36.6937
1.31206e-05
36.172
1.317e-05
35.6563
1.32138e-05
35.1467
1.32579e-05
34.6432
1.32988e-05
34.1458
1.33396e-05
33.6543
1.33782e-05
33.1688
1.3416e-05
32.6894
1.34533e-05
32.2158
1.34915e-05
31.7482
1.35295e-05
31.2865
1.35697e-05
30.8308
1.3606e-05
30.3809
1.3645e-05
29.9369
1.36791e-05
29.4988
1.37146e-05
29.0665
1.37499e-05
28.6401
1.37855e-05
28.2195
1.38193e-05
27.8048
1.38575e-05
27.3959
1.38908e-05
26.9929
1.39288e-05
26.5957
1.39627e-05
26.2043
1.39983e-05
25.8187
1.40294e-05
25.4389
1.40629e-05
25.065
1.40931e-05
24.6968
1.41284e-05
24.3344
1.41563e-05
23.9778
1.41964e-05
23.627
1.42205e-05
23.282
1.42618e-05
22.9427
1.42793e-05
22.6091
1.43288e-05
22.2812
1.43462e-05
21.959
1.43917e-05
21.6425
1.44063e-05
21.3316
1.44617e-05
21.0263
1.44697e-05
20.7265
1.45285e-05
20.4322
1.45191e-05
20.1434
1.46004e-05
19.8599
1.45693e-05
19.5818
1.46826e-05
19.3089
1.46004e-05
19.0412
1.47784e-05
18.7787
1.46065e-05
18.5212
1.49204e-05
18.2687
1.45304e-05
18.0213
1.51887e-05
17.7787
1.42391e-05
17.5411
1.57917e-05
17.3084
1.34598e-05
17.0805
1.68894e-05
16.8575
1.07213e-05
16.6394
1.99364e-05
16.4262
6.3989e-06
16.2177
2.48719e-05
16.0141
2.9386e-06
15.8153
2.8126e-05
15.6212
1.60364e-06
15.4316
2.93502e-05
15.2466
1.07751e-07
15.066
3.16714e-05
14.8896
-2.50453e-06
14.7172
3.83252e-05
14.5487
-5.68697e-06
14.3839
3.40285e-05
14.2229
-1.39004e-05
14.0664
-0.000225361
13.9198
-0.00230537
13.8043
0.000142391
-0.0278318
13.7599
12.1056
-0.000330869
12.0189
-0.000241014
11.9321
-0.000234389
11.8452
-0.000238231
11.7582
-0.00024079
11.6712
-0.000242704
11.5842
-0.000244498
11.4971
-0.000246073
11.4099
-0.000247395
11.3228
-0.00024849
11.2356
-0.000249378
11.1484
-0.000250084
11.0613
-0.000250637
10.9742
-0.000251043
10.8872
-0.000251391
10.8003
-0.000251644
10.7134
-0.000251797
10.6267
-0.000251934
10.5401
-0.000252034
10.4536
-0.000252119
10.3673
-0.000252184
10.2811
-0.000252246
10.195
-0.000252302
10.1092
-0.000252354
10.0235
-0.000252405
9.93793
-0.000252462
9.85257
-0.000252505
9.76741
-0.000252566
9.68243
-0.000252615
9.59765
-0.000252666
9.51308
-0.000252728
9.42872
-0.000252773
9.34457
-0.000252837
9.26064
-0.000252889
9.17694
-0.000252946
9.09347
-0.000253011
9.01024
-0.000253066
8.92724
-0.000253127
8.8445
-0.000253199
8.762
-0.000253258
8.67976
-0.000253323
8.59778
-0.000253396
8.51607
-0.00025348
8.43463
-0.000253566
8.35347
-0.000253651
8.27259
-0.000253748
8.192
-0.000253815
8.1117
-0.000253902
8.03171
-0.000253977
7.95203
-0.000254082
7.87268
-0.000254218
7.79365
-0.000254376
7.71495
-0.000254549
7.63658
-0.000254729
7.55855
-0.000254893
7.48085
-0.000255039
7.40351
-0.00025518
7.32652
-0.00025532
7.24991
-0.000255457
7.17366
-0.000255597
7.0978
-0.000255737
7.02233
-0.000255872
6.94726
-0.000256004
6.8726
-0.000256147
6.79834
-0.000256306
6.72451
-0.000256466
6.65109
-0.000256599
6.5781
-0.000256671
6.50553
-0.000256638
6.43339
-0.00025646
6.36168
-0.000256109
6.29041
-0.000255564
6.2196
-0.000254802
6.14923
-0.000253793
6.07933
-0.000252496
6.00988
-0.000250855
5.9409
-0.000248803
5.87239
-0.000246265
5.80434
-0.000243161
5.73675
-0.00023942
5.66963
-0.000234977
5.60298
-0.000229781
5.53679
-0.000223798
5.47106
-0.000217008
5.40581
-0.000209414
5.34102
-0.000201037
5.27671
-0.000191919
5.21286
-0.000182121
5.14948
-0.000171722
5.08657
-0.000160819
5.02413
-0.000149524
4.96216
-0.000137958
4.90067
-0.000126252
4.83964
-0.00011454
4.77909
-0.000102953
4.71902
-9.16198e-05
4.65941
-8.06592e-05
4.60029
-7.01764e-05
4.54164
-6.02609e-05
4.48347
-5.09836e-05
4.42578
-4.23956e-05
4.36858
-3.45304e-05
4.31186
-2.74041e-05
4.25563
-2.1014e-05
4.19989
-1.53426e-05
4.14464
-1.03598e-05
4.08988
-6.02608e-06
4.03562
-2.27081e-06
3.98187
9.67633e-07
3.92861
3.61627e-06
3.87586
5.87166e-06
3.82362
7.74305e-06
3.77188
9.27999e-06
3.72066
1.05323e-05
3.66995
1.15451e-05
3.61975
1.2357e-05
3.57007
1.30033e-05
3.52091
1.35147e-05
3.47227
1.39183e-05
3.42415
1.42366e-05
3.37654
1.44878e-05
3.32946
1.4686e-05
3.28289
1.4844e-05
3.23684
1.49714e-05
3.1913
1.50767e-05
3.14629
1.5165e-05
3.10178
1.52398e-05
3.05779
1.53034e-05
3.01431
1.53605e-05
2.97134
1.54125e-05
2.92888
1.54632e-05
2.88692
1.55117e-05
2.84546
1.55588e-05
2.80451
1.5604e-05
2.76405
1.56481e-05
2.72409
1.56916e-05
2.68463
1.57359e-05
2.64567
1.57807e-05
2.60719
1.58265e-05
2.56921
1.58704e-05
2.53172
1.5914e-05
2.49472
1.59552e-05
2.45821
1.59962e-05
2.42219
1.60371e-05
2.38666
1.60784e-05
2.35161
1.61191e-05
2.31705
1.61615e-05
2.28298
1.62023e-05
2.24939
1.62451e-05
2.21629
1.62859e-05
2.18367
1.63262e-05
2.15154
1.63636e-05
2.11989
1.64014e-05
2.08873
1.64382e-05
2.05805
1.64767e-05
2.02785
1.65135e-05
1.99814
1.65542e-05
1.9689
1.65894e-05
1.94015
1.66293e-05
1.91187
1.66613e-05
1.88407
1.67044e-05
1.85675
1.67372e-05
1.8299
1.67795e-05
1.80353
1.68115e-05
1.77762
1.68573e-05
1.75217
1.68858e-05
1.72719
1.69308e-05
1.70267
1.69522e-05
1.6786
1.7006e-05
1.65498
1.70209e-05
1.6318
1.70856e-05
1.60906
1.70814e-05
1.58675
1.71668e-05
1.56487
1.71306e-05
1.54342
1.72622e-05
1.52238
1.71519e-05
1.50175
1.7403e-05
1.48154
1.70974e-05
1.46174
1.76612e-05
1.44235
1.68625e-05
1.42336
1.81012e-05
1.40478
1.58792e-05
1.3866
1.92956e-05
1.36883
1.43645e-05
1.35146
2.11835e-05
1.33449
1.32222e-05
1.31792
2.22393e-05
1.30174
1.2874e-05
1.28595
2.256e-05
1.27053
1.25849e-05
1.25548
2.32364e-05
1.24078
1.18192e-05
1.22642
2.54668e-05
1.21237
1.09032e-05
1.19864
2.45384e-05
1.18519
1.12087e-05
1.17187
-3.94788e-05
1.15707
-0.000335202
1.12676
0.0179207
0.025986
1.06073
6.05242
6.00879
5.96513
5.92144
5.87771
5.83394
5.79015
5.74633
5.70251
5.65866
5.6148
5.57095
5.52712
5.48332
5.43955
5.39581
5.35211
5.30848
5.2649
5.22139
5.17796
5.13459
5.0913
5.04809
5.00497
4.96193
4.91899
4.87613
4.83338
4.79072
4.74816
4.70571
4.66337
4.62113
4.57901
4.537
4.49512
4.45335
4.41171
4.37019
4.32879
4.28753
4.24641
4.20542
4.16457
4.12385
4.08329
4.04287
4.0026
3.96249
3.92254
3.88276
3.84314
3.80368
3.76439
3.72527
3.68632
3.64756
3.60898
3.57058
3.53238
3.49437
3.45656
3.41895
3.38156
3.34436
3.30738
3.27061
3.23405
3.1977
3.16158
3.12567
3.08999
3.05454
3.01932
2.98433
2.94957
2.91505
2.88076
2.84671
2.8129
2.77933
2.74599
2.7129
2.68005
2.64744
2.61508
2.58296
2.55108
2.51946
2.48808
2.45695
2.42606
2.39543
2.36504
2.3349
2.30501
2.27538
2.24599
2.21685
2.18796
2.15932
2.13093
2.10279
2.0749
2.04727
2.01988
1.99275
1.96587
1.93925
1.91288
1.88677
1.86091
1.83531
1.80997
1.78488
1.76006
1.73549
1.71119
1.68714
1.66335
1.63982
1.61656
1.59355
1.5708
1.54831
1.52607
1.50409
1.48237
1.4609
1.43968
1.41872
1.39801
1.37755
1.35734
1.33738
1.31766
1.2982
1.27898
1.26
1.24127
1.22279
1.20455
1.18656
1.16881
1.1513
1.13404
1.11702
1.10025
1.08371
1.06742
1.05137
1.03557
1.02
1.00468
0.989601
0.974761
0.960162
0.945803
0.931683
0.917802
0.904158
0.890752
0.877581
0.864645
0.851942
0.839469
0.827226
0.815209
0.803416
0.791845
0.780494
0.769359
0.758437
0.747728
0.737227
0.726935
0.716847
0.706965
0.697286
0.687812
0.678538
0.66947
0.660601
0.651937
0.643471
0.635206
0.627135
0.619259
0.611567
0.604061
0.596727
0.589567
0.582562
0.575718
0.569018
0.562409
0.555658
0.567317
0.587189
0.475966
0.00807395
0.48476
-0.0102989
0.49951
-0.0162476
0.515853
-0.0178319
0.515235
-0.000863117
0.496456
0.0173077
0.472986
0.0220078
0.499512
-0.0279761
0.615352
-0.117278
0.787928
-0.174008
0.928459
-0.141963
0.939604
-0.0125618
0.855979
0.0822064
0.720698
0.133861
0.550101
0.169197
0.407173
0.141546
0.391106
0.0147062
0.509402
-0.119644
0.654584
-0.146517
-0.249991
0.903254
1.07709
0.00507729
1.10082
-0.0369596
1.14017
-0.0585214
1.18587
-0.0664319
1.19698
-0.0148658
1.17076
0.0406592
1.10767
0.0822476
1.10662
-0.0297519
1.24563
-0.259088
1.51319
-0.444364
1.83002
-0.461598
1.97513
-0.160464
1.94811
0.106473
1.78487
0.294354
1.47716
0.474177
1.0958
0.520213
0.900975
0.206872
0.96679
-0.188093
1.09784
-0.280173
-0.498444
1.3437
13.7377
-0.000221665
13.6738
-0.000353363
13.5721
0.0159719
13.4446
0.0340382
13.354
0.0488801
13.3082
0.0596376
13.297
0.066899
13.1686
0.0722158
12.8068
0.0764115
12.2594
0.0769349
11.7004
0.0714325
11.4507
0.0634624
11.4709
0.0605571
11.6769
0.0628736
12.0582
0.0675378
12.4813
0.071957
12.5853
0.0777029
12.282
0.0903097
11.8716
0.105361
0.107734
11.2408
1.04474
0.0141426
1.0397
0.0030775
1.04619
0.00787963
1.06644
0.0121847
1.09847
0.0152675
1.13837
0.0181476
1.18292
0.0207828
1.23034
0.0232256
1.27977
0.0254318
1.32886
0.0263004
1.37387
0.024876
1.41343
0.0223731
1.45152
0.0209466
1.49168
0.0212018
1.5351
0.0226231
1.58065
0.0249105
1.62812
0.0287436
1.682
0.0349518
1.74675
0.0391454
0.018861
1.83416
0.600558
0.602866
0.60998
0.621403
0.635913
0.653307
0.673341
0.695821
0.720512
0.746075
0.770218
0.791862
0.812084
0.832566
0.854473
0.878671
0.906708
0.940956
0.979402
0.997567
1.64164
-0.742515
1.59633
0.0412625
1.39619
0.196287
1.53054
-0.137994
1.98322
-0.456347
2.09335
-0.11382
1.97157
0.118348
2.01531
-0.0467363
2.39056
-0.378601
2.37367
0.0135658
2.16436
0.20615
2.16092
0.000428671
2.72357
-0.565822
2.78585
-0.0655966
2.55597
0.226987
2.11087
0.442363
2.00024
0.108172
2.8509
-0.853251
3.23341
-0.386
3.01523
0.21533
2.52849
0.484413
1.86284
0.663372
1.98846
-0.126982
3.1051
-1.11858
3.58377
-0.482094
3.34192
0.239322
2.82926
0.51064
2.29576
0.531491
2.79532
-0.50079
3.54186
-0.749214
3.56507
-0.025981
3.40337
0.159849
3.24832
0.153323
3.14024
0.106349
3.07714
0.061371
3.03613
0.0393267
2.99356
0.0409225
2.90801
0.0839641
2.67858
0.227896
2.21956
0.45748
1.86173
0.356502
2.70981
-0.848806
3.53434
-0.827357
3.51261
0.0193161
3.33483
0.176225
3.17446
0.158916
3.07047
0.102532
3.01491
0.0540882
2.98515
0.0283174
2.96802
0.0157013
2.95698
0.00961159
2.94891
0.00664629
2.94231
0.005184
2.93645
0.00444217
2.93098
0.00405618
2.92573
0.00384946
2.92063
0.00372154
2.91568
0.00360601
2.91095
0.00342025
2.90645
0.00323697
2.90211
0.0031141
2.89789
0.00304853
2.89374
0.00302566
2.88962
0.00303072
2.88553
0.00305295
2.88144
0.00308527
2.87735
0.00312201
2.87326
0.0031585
2.86915
0.00319101
2.86504
0.00321693
2.86093
0.00323231
2.85682
0.00323474
2.85273
0.0032234
2.84867
0.00320091
2.84465
0.00316104
2.84069
0.0031022
2.8368
0.00303971
2.83296
0.00297668
2.82917
0.00292584
2.82541
0.00290601
2.8216
0.00294359
2.81766
0.00307696
2.81343
0.00336327
2.80866
0.00388987
2.80295
0.00482337
2.7956
0.00645628
2.78524
0.00945084
2.76901
0.0153195
2.74063
0.0274541
2.68691
0.0527829
2.58613
0.099853
2.41849
0.16671
2.19895
0.218592
2.1089
0.0891582
2.47857
-0.370468
2.91357
-0.436169
3.05941
-0.147113
2.98165
0.0766585
2.86742
0.113317
2.75638
0.110107
2.66472
0.0907449
2.59034
0.0734865
2.52832
0.061137
2.47549
0.0519485
2.42938
0.0452486
2.38712
0.0414401
2.3452
0.0411119
2.30011
0.0442921
2.24875
0.050553
2.18837
0.0595933
2.11668
0.0709283
2.03135
0.0846018
1.92947
0.101141
1.80785
0.120807
1.66406
0.142899
1.4979
0.165388
1.31418
0.183009
1.12411
0.189473
0.942942
0.180554
0.785245
0.157022
0.659099
0.125439
0.564594
0.0937869
0.496613
0.0672596
0.448566
0.04733
0.414696
0.033155
0.3907
0.0232809
0.37357
0.0164156
0.361241
0.0116147
0.352292
0.00823367
0.345739
0.00583857
0.340888
0.00413535
0.33725
0.00292188
0.334475
0.0020572
0.332315
0.00144185
0.330591
0.001005
0.329175
0.000695895
0.327977
0.000478053
0.32693
0.000325226
0.32599
0.000218538
0.325123
0.000144451
0.324309
9.32849e-05
0.323531
5.81522e-05
0.32278
3.41672e-05
0.322048
1.7891e-05
0.321331
6.8629e-06
0.320627
-5.99639e-07
0.319934
-5.54974e-06
0.319252
-8.78196e-06
0.31858
-1.08702e-05
0.317919
-1.22314e-05
0.317268
-1.31239e-05
0.316628
-1.36927e-05
0.315999
-1.40667e-05
0.315381
-1.42965e-05
0.314774
-1.44514e-05
0.314177
-1.45424e-05
0.313591
-1.46131e-05
0.313014
-1.46545e-05
0.312446
-1.46883e-05
0.311887
-1.47033e-05
0.311335
-1.4715e-05
0.310791
-1.47146e-05
0.310254
-1.47308e-05
0.309724
-1.47293e-05
0.309201
-1.47571e-05
0.308683
-1.47478e-05
0.308172
-1.47729e-05
0.307667
-1.4743e-05
0.307169
-1.48009e-05
0.306676
-1.47221e-05
0.306189
-1.48284e-05
0.305707
-1.47033e-05
0.30523
-1.48767e-05
0.304756
-1.46651e-05
0.304286
-1.49507e-05
0.303817
-1.45979e-05
0.30335
-1.50552e-05
0.302883
-1.44852e-05
0.302417
-1.5183e-05
0.30195
-1.43369e-05
0.301483
-1.53078e-05
0.301016
-1.42153e-05
0.30055
-1.53732e-05
0.300085
-1.42209e-05
0.299622
-1.5332e-05
0.299159
-1.42578e-05
0.298698
-1.53877e-05
0.298236
-1.40624e-05
0.297774
-1.56601e-05
0.297309
-1.37942e-05
0.296841
-1.56311e-05
0.296367
-1.3837e-05
0.295887
-1.43609e-05
0.295398
-1.02947e-05
0.294887
2.95512e-06
0.294309
6.5626e-05
0.293481
0.000309232
0.292062
0.000894805
0.299157
-0.00762098
-0.0171205
0.315747
2.5857
-1.99272
2.56541
0.053492
1.99199
0.761931
2.02265
-0.176066
2.88828
-1.32917
3.1761
-0.408808
2.76862
0.518944
2.62741
0.0882427
3.40845
-1.1662
3.48525
-0.0696575
2.86818
0.816957
2.59904
0.263316
3.76793
-1.74088
4.14585
-0.449748
3.6141
0.753057
2.42503
1.62594
1.9578
0.570119
3.64113
-2.54168
4.77007
-1.52152
4.47609
0.504077
3.2675
1.68835
1.66186
2.26416
1.71906
-0.187152
3.94449
-3.34785
5.34004
-1.88409
5.12618
0.448729
4.01132
1.62142
2.65039
1.88811
3.37391
-1.22703
5.14734
-2.52758
5.70037
-0.583712
5.66151
0.195187
5.51755
0.293913
5.4058
0.214641
5.34161
0.122147
5.29489
0.0826661
5.22839
0.104141
5.05483
0.254362
4.50785
0.771818
3.25086
1.71139
2.02849
1.57577
3.30437
-2.12625
5.25798
-2.78624
5.72263
-0.449381
5.62164
0.274272
5.44805
0.329679
5.32727
0.220396
5.26466
0.113793
5.23135
0.0587403
5.21142
0.0327755
5.19749
0.0206959
5.18624
0.0150532
5.17616
0.0124273
5.16656
0.0111979
5.15716
0.0106317
5.14783
0.0103781
5.13857
0.0102309
5.12944
0.01004
5.12065
0.00958607
5.11224
0.0091101
5.10412
0.0087941
5.0962
0.00862459
5.08841
0.00855826
5.08072
0.00855487
5.07311
0.00858806
5.06555
0.0086429
5.05803
0.00870846
5.05054
0.00877699
5.04306
0.0088434
5.03558
0.00890659
5.0281
0.00896023
5.02059
0.00900311
5.01305
0.00903857
5.00544
0.0090826
4.99777
0.00912024
4.99
0.00915269
4.98208
0.00923872
4.97395
0.00939565
4.96547
0.0096765
4.9565
0.0101542
4.94678
0.0109319
4.93596
0.0121569
4.92353
0.0140455
4.90873
0.0169279
4.89037
0.0214162
4.86646
0.0285764
4.83332
0.0407926
4.78326
0.0635575
4.69921
0.109642
4.54289
0.207224
4.24086
0.399978
3.69889
0.706753
2.92697
0.988625
2.40238
0.611946
2.93956
-0.909276
3.91475
-1.41369
4.54147
-0.776379
4.68851
-0.0725118
4.63442
0.165561
4.51926
0.22341
4.39865
0.209502
4.28303
0.187287
4.17337
0.169041
4.07025
0.153348
3.97288
0.140924
3.87776
0.134828
3.77919
0.13802
3.67106
0.150834
3.54823
0.171845
3.40698
0.199323
3.24563
0.23073
3.06404
0.264454
2.86229
0.301217
2.64068
0.340876
2.40101
0.381108
2.14786
0.417189
1.89105
0.438604
1.64609
0.433164
1.42784
0.397451
1.24628
0.337165
1.10383
0.26646
0.996586
0.199586
0.917713
0.144697
0.860236
0.103376
0.818362
0.0735997
0.787727
0.0524877
0.765177
0.0375371
0.748464
0.0268999
0.735977
0.0192908
0.726561
0.0138251
0.719375
0.0098894
0.713811
0.00705362
0.709422
0.00501214
0.705882
0.00354561
0.702953
0.00249542
0.700463
0.00174632
0.698285
0.00121442
0.696329
0.000838622
0.694529
0.000574543
0.69284
0.000390022
0.69123
0.000261844
0.689675
0.000173347
0.688162
0.000112617
0.686681
7.12087e-05
0.685224
4.31144e-05
0.68379
2.41949e-05
0.682377
1.15903e-05
0.680983
3.16205e-06
0.679609
-2.34218e-06
0.678255
-5.96621e-06
0.676923
-8.35482e-06
0.675612
-9.88241e-06
0.674323
-1.08908e-05
0.673055
-1.15134e-05
0.671809
-1.19347e-05
0.670584
-1.2176e-05
0.66938
-1.23576e-05
0.668194
-1.24535e-05
0.667027
-1.25317e-05
0.665877
-1.25651e-05
0.664743
-1.25982e-05
0.663623
-1.25959e-05
0.662518
-1.26343e-05
0.661426
-1.26107e-05
0.660347
-1.26687e-05
0.659281
-1.2625e-05
0.658227
-1.26862e-05
0.657185
-1.26054e-05
0.656156
-1.27602e-05
0.655139
-1.25346e-05
0.654133
-1.28278e-05
0.653138
-1.24543e-05
0.652152
-1.29557e-05
0.651173
-1.23229e-05
0.650201
-1.31482e-05
0.649232
-1.21043e-05
0.648266
-1.34242e-05
0.6473
-1.17922e-05
0.646335
-1.37567e-05
0.64537
-1.14448e-05
0.644405
-1.40449e-05
0.64344
-1.12123e-05
0.642476
-1.415e-05
0.641515
-1.12578e-05
0.640556
-1.40319e-05
0.639599
-1.12642e-05
0.638645
-1.43001e-05
0.63769
-1.06023e-05
0.636734
-1.51775e-05
0.635771
-9.8186e-06
0.634803
-1.51186e-05
0.633824
-9.94849e-06
0.632833
-1.1495e-05
0.631823
4.09348e-07
0.63077
4.16077e-05
0.629572
0.000238405
0.627813
0.00103003
0.624173
0.00348766
0.609197
0.00630113
0.00056773
0.590446
8.77101
0.377215
8.42037
0.308008
8.7247
0.364157
8.02913
0.428396
6.29718
0.314236
5.60227
0.200243
5.79809
0.239085
5.49421
0.309275
4.04088
0.20717
3.763
0.130352
4.30484
0.199479
4.20257
0.291188
2.23308
0.155918
1.66363
0.0496124
2.27704
0.0710585
3.64624
0.190681
3.81085
0.339027
1.03894
0.164201
-0.507211
-0.0377581
-0.0464783
-0.0203749
1.52609
0.0591089
3.5029
0.231224
2.88705
0.373439
-0.659741
0.143874
-2.43827
-0.155007
-1.95965
-0.0805724
-0.420391
0.0313556
1.19056
0.227033
-0.321092
0.227746
-2.93041
0.043144
-3.48476
-0.0676527
-3.32569
-0.00386195
-3.08988
0.0177233
-2.94205
0.0261605
-2.88566
0.0251893
-2.86027
0.017207
-2.80099
0.00567424
-2.58503
0.000320893
-1.85615
0.0055702
-0.221967
0.0406055
1.05945
0.259257
-1.30286
0.197803
-4.05201
-0.0702447
-4.39077
-0.142669
-4.12696
-0.0227182
-3.84249
0.0115312
-3.67679
0.0205251
-3.61923
0.0218406
-3.61463
0.0197934
-3.63294
0.0168668
-3.6603
0.0139519
-3.6906
0.0112862
-3.72135
0.00910946
-3.75096
0.00676108
-3.77921
0.00496258
-3.80576
0.00333851
-3.83042
0.00181754
-3.85195
-0.000750622
-3.86937
-0.00440713
-3.88454
-0.00610086
-3.898
-0.00702493
-3.90993
-0.00758691
-3.92043
-0.00796061
-3.92961
-0.00820867
-3.93761
-0.00835087
-3.94459
-0.00839424
-3.95075
-0.00834848
-3.95626
-0.00822455
-3.96133
-0.00803898
-3.9661
-0.00781485
-3.9707
-0.00758154
-3.97524
-0.00737047
-3.97973
-0.00721678
-3.98417
-0.00714658
-3.98838
-0.00730379
-3.99228
-0.00755407
-3.99566
-0.00799503
-3.99823
-0.00866338
-3.99966
-0.00955197
-3.99954
-0.0106891
-3.9973
-0.0121227
-3.99214
-0.013937
-3.98288
-0.0162905
-3.96776
-0.0194624
-3.94391
-0.0238988
-3.90667
-0.0303268
-3.8485
-0.0392653
-3.75716
-0.0499103
-3.61276
-0.0571178
-3.3783
-0.049801
-2.96987
-0.031136
-2.28553
-0.000304658
-1.3625
0.0432935
-0.89984
0.126039
-1.90989
0.0759331
-3.19899
-0.148593
-3.7103
-0.287962
-3.52823
-0.277194
-3.12764
-0.257439
-2.65655
-0.26984
-2.15579
-0.313151
-1.61673
-0.37333
-1.03733
-0.43151
-0.436496
-0.46822
0.152965
-0.468827
0.698362
-0.430428
1.18369
-0.366749