/*--------------------------------*- C++ -*----------------------------------*\
| =========                 |                                                 |
| \\      /  F ield         | OpenFOAM: The Open Source CFD Toolbox           |
|  \\    /   O peration     | Version:  3.0.x                                 |
|   \\  /    A nd           | Web:      www.OpenFOAM.org                      |
|    \\/     M anipulation  |                                                 |
\*---------------------------------------------------------------------------*/
FoamFile
{
    version     2.0;
    format      ascii;
    class       volScalarField;
    location    "0.57";
    object      rho;
}
// * * * * * * * * * * * * * * * * * * * * * * * * * * * * * * * * * * * * * //

dimensions      [1 -3 0 0 0 0 0];

internalField   nonuniform List<scalar> 
6900
(
53.5374
53.5412
53.5469
53.5524
53.5575
53.5622
53.5666
53.5707
53.5746
53.5782
53.5814
53.5843
53.587
53.5897
53.5923
53.5948
53.5971
53.5995
53.602
53.6045
53.607
53.6095
53.6122
53.6148
53.6175
53.6203
53.6231
53.626
53.6289
53.6318
53.6348
53.6378
53.6409
53.644
53.6472
53.6504
53.6536
53.6569
53.6602
53.6636
53.6669
53.6703
53.6737
53.6772
53.6806
53.6841
53.6876
53.6911
53.6946
53.6982
53.7019
53.7056
53.7093
53.7131
53.7168
53.7205
53.7242
53.7279
53.7315
53.7352
53.7389
53.7426
53.7464
53.7502
53.754
53.7579
53.7619
53.7658
53.7696
53.7734
53.7772
53.7809
53.7847
53.7884
53.7921
53.7959
53.7997
53.8036
53.8074
53.8112
53.815
53.8188
53.8226
53.8263
53.83
53.8337
53.8373
53.8409
53.8446
53.8482
53.8517
53.8553
53.8589
53.8624
53.8659
53.8694
53.8729
53.8764
53.8798
53.8832
53.8866
53.89
53.8934
53.8968
53.9001
53.9034
53.9067
53.91
53.9132
53.9165
53.9197
53.9229
53.926
53.9292
53.9323
53.9354
53.9385
53.9416
53.9447
53.9477
53.9507
53.9537
53.9566
53.9596
53.9625
53.9654
53.9683
53.9711
53.9739
53.9767
53.9795
53.9822
53.9849
53.9876
53.9902
53.9928
53.9954
53.998
54.0005
54.003
54.0055
54.0079
54.0103
54.0127
54.015
54.0173
54.0196
54.0219
54.0241
54.0263
54.0285
54.0306
54.0327
54.0348
54.0368
54.0388
54.0408
54.0428
54.0447
54.0466
54.0485
54.0503
54.0521
54.0539
54.0557
54.0574
54.0591
54.0607
54.0624
54.064
54.0655
54.0671
54.0686
54.0701
54.0715
54.073
54.0744
54.0757
54.0771
54.0784
54.0797
54.0809
54.0822
54.0833
54.0846
54.0855
54.0869
54.0877
54.089
54.0897
54.0911
54.0917
54.093
54.0936
54.0949
54.0956
54.0964
54.0977
54.0982
54.0991
53.5377
53.5414
53.5472
53.5526
53.5577
53.5625
53.5669
53.571
53.5749
53.5785
53.5817
53.5845
53.5873
53.59
53.5926
53.5951
53.5974
53.5998
53.6022
53.6047
53.6072
53.6098
53.6124
53.6151
53.6178
53.6206
53.6234
53.6262
53.6291
53.6321
53.6351
53.6381
53.6412
53.6443
53.6474
53.6506
53.6539
53.6571
53.6605
53.6638
53.6672
53.6705
53.674
53.6774
53.6809
53.6844
53.6878
53.6913
53.6948
53.6984
53.7021
53.7058
53.7095
53.7133
53.717
53.7207
53.7244
53.7281
53.7317
53.7354
53.7391
53.7428
53.7466
53.7504
53.7542
53.7581
53.762
53.7659
53.7698
53.7736
53.7774
53.7811
53.7848
53.7886
53.7923
53.7961
53.7999
53.8037
53.8076
53.8114
53.8152
53.819
53.8227
53.8265
53.8302
53.8338
53.8375
53.8411
53.8447
53.8483
53.8519
53.8555
53.859
53.8626
53.8661
53.8696
53.8731
53.8765
53.88
53.8834
53.8868
53.8902
53.8936
53.8969
53.9003
53.9036
53.9069
53.9101
53.9134
53.9166
53.9198
53.923
53.9262
53.9294
53.9325
53.9356
53.9387
53.9418
53.9448
53.9479
53.9509
53.9538
53.9568
53.9598
53.9627
53.9656
53.9684
53.9713
53.9741
53.9769
53.9796
53.9824
53.9851
53.9878
53.9904
53.993
53.9956
53.9982
54.0007
54.0032
54.0056
54.0081
54.0105
54.0129
54.0152
54.0175
54.0198
54.022
54.0243
54.0265
54.0286
54.0308
54.0329
54.0349
54.037
54.039
54.041
54.0429
54.0449
54.0468
54.0486
54.0505
54.0523
54.0541
54.0558
54.0576
54.0592
54.0609
54.0625
54.0641
54.0657
54.0672
54.0688
54.0702
54.0717
54.0731
54.0745
54.0759
54.0772
54.0785
54.0799
54.081
54.0824
54.0834
54.0848
54.0857
54.0871
54.0878
54.0892
54.0899
54.0912
54.0918
54.0932
54.0937
54.095
54.0956
54.0969
54.0974
54.0986
54.0993
53.5377
53.5414
53.5472
53.5526
53.5577
53.5625
53.5669
53.571
53.5749
53.5785
53.5817
53.5845
53.5873
53.59
53.5926
53.5951
53.5974
53.5998
53.6022
53.6047
53.6072
53.6098
53.6124
53.6151
53.6178
53.6206
53.6234
53.6262
53.6291
53.6321
53.635
53.6381
53.6412
53.6443
53.6474
53.6506
53.6539
53.6571
53.6604
53.6638
53.6671
53.6705
53.674
53.6774
53.6809
53.6844
53.6878
53.6913
53.6948
53.6984
53.7021
53.7058
53.7095
53.7133
53.717
53.7207
53.7244
53.7281
53.7317
53.7354
53.7391
53.7428
53.7466
53.7504
53.7542
53.7581
53.762
53.7659
53.7698
53.7736
53.7774
53.7811
53.7848
53.7886
53.7923
53.7961
53.7999
53.8037
53.8076
53.8114
53.8152
53.819
53.8227
53.8265
53.8302
53.8338
53.8375
53.8411
53.8447
53.8483
53.8519
53.8555
53.859
53.8626
53.8661
53.8696
53.8731
53.8765
53.88
53.8834
53.8868
53.8902
53.8936
53.8969
53.9003
53.9036
53.9069
53.9101
53.9134
53.9166
53.9198
53.923
53.9262
53.9294
53.9325
53.9356
53.9387
53.9418
53.9448
53.9479
53.9509
53.9538
53.9568
53.9598
53.9627
53.9656
53.9684
53.9713
53.9741
53.9769
53.9796
53.9824
53.9851
53.9878
53.9904
53.993
53.9956
53.9982
54.0007
54.0032
54.0056
54.0081
54.0105
54.0129
54.0152
54.0175
54.0198
54.022
54.0243
54.0265
54.0286
54.0308
54.0329
54.0349
54.037
54.039
54.041
54.0429
54.0449
54.0468
54.0486
54.0505
54.0523
54.0541
54.0558
54.0576
54.0592
54.0609
54.0625
54.0641
54.0657
54.0672
54.0688
54.0702
54.0717
54.0731
54.0745
54.0759
54.0772
54.0785
54.0798
54.0811
54.0823
54.0835
54.0847
54.0858
54.087
54.088
54.089
54.0901
54.0911
54.092
54.0931
54.0938
54.0949
54.0958
54.0966
54.0976
54.0986
54.0994
53.5377
53.5414
53.5472
53.5526
53.5577
53.5625
53.5669
53.571
53.5749
53.5785
53.5817
53.5845
53.5873
53.59
53.5926
53.5951
53.5974
53.5998
53.6022
53.6047
53.6072
53.6098
53.6124
53.6151
53.6178
53.6206
53.6234
53.6262
53.6291
53.6321
53.6351
53.6381
53.6412
53.6443
53.6474
53.6506
53.6539
53.6571
53.6605
53.6638
53.6672
53.6705
53.674
53.6774
53.6809
53.6844
53.6878
53.6913
53.6948
53.6984
53.7021
53.7058
53.7095
53.7133
53.717
53.7207
53.7244
53.7281
53.7317
53.7354
53.7391
53.7428
53.7466
53.7504
53.7542
53.7581
53.762
53.7659
53.7698
53.7736
53.7774
53.7811
53.7848
53.7886
53.7923
53.7961
53.7999
53.8037
53.8076
53.8114
53.8152
53.819
53.8227
53.8265
53.8302
53.8338
53.8375
53.8411
53.8447
53.8483
53.8519
53.8555
53.859
53.8626
53.8661
53.8696
53.8731
53.8765
53.88
53.8834
53.8868
53.8902
53.8936
53.8969
53.9003
53.9036
53.9069
53.9101
53.9134
53.9166
53.9198
53.923
53.9262
53.9294
53.9325
53.9356
53.9387
53.9418
53.9448
53.9479
53.9509
53.9538
53.9568
53.9598
53.9627
53.9656
53.9684
53.9713
53.9741
53.9769
53.9796
53.9824
53.9851
53.9878
53.9904
53.993
53.9956
53.9982
54.0007
54.0032
54.0056
54.0081
54.0105
54.0129
54.0152
54.0175
54.0198
54.022
54.0243
54.0265
54.0286
54.0308
54.0329
54.0349
54.037
54.039
54.041
54.0429
54.0449
54.0468
54.0486
54.0505
54.0523
54.0541
54.0558
54.0576
54.0592
54.0609
54.0625
54.0641
54.0657
54.0673
54.0688
54.0702
54.0717
54.0731
54.0745
54.0759
54.0772
54.0786
54.0798
54.0812
54.0822
54.0836
54.0846
54.0859
54.0868
54.0881
54.0889
54.0902
54.0908
54.0922
54.0928
54.0941
54.0947
54.0959
54.0965
54.0977
54.0987
54.0989
53.5374
53.5412
53.5469
53.5524
53.5575
53.5622
53.5666
53.5707
53.5746
53.5782
53.5814
53.5843
53.587
53.5897
53.5923
53.5948
53.5971
53.5995
53.602
53.6045
53.607
53.6095
53.6122
53.6148
53.6175
53.6203
53.6231
53.626
53.6289
53.6318
53.6348
53.6378
53.6409
53.644
53.6472
53.6504
53.6536
53.6569
53.6602
53.6636
53.6669
53.6703
53.6737
53.6772
53.6806
53.6841
53.6876
53.6911
53.6946
53.6982
53.7019
53.7056
53.7093
53.7131
53.7168
53.7205
53.7242
53.7279
53.7315
53.7352
53.7389
53.7426
53.7464
53.7502
53.754
53.7579
53.7619
53.7658
53.7696
53.7734
53.7772
53.7809
53.7847
53.7884
53.7921
53.7959
53.7997
53.8036
53.8074
53.8112
53.815
53.8188
53.8226
53.8263
53.83
53.8337
53.8373
53.8409
53.8446
53.8482
53.8517
53.8553
53.8589
53.8624
53.8659
53.8694
53.8729
53.8764
53.8798
53.8832
53.8866
53.89
53.8934
53.8968
53.9001
53.9034
53.9067
53.91
53.9132
53.9165
53.9197
53.9229
53.926
53.9292
53.9323
53.9354
53.9385
53.9416
53.9447
53.9477
53.9507
53.9537
53.9566
53.9596
53.9625
53.9654
53.9683
53.9711
53.9739
53.9767
53.9795
53.9822
53.9849
53.9876
53.9902
53.9928
53.9954
53.998
54.0005
54.003
54.0055
54.0079
54.0103
54.0127
54.015
54.0173
54.0196
54.0219
54.0241
54.0263
54.0285
54.0306
54.0327
54.0348
54.0368
54.0388
54.0408
54.0428
54.0447
54.0466
54.0485
54.0503
54.0521
54.0539
54.0557
54.0574
54.0591
54.0607
54.0624
54.064
54.0655
54.0671
54.0686
54.0701
54.0715
54.073
54.0744
54.0757
54.0771
54.0784
54.0796
54.081
54.0821
54.0835
54.0844
54.0858
54.0866
54.088
54.0887
54.0901
54.0907
54.092
54.0926
54.0939
54.0945
54.0958
54.0964
54.0975
54.0988
54.0987
54.0998
54.1
54.1003
54.1004
54.1005
54.1006
54.1007
54.1009
54.1014
54.102
54.1021
54.1016
54.101
54.1001
54.099
54.0988
54.0994
54.1006
54.1014
54.1027
54.0998
54.1
54.1001
54.1003
54.1004
54.1004
54.1004
54.1008
54.1015
54.102
54.102
54.1013
54.1008
54.1006
54.0998
54.0996
54.1
54.1009
54.1014
54.1018
54.0999
54.1
54.1001
54.1002
54.1003
54.1004
54.1003
54.1003
54.1003
54.1002
54.1001
54.1001
54.0999
54.0995
54.0992
54.0991
54.0986
54.098
54.0972
54.0968
54.0996
54.0998
54.1
54.1001
54.1002
54.1003
54.1004
54.1005
54.1006
54.1007
54.1008
54.1009
54.1009
54.1009
54.101
54.1011
54.1011
54.101
54.1008
54.1004
54.0989
54.099
54.099
54.0991
54.0992
54.0993
54.0994
54.0995
54.0996
54.0997
54.0998
54.1
54.1001
54.1002
54.1003
54.1004
54.1005
54.1006
54.1006
54.1007
54.1041
54.0995
54.0989
54.101
54.1033
54.0997
54.0982
54.1006
54.1061
54.1004
54.0989
54.1018
54.1122
54.104
54.0998
54.1009
54.1038
54.1212
54.1137
54.1014
54.1009
54.1041
54.1123
54.1308
54.1197
54.1025
54.1014
54.1064
54.1235
54.1311
54.1117
54.1027
54.1028
54.1033
54.1036
54.1039
54.104
54.1044
54.105
54.1059
54.1104
54.1347
54.1379
54.1151
54.1069
54.107
54.1073
54.1074
54.1074
54.1076
54.1078
54.108
54.1082
54.1084
54.1086
54.1088
54.109
54.1092
54.1094
54.1096
54.1098
54.11
54.1103
54.1105
54.1108
54.1111
54.1114
54.1117
54.1121
54.1124
54.1128
54.1132
54.1135
54.1139
54.1142
54.1146
54.1149
54.1153
54.1156
54.1159
54.1162
54.1165
54.1168
54.1171
54.1174
54.1176
54.1178
54.1181
54.1184
54.1188
54.1194
54.1204
54.1214
54.1234
54.1302
54.1315
54.126
54.1217
54.1218
54.1228
54.1236
54.1245
54.1254
54.1259
54.1264
54.1271
54.128
54.1287
54.1288
54.1285
54.129
54.1299
54.1307
54.1302
54.1259
54.1234
54.1238
54.127
54.1336
54.1377
54.1392
54.1393
54.1389
54.1387
54.1386
54.1387
54.1388
54.1389
54.139
54.1392
54.1393
54.1395
54.1397
54.1399
54.14
54.1402
54.1404
54.1406
54.1408
54.1409
54.1411
54.1413
54.1415
54.1416
54.1418
54.142
54.1421
54.1423
54.1424
54.1426
54.1428
54.1429
54.143
54.1432
54.1433
54.1434
54.1435
54.1436
54.1437
54.1438
54.1439
54.144
54.144
54.1441
54.1441
54.1442
54.1442
54.1442
54.1443
54.1443
54.1443
54.1443
54.1443
54.1443
54.1443
54.1443
54.1442
54.1443
54.1442
54.1442
54.1442
54.1442
54.1441
54.1442
54.1441
54.1442
54.144
54.1441
54.144
54.1441
54.144
54.1441
54.144
54.1441
54.144
54.1441
54.1441
54.144
54.1442
54.1442
54.1019
54.0991
54.098
54.0961
54.0974
54.0959
54.0961
54.0951
54.0969
54.0937
54.0948
54.0948
54.101
54.095
54.095
54.0968
54.0948
54.1082
54.1022
54.0958
54.0981
54.0993
54.1014
54.1176
54.1083
54.0973
54.0991
54.1023
54.1131
54.1195
54.104
54.0998
54.1009
54.1017
54.1022
54.1025
54.1026
54.1031
54.104
54.1055
54.1064
54.1243
54.1272
54.1086
54.1044
54.1053
54.1059
54.1061
54.1063
54.1065
54.1067
54.1069
54.1071
54.1074
54.1076
54.1077
54.1079
54.1081
54.1083
54.1085
54.1087
54.1089
54.1091
54.1094
54.1097
54.11
54.1104
54.1107
54.1111
54.1115
54.1119
54.1123
54.1127
54.113
54.1134
54.1137
54.114
54.1144
54.1147
54.1149
54.1152
54.1155
54.1157
54.1159
54.1161
54.1164
54.1167
54.1171
54.1174
54.1176
54.1179
54.118
54.1186
54.121
54.1277
54.1291
54.1238
54.1199
54.1204
54.1214
54.122
54.1226
54.1234
54.1243
54.1252
54.1254
54.1252
54.1256
54.1265
54.1274
54.1278
54.126
54.1221
54.1207
54.121
54.1226
54.1275
54.1331
54.1368
54.1385
54.1389
54.1388
54.1386
54.1385
54.1386
54.1387
54.1388
54.139
54.1391
54.1393
54.1395
54.1396
54.1398
54.14
54.1402
54.1404
54.1405
54.1407
54.1409
54.1411
54.1412
54.1414
54.1416
54.1418
54.1419
54.1421
54.1423
54.1424
54.1426
54.1427
54.1429
54.143
54.1432
54.1433
54.1434
54.1435
54.1436
54.1437
54.1438
54.1439
54.144
54.1441
54.1442
54.1442
54.1443
54.1443
54.1443
54.1444
54.1444
54.1444
54.1444
54.1444
54.1444
54.1444
54.1444
54.1444
54.1444
54.1444
54.1443
54.1444
54.1443
54.1444
54.1443
54.1443
54.1442
54.1443
54.1442
54.1442
54.1441
54.1442
54.1441
54.1442
54.1441
54.1442
54.1441
54.1442
54.1442
54.1442
54.1444
54.1442
54.0936
54.0912
54.0889
54.0866
54.0841
54.0823
54.0809
54.0793
54.0776
54.0772
54.0769
54.0763
54.0748
54.0755
54.0758
54.0763
54.0763
54.0745
54.0751
54.0763
54.0769
54.0777
54.0769
54.0747
54.0755
54.0771
54.0778
54.0794
54.0781
54.0765
54.0787
54.0804
54.0817
54.0827
54.0835
54.084
54.0844
54.0847
54.0847
54.0841
54.0848
54.0819
54.0817
54.0843
54.0861
54.0873
54.0882
54.0889
54.0894
54.0897
54.0901
54.0904
54.0906
54.0908
54.0909
54.0911
54.0912
54.0913
54.0915
54.0917
54.0919
54.0922
54.0925
54.0928
54.093
54.0933
54.0935
54.0938
54.0941
54.0943
54.0946
54.0947
54.0948
54.0948
54.0949
54.0951
54.0951
54.0951
54.095
54.0953
54.096
54.0976
54.0996
54.1022
54.1056
54.1087
54.1113
54.1136
54.1156
54.117
54.118
54.1187
54.1196
54.1208
54.1202
54.1197
54.1198
54.1204
54.121
54.1217
54.1224
54.1232
54.124
54.1249
54.1258
54.1266
54.1275
54.1283
54.1291
54.1299
54.1307
54.1315
54.1324
54.1333
54.1341
54.1349
54.1356
54.1361
54.1366
54.1369
54.1372
54.1375
54.1377
54.138
54.1382
54.1384
54.1386
54.1388
54.139
54.1392
54.1394
54.1396
54.1398
54.14
54.1402
54.1403
54.1405
54.1407
54.1409
54.1411
54.1412
54.1414
54.1416
54.1418
54.1419
54.1421
54.1423
54.1424
54.1426
54.1427
54.1429
54.143
54.1432
54.1433
54.1434
54.1435
54.1436
54.1437
54.1438
54.1439
54.144
54.1441
54.1442
54.1442
54.1443
54.1443
54.1443
54.1444
54.1444
54.1444
54.1444
54.1444
54.1444
54.1444
54.1444
54.1444
54.1444
54.1444
54.1444
54.1443
54.1443
54.1443
54.1443
54.1443
54.1443
54.1443
54.1442
54.1442
54.1442
54.1441
54.1442
54.1441
54.1442
54.1442
54.1442
54.1441
54.1442
54.1442
54.1442
54.1442
54.0996
54.0987
54.0975
54.097
54.097
54.097
54.0964
54.095
54.0949
54.0953
54.0956
54.0946
54.0943
54.095
54.0961
54.096
54.095
54.0944
54.0949
54.0967
54.0981
54.0971
54.096
54.0945
54.0944
54.0964
54.0982
54.0978
54.0974
54.0959
54.0962
54.0977
54.0987
54.0994
54.1001
54.1009
54.1018
54.1029
54.1041
54.105
54.1041
54.1032
54.1019
54.1018
54.1035
54.1046
54.1052
54.1056
54.106
54.1063
54.1067
54.107
54.1073
54.1075
54.1078
54.108
54.1083
54.1085
54.1087
54.109
54.1092
54.1095
54.1098
54.11
54.1104
54.1107
54.111
54.1113
54.1116
54.1119
54.1123
54.1126
54.1129
54.1132
54.1136
54.1139
54.1143
54.1146
54.115
54.1153
54.1157
54.116
54.1163
54.1167
54.1171
54.1174
54.1178
54.1183
54.1189
54.1196
54.1203
54.1213
54.122
54.1223
54.1213
54.12
54.1194
54.1201
54.121
54.1217
54.1219
54.1222
54.1227
54.1225
54.1216
54.1212
54.1215
54.1214
54.12
54.1192
54.1195
54.1206
54.1235
54.1289
54.1333
54.1363
54.1377
54.1381
54.138
54.138
54.138
54.1381
54.1382
54.1383
54.1384
54.1386
54.1387
54.1389
54.1391
54.1393
54.1394
54.1396
54.1398
54.14
54.1402
54.1403
54.1405
54.1407
54.1409
54.1411
54.1412
54.1414
54.1416
54.1418
54.1419
54.1421
54.1423
54.1424
54.1426
54.1427
54.1429
54.143
54.1432
54.1433
54.1434
54.1435
54.1436
54.1437
54.1438
54.1439
54.144
54.1441
54.1442
54.1442
54.1443
54.1443
54.1443
54.1444
54.1444
54.1444
54.1444
54.1444
54.1444
54.1444
54.1444
54.1444
54.1444
54.1444
54.1444
54.1443
54.1444
54.1443
54.1443
54.1442
54.1443
54.1442
54.1443
54.1442
54.1442
54.1441
54.1442
54.1441
54.1442
54.1441
54.1442
54.1441
54.1442
54.1442
54.1443
54.1443
54.1009
54.1016
54.1019
54.1016
54.1011
54.1008
54.1007
54.0998
54.0987
54.0984
54.0984
54.0975
54.0961
54.0956
54.0963
54.0966
54.0956
54.0938
54.0928
54.0937
54.0951
54.0952
54.0936
54.0912
54.0897
54.0908
54.0927
54.093
54.0921
54.0902
54.0898
54.0909
54.0918
54.0924
54.093
54.0936
54.0944
54.0952
54.0963
54.0975
54.0976
54.0961
54.0944
54.0938
54.0951
54.096
54.0965
54.0969
54.0973
54.0976
54.0979
54.0982
54.0985
54.0988
54.0991
54.0993
54.0996
54.0998
54.1
54.1002
54.1004
54.1007
54.1009
54.1012
54.1015
54.1019
54.1022
54.1026
54.103
54.1033
54.1037
54.1041
54.1045
54.1049
54.1053
54.1057
54.1061
54.1065
54.1069
54.1072
54.1076
54.108
54.1084
54.1087
54.1091
54.1094
54.1098
54.1102
54.1106
54.1111
54.1119
54.113
54.1138
54.1139
54.1132
54.1126
54.1127
54.1135
54.1138
54.1138
54.1146
54.116
54.1166
54.1133
54.1096
54.11
54.1135
54.1198
54.1244
54.1276
54.1299
54.1316
54.1328
54.1337
54.1345
54.1352
54.1357
54.1361
54.1365
54.1368
54.1371
54.1374
54.1376
54.1378
54.1381
54.1383
54.1385
54.1387
54.1389
54.1391
54.1393
54.1395
54.1397
54.1398
54.14
54.1402
54.1404
54.1406
54.1407
54.1409
54.1411
54.1413
54.1415
54.1416
54.1418
54.142
54.1421
54.1423
54.1424
54.1426
54.1428
54.1429
54.143
54.1432
54.1433
54.1434
54.1435
54.1436
54.1437
54.1438
54.1439
54.1439
54.144
54.1441
54.1441
54.1442
54.1442
54.1442
54.1443
54.1443
54.1443
54.1443
54.1443
54.1443
54.1443
54.1443
54.1443
54.1442
54.1443
54.1442
54.1442
54.1442
54.1442
54.1441
54.1442
54.1441
54.1441
54.144
54.1441
54.144
54.1441
54.144
54.1441
54.1441
54.144
54.1441
54.144
54.1441
54.1442
54.1442
54.1441
54.1441
54.1439
54.1438
54.1438
54.1437
54.1437
54.1437
54.1437
54.1437
54.1437
54.1437
54.1438
54.1439
54.1439
54.144
54.144
54.1441
54.1441
54.1442
54.1441
54.1441
54.1441
54.1441
54.1441
54.1442
54.1442
54.1442
54.1443
54.1443
54.1444
54.1445
54.1445
54.1444
54.1443
54.1442
54.1442
54.1442
54.1441
54.144
54.1442
54.1443
54.1443
54.1443
54.1443
54.1443
54.1443
54.1442
54.1441
54.1439
54.1438
54.1436
54.1434
54.1432
54.143
54.1424
54.1418
54.1416
54.1411
54.1409
54.1443
54.1443
54.1443
54.1443
54.1443
54.1443
54.1442
54.1441
54.1439
54.1435
54.1434
54.1436
54.1438
54.1441
54.1442
54.1442
54.1437
54.143
54.1426
54.1423
54.1441
54.1441
54.1441
54.144
54.1441
54.1441
54.144
54.1439
54.1437
54.1434
54.1433
54.1434
54.1437
54.144
54.1443
54.1446
54.1444
54.1438
54.1431
54.1421
54.1444
54.1445
54.1444
54.1443
54.1441
54.1434
54.1424
54.1419
54.1417
54.1417
54.1411
54.1396
54.1388
54.1391
54.1391
54.1379
54.1358
54.1351
54.1358
54.1363
54.1356
54.1331
54.1311
54.1315
54.133
54.1335
54.1326
54.1301
54.128
54.1279
54.1302
54.1317
54.1314
54.1297
54.1278
54.126
54.1244
54.1234
54.1216
54.1215
54.1226
54.1234
54.1238
54.1241
54.1244
54.1247
54.1249
54.1252
54.1254
54.1257
54.126
54.1262
54.1265
54.1267
54.1269
54.1272
54.1274
54.1276
54.1278
54.1279
54.1281
54.1283
54.1285
54.1288
54.129
54.1292
54.1295
54.1298
54.1302
54.1308
54.1317
54.133
54.1349
54.1368
54.1371
54.1362
54.1343
54.1324
54.1314
54.13
54.1298
54.1308
54.132
54.1328
54.1334
54.134
54.1346
54.1352
54.1358
54.1359
54.1362
54.137
54.1365
54.1298
54.1277
54.1336
54.1399
54.1419
54.1421
54.1429
54.143
54.1412
54.1405
54.1399
54.1382
54.1353
54.134
54.1341
54.1348
54.1342
54.1317
54.1314
54.1325
54.1332
54.1317
54.1298
54.1298
54.1323
54.1336
54.1326
54.1293
54.1281
54.1288
54.1322
54.1337
54.1326
54.1288
54.1272
54.127
54.1298
54.133
54.1335
54.1309
54.1277
54.1259
54.1247
54.1252
54.1272
54.1267
54.1275
54.1288
54.1293
54.1295
54.1298
54.1301
54.1305
54.131
54.1315
54.132
54.1324
54.1328
54.1332
54.1336
54.134
54.1343
54.1347
54.135
54.1353
54.1356
54.1359
54.1362
54.1365
54.1368
54.137
54.1372
54.1374
54.1376
54.1378
54.1382
54.1386
54.1393
54.1406
54.142
54.1427
54.142
54.1402
54.1387
54.1372
54.1363
54.1351
54.1364
54.1383
54.1398
54.1406
54.1413
54.1419
54.1422
54.1424
54.1428
54.1432
54.1434
54.1434
54.1436
54.1432
54.1411
54.1409
54.1413
54.1415
54.14
54.14
54.1393
54.1351
54.1318
54.1293
54.1269
54.1244
54.1219
54.1199
54.1186
54.1173
54.1163
54.1154
54.1152
54.1147
54.1141
54.1139
54.1139
54.1138
54.1134
54.1133
54.1138
54.1145
54.1138
54.1135
54.1133
54.1134
54.1141
54.115
54.1141
54.1136
54.1133
54.1135
54.1136
54.1136
54.1135
54.1133
54.1124
54.1102
54.1098
54.1117
54.1132
54.1148
54.116
54.1168
54.1173
54.1176
54.1178
54.1179
54.1181
54.1182
54.1183
54.1184
54.1186
54.1187
54.1188
54.1189
54.1189
54.1189
54.119
54.1191
54.1191
54.1191
54.1191
54.1191
54.119
54.1189
54.1187
54.1186
54.1188
54.1195
54.1205
54.1216
54.1234
54.1259
54.1286
54.1312
54.134
54.1357
54.1357
54.1358
54.137
54.1383
54.1395
54.1403
54.1409
54.1411
54.1414
54.1418
54.1422
54.1427
54.1435
54.1441
54.1451
54.1459
54.1468
54.1477
54.1484
54.1492
54.1501
54.1511
54.1409
54.1377
54.1368
54.1371
54.1382
54.1364
54.1294
54.1291
54.1301
54.1328
54.1291
54.1272
54.1264
54.1307
54.1291
54.1233
54.1259
54.124
54.1295
54.1272
54.1216
54.1246
54.1235
54.1251
54.129
54.1259
54.1225
54.1255
54.126
54.1224
54.128
54.1294
54.1272
54.125
54.1266
54.1314
54.1422
54.1534
54.1456
54.1299
54.1306
54.1339
54.135
54.1352
54.135
54.135
54.1349
54.135
54.135
54.1351
54.1351
54.1352
54.1353
54.1354
54.1355
54.1357
54.1358
54.1359
54.136
54.1361
54.1362
54.1363
54.1364
54.1366
54.1367
54.1368
54.137
54.1371
54.1372
54.1373
54.1375
54.1381
54.1399
54.1414
54.1396
54.1404
54.1452
54.1525
54.1608
54.1572
54.1425
54.1375
54.1391
54.1402
54.1407
54.141
54.1413
54.1417
54.1421
54.1428
54.1434
54.1439
54.1446
54.1454
54.1461
54.1464
54.1461
54.1461
54.1465
54.1469
54.1413
54.1409
54.1411
54.1406
54.1398
54.14
54.1395
54.1394
54.1369
54.1366
54.1376
54.1404
54.1374
54.1361
54.1371
54.1381
54.1388
54.133
54.133
54.1361
54.1367
54.1362
54.1336
54.1286
54.1313
54.1362
54.1362
54.1358
54.135
54.1277
54.1278
54.134
54.1375
54.1357
54.1358
54.1396
54.1499
54.1612
54.1519
54.1307
54.1293
54.1341
54.136
54.1364
54.1363
54.1361
54.136
54.136
54.136
54.1361
54.1361
54.1362
54.1363
54.1364
54.1365
54.1367
54.1368
54.1369
54.1371
54.1372
54.1373
54.1374
54.1375
54.1376
54.1377
54.1378
54.1379
54.1381
54.1382
54.1382
54.1383
54.1388
54.1401
54.1426
54.1445
54.1456
54.1486
54.155
54.1629
54.1593
54.1445
54.1384
54.1405
54.1418
54.1422
54.1423
54.1425
54.1428
54.1434
54.144
54.1447
54.1454
54.1463
54.147
54.1475
54.1479
54.1484
54.1489
54.1492
54.1492
54.1407
54.1404
54.1405
54.1411
54.142
54.1431
54.1442
54.146
54.1495
54.1524
54.1523
54.1516
54.1521
54.1533
54.1542
54.1549
54.1554
54.1557
54.156
54.1561
54.1381
54.1377
54.1377
54.1381
54.1386
54.1392
54.1399
54.1407
54.1418
54.1437
54.1452
54.1466
54.1488
54.1508
54.1522
54.1536
54.1549
54.1556
54.1558
54.1557
54.1512
54.1507
54.1504
54.1504
54.1506
54.1508
54.1511
54.1515
54.1518
54.1523
54.1526
54.1529
54.153
54.153
54.1528
54.1525
54.1521
54.1518
54.1518
54.1521
54.1465
54.1461
54.1458
54.1458
54.1459
54.1455
54.1445
54.1433
54.142
54.1409
54.1401
54.1396
54.139
54.1385
54.138
54.1377
54.1379
54.1385
54.1391
54.1423
54.149
54.1491
54.1488
54.1486
54.1486
54.1488
54.149
54.1493
54.1496
54.15
54.1504
54.151
54.1513
54.1503
54.1482
54.1458
54.143
54.1403
54.1384
54.1385
54.1563
54.1571
54.1574
54.1574
54.1568
54.1563
54.1563
54.1565
54.1568
54.1564
54.1555
54.1552
54.1557
54.1561
54.1556
54.1543
54.153
54.1529
54.1537
54.1544
54.1545
54.1535
54.1517
54.1499
54.1497
54.1508
54.1521
54.1528
54.1525
54.1511
54.1498
54.1489
54.1482
54.1475
54.1469
54.147
54.1453
54.1446
54.1457
54.1468
54.1474
54.148
54.1485
54.1489
54.1494
54.1499
54.1504
54.1511
54.1519
54.1528
54.153
54.153
54.1538
54.1552
54.1565
54.1579
54.1597
54.162
54.1637
54.1641
54.1641
54.1632
54.161
54.1603
54.1621
54.1646
54.1654
54.1651
54.1634
54.1621
54.1612
54.1606
54.1597
54.16
54.1611
54.162
54.1628
54.1636
54.1645
54.1652
54.1655
54.1662
54.1667
54.1604
54.1553
54.165
54.1721
54.1748
54.1771
54.1792
54.1808
54.1822
54.1833
54.1841
54.1847
54.1853
54.1857
54.1862
54.1866
54.1869
54.1872
54.1875
54.1878
54.1881
54.1884
54.1887
54.189
54.1893
54.1895
54.1898
54.19
54.1903
54.1905
54.1908
54.191
54.1912
54.1914
54.1916
54.1918
54.192
54.1922
54.1924
54.1925
54.1927
54.1929
54.193
54.1932
54.1933
54.1934
54.1936
54.1937
54.1938
54.194
54.1941
54.1942
54.1944
54.1945
54.1946
54.1947
54.1948
54.195
54.1951
54.1952
54.1953
54.1954
54.1955
54.1956
54.1957
54.1958
54.1959
54.196
54.1961
54.1961
54.1962
54.1963
54.1964
54.1964
54.1965
54.1966
54.1966
54.1967
54.1968
54.1968
54.1969
54.1969
54.1969
54.197
54.197
54.1971
54.1971
54.1971
54.1971
54.1972
54.1972
54.1972
54.1972
54.1972
54.1972
54.1972
54.1972
54.1973
54.1972
54.1973
54.1972
54.1973
54.1972
54.1973
54.1972
54.1973
54.1972
54.1973
54.1972
54.1974
54.1973
54.1973
54.1974
54.1972
54.1974
54.1975
54.1974
54.1536
54.1535
54.1534
54.1523
54.1494
54.1481
54.1486
54.1493
54.1487
54.146
54.1459
54.1475
54.1489
54.1485
54.1454
54.1443
54.145
54.149
54.151
54.1512
54.1481
54.145
54.1441
54.1444
54.1483
54.1517
54.1529
54.1519
54.1481
54.1456
54.1444
54.1438
54.1438
54.1451
54.1482
54.1502
54.1494
54.1492
54.1503
54.1509
54.1512
54.1517
54.1524
54.1531
54.1539
54.1547
54.1557
54.1566
54.1577
54.1588
54.1593
54.1594
54.1606
54.1621
54.1634
54.1649
54.1665
54.1677
54.168
54.1675
54.1653
54.1627
54.162
54.1621
54.1645
54.1672
54.1679
54.1676
54.1666
54.1655
54.1647
54.1646
54.1655
54.1671
54.1686
54.1698
54.1706
54.1713
54.1717
54.1721
54.1726
54.1728
54.1731
54.1729
54.1705
54.1697
54.1701
54.1706
54.1702
54.1686
54.1686
54.1706
54.1777
54.184
54.1862
54.1868
54.1868
54.187
54.1871
54.1874
54.1876
54.1878
54.1881
54.1883
54.1886
54.1889
54.1891
54.1894
54.1896
54.1899
54.1902
54.1904
54.1906
54.1909
54.1911
54.1913
54.1915
54.1917
54.1919
54.1921
54.1923
54.1925
54.1926
54.1928
54.193
54.1931
54.1933
54.1934
54.1935
54.1937
54.1938
54.1939
54.1941
54.1942
54.1943
54.1945
54.1946
54.1947
54.1948
54.1949
54.1951
54.1952
54.1953
54.1954
54.1955
54.1956
54.1957
54.1958
54.1959
54.196
54.1961
54.1962
54.1962
54.1963
54.1964
54.1965
54.1965
54.1966
54.1967
54.1967
54.1968
54.1969
54.1969
54.197
54.197
54.1971
54.1971
54.1971
54.1972
54.1972
54.1972
54.1972
54.1973
54.1973
54.1973
54.1973
54.1973
54.1973
54.1973
54.1973
54.1974
54.1973
54.1974
54.1973
54.1974
54.1973
54.1974
54.1973
54.1974
54.1973
54.1974
54.1973
54.1974
54.1973
54.1975
54.1974
54.1975
54.1974
54.1975
54.1975
54.1508
54.1473
54.1444
54.1421
54.1398
54.1375
54.1356
54.1342
54.1329
54.132
54.1317
54.1316
54.1315
54.1311
54.1312
54.1322
54.1324
54.1322
54.1319
54.132
54.1327
54.1337
54.1345
54.1341
54.1334
54.1332
54.1336
54.134
54.1344
54.1347
54.135
54.1351
54.1352
54.1351
54.1344
54.1328
54.1321
54.1335
54.1352
54.1368
54.1384
54.1395
54.1404
54.141
54.1416
54.142
54.1424
54.1428
54.1432
54.144
54.1421
54.1433
54.1444
54.1448
54.145
54.1451
54.1446
54.1436
54.1428
54.1431
54.1444
54.1462
54.1479
54.15
54.1533
54.1573
54.1606
54.1638
54.166
54.1671
54.1669
54.1663
54.1663
54.1672
54.1681
54.1691
54.1699
54.1706
54.1711
54.1716
54.1723
54.1731
54.174
54.1751
54.176
54.177
54.1777
54.1784
54.179
54.1797
54.1805
54.1814
54.1824
54.1833
54.1842
54.1851
54.1858
54.1863
54.1867
54.187
54.1873
54.1876
54.1879
54.1882
54.1885
54.1888
54.1891
54.1894
54.1896
54.1899
54.1902
54.1904
54.1906
54.1909
54.1911
54.1913
54.1915
54.1917
54.1919
54.1921
54.1923
54.1925
54.1926
54.1928
54.193
54.1931
54.1933
54.1934
54.1935
54.1937
54.1938
54.1939
54.1941
54.1942
54.1943
54.1945
54.1946
54.1947
54.1948
54.1949
54.1951
54.1952
54.1953
54.1954
54.1955
54.1956
54.1957
54.1958
54.1959
54.196
54.1961
54.1962
54.1962
54.1963
54.1964
54.1965
54.1965
54.1966
54.1967
54.1967
54.1968
54.1969
54.1969
54.197
54.197
54.1971
54.1971
54.1971
54.1972
54.1972
54.1972
54.1972
54.1973
54.1973
54.1973
54.1973
54.1973
54.1973
54.1973
54.1973
54.1974
54.1973
54.1974
54.1973
54.1973
54.1973
54.1973
54.1973
54.1974
54.1973
54.1974
54.1973
54.1974
54.1974
54.1974
54.1974
54.1975
54.1974
54.1975
54.1975
54.1502
54.15
54.1498
54.1513
54.1511
54.1448
54.143
54.1451
54.1478
54.1433
54.1392
54.14
54.1452
54.1452
54.1381
54.1372
54.1384
54.1398
54.1453
54.1447
54.1405
54.1381
54.1394
54.1398
54.1402
54.1458
54.1477
54.1466
54.1449
54.1438
54.1438
54.1446
54.1463
54.1499
54.1579
54.1697
54.1696
54.154
54.1522
54.156
54.1581
54.1588
54.159
54.1591
54.1592
54.1595
54.1598
54.1602
54.1611
54.1632
54.1729
54.166
54.1616
54.1612
54.1617
54.1626
54.1646
54.1665
54.1573
54.1506
54.1498
54.1521
54.1555
54.1546
54.1599
54.1647
54.1677
54.1694
54.1732
54.1785
54.1854
54.1873
54.1772
54.1668
54.1673
54.1694
54.1704
54.171
54.1713
54.1719
54.1725
54.1732
54.174
54.1749
54.1757
54.1764
54.1765
54.1762
54.1764
54.1769
54.1775
54.1772
54.1735
54.1706
54.171
54.1749
54.1829
54.187
54.1879
54.1879
54.1878
54.1879
54.1881
54.1884
54.1886
54.1889
54.1891
54.1894
54.1897
54.1899
54.1902
54.1904
54.1906
54.1909
54.1911
54.1913
54.1915
54.1917
54.1919
54.1921
54.1923
54.1925
54.1926
54.1928
54.193
54.1931
54.1933
54.1934
54.1935
54.1937
54.1938
54.1939
54.1941
54.1942
54.1943
54.1945
54.1946
54.1947
54.1948
54.1949
54.1951
54.1952
54.1953
54.1954
54.1955
54.1956
54.1957
54.1958
54.1959
54.196
54.1961
54.1962
54.1962
54.1963
54.1964
54.1965
54.1965
54.1966
54.1967
54.1967
54.1968
54.1969
54.1969
54.197
54.197
54.1971
54.1971
54.1971
54.1972
54.1972
54.1972
54.1972
54.1973
54.1973
54.1973
54.1973
54.1973
54.1973
54.1973
54.1974
54.1973
54.1974
54.1973
54.1974
54.1973
54.1974
54.1973
54.1974
54.1973
54.1974
54.1973
54.1974
54.1973
54.1975
54.1973
54.1975
54.1974
54.1974
54.1977
54.1974
54.1482
54.153
54.1538
54.1539
54.1545
54.1541
54.1528
54.1515
54.1518
54.1526
54.1523
54.1513
54.1502
54.1522
54.1529
54.1498
54.1481
54.1455
54.1459
54.151
54.1528
54.1495
54.147
54.1466
54.1442
54.1439
54.1483
54.1539
54.154
54.1521
54.1515
54.1518
54.1531
54.1563
54.164
54.1757
54.1741
54.1539
54.1469
54.1541
54.1584
54.1598
54.1603
54.1604
54.1604
54.1606
54.1609
54.1613
54.1621
54.1637
54.1776
54.1698
54.1632
54.1623
54.1626
54.1635
54.1648
54.1679
54.1692
54.162
54.1578
54.1587
54.1614
54.1581
54.1577
54.1626
54.1699
54.1723
54.1752
54.1794
54.1861
54.1883
54.1778
54.1665
54.167
54.1704
54.1718
54.1724
54.1726
54.1731
54.1737
54.1745
54.1755
54.1763
54.177
54.1775
54.178
54.1785
54.1791
54.1796
54.1797
54.1799