/*--------------------------------*- C++ -*----------------------------------*\
| =========                 |                                                 |
| \\      /  F ield         | OpenFOAM: The Open Source CFD Toolbox           |
|  \\    /   O peration     | Version:  3.0.x                                 |
|   \\  /    A nd           | Web:      www.OpenFOAM.org                      |
|    \\/     M anipulation  |                                                 |
\*---------------------------------------------------------------------------*/
FoamFile
{
    version     2.0;
    format      ascii;
    class       volVectorField;
    location    "0.57";
    object      U;
}
// * * * * * * * * * * * * * * * * * * * * * * * * * * * * * * * * * * * * * //

dimensions      [0 1 -1 0 0 0 0];

internalField   nonuniform List<vector> 
6900
(
(42.5808 9.71241e-05 0)
(42.286 8.97509e-05 0)
(41.9396 8.83057e-05 0)
(41.613 8.98992e-05 0)
(41.3037 9.12968e-05 0)
(40.9972 9.23801e-05 0)
(40.6884 9.32982e-05 0)
(40.3784 9.40663e-05 0)
(40.0685 9.4694e-05 0)
(39.759 9.52009e-05 0)
(39.4497 9.56044e-05 0)
(39.1406 9.59206e-05 0)
(38.8318 9.61648e-05 0)
(38.5232 9.63465e-05 0)
(38.215 9.64908e-05 0)
(37.9071 9.65959e-05 0)
(37.5995 9.66636e-05 0)
(37.2923 9.67176e-05 0)
(36.9856 9.67563e-05 0)
(36.6792 9.67862e-05 0)
(36.3734 9.6808e-05 0)
(36.068 9.68261e-05 0)
(35.7632 9.68415e-05 0)
(35.4589 9.68548e-05 0)
(35.1552 9.6867e-05 0)
(34.8521 9.68801e-05 0)
(34.5496 9.68902e-05 0)
(34.2478 9.69034e-05 0)
(33.9466 9.69146e-05 0)
(33.6461 9.69257e-05 0)
(33.3463 9.69394e-05 0)
(33.0473 9.69499e-05 0)
(32.749 9.69639e-05 0)
(32.4515 9.69765e-05 0)
(32.1547 9.69898e-05 0)
(31.8588 9.70052e-05 0)
(31.5637 9.70193e-05 0)
(31.2694 9.70346e-05 0)
(30.976 9.70529e-05 0)
(30.6835 9.70695e-05 0)
(30.3919 9.70873e-05 0)
(30.1012 9.71079e-05 0)
(29.8115 9.71321e-05 0)
(29.5227 9.71582e-05 0)
(29.235 9.71852e-05 0)
(28.9482 9.72151e-05 0)
(28.6624 9.72393e-05 0)
(28.3777 9.7267e-05 0)
(28.0941 9.72942e-05 0)
(27.8116 9.73293e-05 0)
(27.5302 9.73751e-05 0)
(27.2499 9.74291e-05 0)
(26.9708 9.74892e-05 0)
(26.6928 9.75521e-05 0)
(26.4161 9.76117e-05 0)
(26.1406 9.76661e-05 0)
(25.8663 9.77186e-05 0)
(25.5934 9.77711e-05 0)
(25.3217 9.78232e-05 0)
(25.0514 9.78764e-05 0)
(24.7824 9.79299e-05 0)
(24.5148 9.79824e-05 0)
(24.2485 9.80337e-05 0)
(23.9837 9.8087e-05 0)
(23.7204 9.81438e-05 0)
(23.4585 9.81999e-05 0)
(23.1981 9.82461e-05 0)
(22.9392 9.82702e-05 0)
(22.6818 9.82574e-05 0)
(22.426 9.81933e-05 0)
(22.1717 9.80664e-05 0)
(21.9191 9.78674e-05 0)
(21.668 9.75864e-05 0)
(21.4185 9.72113e-05 0)
(21.1707 9.67258e-05 0)
(20.9244 9.61092e-05 0)
(20.6799 9.53364e-05 0)
(20.437 9.43794e-05 0)
(20.1958 9.32098e-05 0)
(19.9562 9.18002e-05 0)
(19.7184 9.01268e-05 0)
(19.4822 8.81702e-05 0)
(19.2478 8.59167e-05 0)
(19.015 8.3359e-05 0)
(18.784 8.04971e-05 0)
(18.5547 7.73386e-05 0)
(18.3272 7.38988e-05 0)
(18.1014 7.02007e-05 0)
(17.8773 6.62742e-05 0)
(17.655 6.21558e-05 0)
(17.4345 5.78879e-05 0)
(17.2157 5.3517e-05 0)
(16.9986 4.90929e-05 0)
(16.7834 4.46667e-05 0)
(16.5699 4.02866e-05 0)
(16.3581 3.59989e-05 0)
(16.1481 3.18464e-05 0)
(15.9399 2.78673e-05 0)
(15.7335 2.4094e-05 0)
(15.5288 2.05522e-05 0)
(15.3259 1.72609e-05 0)
(15.1248 1.42327e-05 0)
(14.9255 1.14741e-05 0)
(14.7279 8.98402e-06 0)
(14.5321 6.75265e-06 0)
(14.338 4.76087e-06 0)
(14.1458 2.98004e-06 0)
(13.9553 1.35516e-06 0)
(13.7666 -8.30777e-08 0)
(13.5798 -9.97638e-07 0)
(13.3947 -1.7873e-06 0)
(13.2114 -2.45124e-06 0)
(13.0299 -3.00164e-06 0)
(12.8502 -3.45322e-06 0)
(12.6724 -3.82022e-06 0)
(12.4963 -4.1154e-06 0)
(12.3221 -4.35092e-06 0)
(12.1497 -4.53747e-06 0)
(11.9792 -4.68478e-06 0)
(11.8105 -4.80098e-06 0)
(11.6436 -4.89244e-06 0)
(11.4785 -4.96474e-06 0)
(11.3152 -5.02201e-06 0)
(11.1538 -5.06824e-06 0)
(10.9942 -5.10634e-06 0)
(10.8364 -5.13808e-06 0)
(10.6805 -5.16503e-06 0)
(10.5263 -5.18796e-06 0)
(10.3739 -5.20823e-06 0)
(10.2234 -5.22711e-06 0)
(10.0746 -5.24504e-06 0)
(9.92756 -5.26249e-06 0)
(9.78232 -5.27929e-06 0)
(9.63884 -5.29549e-06 0)
(9.49713 -5.31126e-06 0)
(9.35716 -5.32688e-06 0)
(9.21894 -5.34275e-06 0)
(9.08245 -5.35888e-06 0)
(8.9477 -5.37521e-06 0)
(8.81468 -5.39132e-06 0)
(8.68339 -5.40684e-06 0)
(8.55381 -5.42184e-06 0)
(8.42595 -5.43691e-06 0)
(8.29981 -5.45187e-06 0)
(8.17538 -5.46688e-06 0)
(8.05265 -5.4821e-06 0)
(7.93163 -5.49758e-06 0)
(7.81232 -5.51318e-06 0)
(7.69471 -5.52887e-06 0)
(7.5788 -5.54434e-06 0)
(7.46458 -5.55948e-06 0)
(7.35206 -5.57419e-06 0)
(7.24124 -5.58849e-06 0)
(7.13211 -5.60299e-06 0)
(7.02467 -5.61761e-06 0)
(6.91892 -5.63253e-06 0)
(6.81485 -5.64763e-06 0)
(6.71247 -5.66282e-06 0)
(6.61176 -5.67723e-06 0)
(6.51273 -5.69172e-06 0)
(6.41537 -5.70645e-06 0)
(6.31967 -5.72202e-06 0)
(6.22563 -5.7373e-06 0)
(6.13323 -5.75268e-06 0)
(6.04248 -5.76766e-06 0)
(5.95336 -5.78258e-06 0)
(5.86585 -5.79697e-06 0)
(5.77995 -5.81203e-06 0)
(5.69564 -5.82653e-06 0)
(5.6129 -5.84246e-06 0)
(5.53171 -5.8565e-06 0)
(5.45207 -5.87274e-06 0)
(5.37394 -5.88559e-06 0)
(5.29731 -5.90233e-06 0)
(5.22216 -5.91332e-06 0)
(5.14848 -5.93268e-06 0)
(5.07625 -5.94041e-06 0)
(5.00545 -5.96664e-06 0)
(4.93609 -5.96319e-06 0)
(4.86815 -6.00554e-06 0)
(4.80164 -5.97682e-06 0)
(4.73652 -6.05312e-06 0)
(4.67284 -5.89492e-06 0)
(4.61054 -6.20387e-06 0)
(4.54967 -5.86381e-06 0)
(4.49018 -6.46521e-06 0)
(4.43211 -6.00095e-06 0)
(4.37537 -6.70016e-06 0)
(4.32003 -6.15701e-06 0)
(4.26596 -6.80943e-06 0)
(4.21323 -6.165e-06 0)
(4.16169 -6.7554e-06 0)
(4.11141 -6.40998e-06 0)
(4.0622 -6.10618e-06 0)
(4.01412 -7.21982e-06 0)
(3.96693 -2.28075e-06 0)
(3.92006 -9.80405e-07 0)
(3.86984 3.75392e-05 0)
(3.82243 0.00291439 0)
(3.47505 0.00655704 0)
(42.5825 0.000123162 0)
(42.2894 9.60734e-05 0)
(41.9448 8.55709e-05 0)
(41.62 8.57625e-05 0)
(41.3125 8.64538e-05 0)
(41.0077 8.6839e-05 0)
(40.7008 8.72619e-05 0)
(40.3927 8.76864e-05 0)
(40.0846 8.80597e-05 0)
(39.7769 8.83759e-05 0)
(39.4695 8.86374e-05 0)
(39.1623 8.88482e-05 0)
(38.8554 8.90149e-05 0)
(38.5487 8.91383e-05 0)
(38.2423 8.92438e-05 0)
(37.9363 8.93216e-05 0)
(37.6306 8.93679e-05 0)
(37.3253 8.94102e-05 0)
(37.0204 8.94419e-05 0)
(36.716 8.94694e-05 0)
(36.412 8.94913e-05 0)
(36.1085 8.95123e-05 0)
(35.8056 8.95323e-05 0)
(35.5032 8.95513e-05 0)
(35.2014 8.95701e-05 0)
(34.9002 8.95912e-05 0)
(34.5996 8.96081e-05 0)
(34.2996 8.96306e-05 0)
(34.0003 8.96496e-05 0)
(33.7017 8.96689e-05 0)
(33.4038 8.9692e-05 0)
(33.1067 8.97098e-05 0)
(32.8103 8.9733e-05 0)
(32.5146 8.97532e-05 0)
(32.2198 8.97743e-05 0)
(31.9257 8.9798e-05 0)
(31.6325 8.98188e-05 0)
(31.3401 8.98409e-05 0)
(31.0486 8.98669e-05 0)
(30.758 8.9889e-05 0)
(30.4683 8.99122e-05 0)
(30.1795 8.99383e-05 0)
(29.8917 8.99681e-05 0)
(29.6048 8.99988e-05 0)
(29.3189 9.00291e-05 0)
(29.034 9.00624e-05 0)
(28.7502 9.00861e-05 0)
(28.4674 9.01152e-05 0)
(28.1856 9.0142e-05 0)
(27.905 9.01782e-05 0)
(27.6254 9.02264e-05 0)
(27.3471 9.0282e-05 0)
(27.0698 9.03427e-05 0)
(26.7938 9.04057e-05 0)
(26.5189 9.04629e-05 0)
(26.2453 9.05132e-05 0)
(25.973 9.05618e-05 0)
(25.7019 9.06102e-05 0)
(25.4322 9.06568e-05 0)
(25.1637 9.07039e-05 0)
(24.8966 9.07508e-05 0)
(24.6309 9.07961e-05 0)
(24.3666 9.08404e-05 0)
(24.1037 9.08886e-05 0)
(23.8422 9.0943e-05 0)
(23.5823 9.09981e-05 0)
(23.3238 9.10433e-05 0)
(23.0668 9.10652e-05 0)
(22.8113 9.10484e-05 0)
(22.5574 9.09779e-05 0)
(22.305 9.0844e-05 0)
(22.0543 9.06392e-05 0)
(21.8051 9.03554e-05 0)
(21.5575 8.99822e-05 0)
(21.3115 8.95048e-05 0)
(21.0672 8.89032e-05 0)
(20.8245 8.81531e-05 0)
(20.5834 8.72271e-05 0)
(20.344 8.60975e-05 0)
(20.1062 8.47379e-05 0)
(19.8701 8.31259e-05 0)
(19.6357 8.12439e-05 0)
(19.4029 7.90799e-05 0)
(19.1718 7.66283e-05 0)
(18.9424 7.38906e-05 0)
(18.7147 7.08756e-05 0)
(18.4886 6.75993e-05 0)
(18.2642 6.40846e-05 0)
(18.0414 6.0361e-05 0)
(17.8203 5.64639e-05 0)
(17.6009 5.24336e-05 0)
(17.3832 4.83147e-05 0)
(17.1671 4.41538e-05 0)
(16.9528 3.99989e-05 0)
(16.7401 3.5895e-05 0)
(16.529 3.18851e-05 0)
(16.3197 2.80094e-05 0)
(16.112 2.43035e-05 0)
(15.9061 2.07975e-05 0)
(15.7018 1.75146e-05 0)
(15.4993 1.44714e-05 0)
(15.2984 1.16774e-05 0)
(15.0993 9.14116e-06 0)
(14.9019 6.87139e-06 0)
(14.7062 4.8731e-06 0)
(14.5122 3.14436e-06 0)
(14.32 1.67805e-06 0)
(14.1296 4.48936e-07 0)
(13.9409 -6.28546e-07 0)
(13.754 -1.52091e-06 0)
(13.5689 -2.32225e-06 0)
(13.3855 -2.98878e-06 0)
(13.204 -3.53419e-06 0)
(13.0242 -3.97701e-06 0)
(12.8463 -4.33419e-06 0)
(12.6701 -4.62e-06 0)
(12.4958 -4.84724e-06 0)
(12.3233 -5.02698e-06 0)
(12.1526 -5.16887e-06 0)
(11.9838 -5.28099e-06 0)
(11.8168 -5.36947e-06 0)
(11.6516 -5.4397e-06 0)
(11.4882 -5.4956e-06 0)
(11.3267 -5.54103e-06 0)
(11.167 -5.57873e-06 0)
(11.0091 -5.61037e-06 0)
(10.853 -5.63735e-06 0)
(10.6987 -5.66049e-06 0)
(10.5462 -5.68094e-06 0)
(10.3955 -5.70017e-06 0)
(10.2466 -5.71841e-06 0)
(10.0994 -5.73621e-06 0)
(9.95408 -5.75334e-06 0)
(9.81048 -5.76981e-06 0)
(9.66864 -5.78586e-06 0)
(9.52854 -5.80166e-06 0)
(9.3902 -5.81773e-06 0)
(9.25359 -5.83406e-06 0)
(9.11871 -5.85038e-06 0)
(8.98557 -5.86666e-06 0)
(8.85414 -5.88194e-06 0)
(8.72444 -5.89689e-06 0)
(8.59646 -5.91162e-06 0)
(8.47019 -5.92617e-06 0)
(8.34563 -5.94079e-06 0)
(8.22278 -5.95541e-06 0)
(8.10163 -5.9702e-06 0)
(7.98219 -5.98494e-06 0)
(7.86445 -5.99986e-06 0)
(7.74841 -6.01422e-06 0)
(7.63407 -6.02805e-06 0)
(7.52142 -6.04171e-06 0)
(7.41047 -6.05432e-06 0)
(7.30121 -6.06747e-06 0)
(7.19364 -6.0803e-06 0)
(7.08776 -6.09376e-06 0)
(6.98356 -6.10668e-06 0)
(6.88105 -6.12054e-06 0)
(6.78021 -6.13241e-06 0)
(6.68105 -6.14545e-06 0)
(6.58356 -6.15733e-06 0)
(6.48773 -6.17134e-06 0)
(6.39356 -6.18414e-06 0)
(6.30104 -6.19783e-06 0)
(6.21016 -6.20963e-06 0)
(6.1209 -6.223e-06 0)
(6.03327 -6.23312e-06 0)
(5.94724 -6.24911e-06 0)
(5.86279 -6.2557e-06 0)
(5.77992 -6.27561e-06 0)
(5.6986 -6.27807e-06 0)
(5.61882 -6.30322e-06 0)
(5.54056 -6.29692e-06 0)
(5.4638 -6.33198e-06 0)
(5.38852 -6.30865e-06 0)
(5.3147 -6.37048e-06 0)
(5.24234 -6.3045e-06 0)
(5.17142 -6.43641e-06 0)
(5.10193 -6.25601e-06 0)
(5.03385 -6.56274e-06 0)
(4.9672 -6.11836e-06 0)
(4.90195 -6.76819e-06 0)
(4.83813 -5.37715e-06 0)
(4.7757 -7.45877e-06 0)
(4.71471 -4.05824e-06 0)
(4.65507 -8.73088e-06 0)
(4.59687 -2.63495e-06 0)
(4.54 -1.00612e-05 0)
(4.48453 -1.30787e-06 0)
(4.43032 -1.09909e-05 0)
(4.37746 -1.15369e-06 0)
(4.32578 -1.04537e-05 0)
(4.27536 -3.44376e-06 0)
(4.22602 -6.85023e-06 0)
(4.17782 6.49196e-06 0)
(4.13048 5.09795e-05 0)
(4.08351 0.000337467 0)
(4.03329 0.00191265 0)
(3.98455 0.013524 0)
(3.78058 0.0305558 0)
(42.5825 5.97238e-14 0)
(42.2893 -8.44442e-13 0)
(41.9447 -1.93637e-12 0)
(41.6199 -2.7905e-12 0)
(41.3124 -4.73189e-12 0)
(41.0077 -8.48788e-12 0)
(40.7008 -1.21494e-11 0)
(40.3926 -1.19718e-11 0)
(40.0846 -1.08649e-11 0)
(39.7769 -9.89126e-12 0)
(39.4695 -1.09484e-11 0)
(39.1623 -1.31242e-11 0)
(38.8553 -1.5174e-11 0)
(38.5486 -1.52509e-11 0)
(38.2423 -1.47726e-11 0)
(37.9363 -1.4204e-11 0)
(37.6305 -1.40539e-11 0)
(37.3252 -1.33226e-11 0)
(37.0204 -1.29043e-11 0)
(36.7159 -1.24651e-11 0)
(36.412 -1.28534e-11 0)
(36.1085 -1.45492e-11 0)
(35.8056 -1.77813e-11 0)
(35.5032 -1.89718e-11 0)
(35.2014 -2.03709e-11 0)
(34.9002 -2.06116e-11 0)
(34.5996 -2.15226e-11 0)
(34.2996 -2.41128e-11 0)
(34.0003 -2.66227e-11 0)
(33.7017 -2.60681e-11 0)
(33.4038 -2.45811e-11 0)
(33.1067 -2.30052e-11 0)
(32.8102 -2.10038e-11 0)
(32.5146 -1.95489e-11 0)
(32.2198 -1.77967e-11 0)
(31.9257 -1.58784e-11 0)
(31.6325 -1.51007e-11 0)
(31.3401 -1.58402e-11 0)
(31.0486 -1.8974e-11 0)
(30.758 -2.17643e-11 0)
(30.4683 -2.3838e-11 0)
(30.1795 -2.45093e-11 0)
(29.8917 -2.41342e-11 0)
(29.6048 -2.48185e-11 0)
(29.3189 -2.41443e-11 0)
(29.034 -2.18079e-11 0)
(28.7502 -2.01791e-11 0)
(28.4674 -1.85038e-11 0)
(28.1856 -1.69779e-11 0)
(27.905 -1.65914e-11 0)
(27.6255 -1.56656e-11 0)
(27.3471 -1.54937e-11 0)
(27.0699 -1.37306e-11 0)
(26.7938 -1.17501e-11 0)
(26.519 -1.08941e-11 0)
(26.2454 -8.32104e-12 0)
(25.973 -6.69122e-12 0)
(25.702 -3.59012e-12 0)
(25.4322 -1.01565e-12 0)
(25.1638 6.98328e-13 0)
(24.8967 4.10707e-13 0)
(24.631 -2.31363e-13 0)
(24.3667 -9.99465e-14 0)
(24.1038 1.95085e-13 0)
(23.8423 3.09965e-13 0)
(23.5823 -5.11456e-13 0)
(23.3239 -3.14396e-12 0)
(23.0669 -6.35465e-12 0)
(22.8114 -7.44122e-12 0)
(22.5575 -7.3551e-12 0)
(22.3051 -6.23613e-12 0)
(22.0544 -9.5594e-12 0)
(21.8052 -1.18822e-11 0)
(21.5576 -1.25102e-11 0)
(21.3116 -1.12314e-11 0)
(21.0673 -9.66734e-12 0)
(20.8246 -7.91449e-12 0)
(20.5835 -9.59177e-12 0)
(20.3441 -1.28797e-11 0)
(20.1064 -2.0196e-11 0)
(19.8703 -2.80857e-11 0)
(19.6358 -3.39469e-11 0)
(19.4031 -3.90029e-11 0)
(19.172 -4.37789e-11 0)
(18.9426 -4.59571e-11 0)
(18.7148 -4.69165e-11 0)
(18.4887 -4.69918e-11 0)
(18.2643 -4.64851e-11 0)
(18.0415 -4.67009e-11 0)
(17.8205 -4.95951e-11 0)
(17.6011 -5.02711e-11 0)
(17.3833 -4.69535e-11 0)
(17.1673 -4.17075e-11 0)
(16.9529 -4.01052e-11 0)
(16.7402 -3.8094e-11 0)
(16.5291 -3.62739e-11 0)
(16.3198 -3.1387e-11 0)
(16.1121 -2.86107e-11 0)
(15.9062 -2.44666e-11 0)
(15.7019 -2.7619e-11 0)
(15.4993 -1.9638e-11 0)
(15.2985 -2.68344e-11 0)
(15.0994 -1.04283e-11 0)
(14.9019 -2.72606e-11 0)
(14.7063 -1.48195e-12 0)
(14.5123 -2.61807e-11 0)
(14.3201 3.27764e-12 0)
(14.1297 -2.34768e-11 0)
(13.941 3.43681e-11 0)
(13.7541 -2.23758e-11 0)
(13.5689 6.69906e-11 0)
(13.3856 -3.37799e-11 0)
(13.204 6.34767e-11 0)
(13.0243 -5.95412e-11 0)
(12.8463 7.19943e-11 0)
(12.6702 -6.95854e-11 0)
(12.4959 5.60622e-11 0)
(12.3234 -5.47e-11 0)
(12.1527 2.48591e-11 0)
(11.9839 -2.26534e-11 0)
(11.8168 -7.6211e-12 0)
(11.6517 -1.52095e-11 0)
(11.4883 -1.07633e-12 0)
(11.3268 -3.24825e-11 0)
(11.167 4.46681e-11 0)
(11.0091 -7.92791e-11 0)
(10.853 1.22088e-10 0)
(10.6987 -1.58285e-10 0)
(10.5463 2.07566e-10 0)
(10.3956 -1.78888e-10 0)
(10.2466 1.73067e-10 0)
(10.0995 -9.13364e-11 0)
(9.95414 6.42978e-11 0)
(9.81054 2.46318e-11 0)
(9.6687 -1.29264e-12 0)
(9.52861 -3.82653e-12 0)
(9.39026 9.2203e-11 0)
(9.25365 -1.8457e-10 0)
(9.11878 3.34341e-10 0)
(8.98563 -4.35923e-10 0)
(8.85421 4.13802e-10 0)
(8.72451 -2.02866e-10 0)
(8.59652 -3.40961e-11 0)
(8.47025 9.63375e-11 0)
(8.34569 1.24642e-10 0)
(8.22284 -4.0154e-10 0)
(8.10169 4.3575e-10 0)
(7.98225 -2.88211e-10 0)
(7.86451 1.88884e-10 0)
(7.74847 -2.5442e-10 0)
(7.63413 3.47626e-10 0)
(7.52148 -3.76451e-10 0)
(7.41053 3.43901e-10 0)
(7.30127 -4.35254e-10 0)
(7.1937 7.41598e-10 0)
(7.08782 -1.16698e-09 0)
(6.98363 1.54896e-09 0)
(6.88111 -1.67827e-09 0)
(6.78028 1.9946e-09 0)
(6.68112 -3.15001e-09 0)
(6.58362 3.38472e-09 0)
(6.4878 -2.07739e-09 0)
(6.39362 2.3341e-09 0)
(6.3011 -4.18667e-09 0)
(6.21022 4.1541e-09 0)
(6.12097 -4.18672e-09 0)
(6.03333 6.78547e-09 0)
(5.9473 -9.47679e-09 0)
(5.86285 1.18151e-08 0)
(5.77998 -1.49551e-08 0)
(5.69867 2.01905e-08 0)
(5.61889 -2.77741e-08 0)
(5.54062 3.61977e-08 0)
(5.46386 -4.98933e-08 0)
(5.38858 7.31936e-08 0)
(5.31477 -1.08613e-07 0)
(5.2424 1.6477e-07 0)
(5.17148 -2.62306e-07 0)
(5.10199 4.02495e-07 0)
(5.03391 -6.30973e-07 0)
(4.96726 8.76565e-07 0)
(4.90202 -1.59527e-06 0)
(4.83819 2.23309e-06 0)
(4.77577 -3.6347e-06 0)
(4.71476 4.50244e-06 0)
(4.65514 -6.0197e-06 0)
(4.59692 6.76641e-06 0)
(4.54007 -7.84989e-06 0)
(4.48457 8.58107e-06 0)
(4.4304 -9.37341e-06 0)
(4.37751 9.66393e-06 0)
(4.32585 -9.792e-06 0)
(4.27542 9.63836e-06 0)
(4.2261 -7.99177e-06 0)
(4.17791 1.9469e-05 0)
(4.13079 3.72194e-05 0)
(4.08485 0.000219653 0)
(4.0409 0.000766335 0)
(4.00332 0.00206253 0)
(3.9684 -0.00359786 0)
(42.5825 -0.000123162 0)
(42.2894 -9.60734e-05 0)
(41.9448 -8.55709e-05 0)
(41.62 -8.57625e-05 0)
(41.3125 -8.64538e-05 0)
(41.0077 -8.6839e-05 0)
(40.7008 -8.72619e-05 0)
(40.3927 -8.76864e-05 0)
(40.0846 -8.80597e-05 0)
(39.7769 -8.83759e-05 0)
(39.4695 -8.86374e-05 0)
(39.1623 -8.88482e-05 0)
(38.8554 -8.90149e-05 0)
(38.5487 -8.91383e-05 0)
(38.2423 -8.92438e-05 0)
(37.9363 -8.93216e-05 0)
(37.6306 -8.93679e-05 0)
(37.3253 -8.94102e-05 0)
(37.0204 -8.94419e-05 0)
(36.716 -8.94694e-05 0)
(36.412 -8.94913e-05 0)
(36.1085 -8.95123e-05 0)
(35.8056 -8.95323e-05 0)
(35.5032 -8.95513e-05 0)
(35.2014 -8.95701e-05 0)
(34.9002 -8.95912e-05 0)
(34.5996 -8.96081e-05 0)
(34.2996 -8.96306e-05 0)
(34.0003 -8.96496e-05 0)
(33.7017 -8.96689e-05 0)
(33.4038 -8.9692e-05 0)
(33.1067 -8.97098e-05 0)
(32.8103 -8.9733e-05 0)
(32.5146 -8.97532e-05 0)
(32.2198 -8.97743e-05 0)
(31.9257 -8.9798e-05 0)
(31.6325 -8.98188e-05 0)
(31.3401 -8.98409e-05 0)
(31.0486 -8.98669e-05 0)
(30.758 -8.9889e-05 0)
(30.4683 -8.99122e-05 0)
(30.1795 -8.99383e-05 0)
(29.8917 -8.99681e-05 0)
(29.6048 -8.99988e-05 0)
(29.3189 -9.00291e-05 0)
(29.034 -9.00624e-05 0)
(28.7502 -9.00861e-05 0)
(28.4674 -9.01152e-05 0)
(28.1856 -9.0142e-05 0)
(27.905 -9.01782e-05 0)
(27.6254 -9.02264e-05 0)
(27.3471 -9.0282e-05 0)
(27.0698 -9.03427e-05 0)
(26.7938 -9.04057e-05 0)
(26.5189 -9.04629e-05 0)
(26.2453 -9.05132e-05 0)
(25.973 -9.05618e-05 0)
(25.7019 -9.06102e-05 0)
(25.4322 -9.06569e-05 0)
(25.1637 -9.07039e-05 0)
(24.8966 -9.07508e-05 0)
(24.6309 -9.07961e-05 0)
(24.3666 -9.08404e-05 0)
(24.1037 -9.08886e-05 0)
(23.8422 -9.0943e-05 0)
(23.5823 -9.09981e-05 0)
(23.3238 -9.10433e-05 0)
(23.0668 -9.10652e-05 0)
(22.8113 -9.10484e-05 0)
(22.5574 -9.09779e-05 0)
(22.305 -9.0844e-05 0)
(22.0543 -9.06392e-05 0)
(21.8051 -9.03554e-05 0)
(21.5575 -8.99822e-05 0)
(21.3115 -8.95048e-05 0)
(21.0672 -8.89032e-05 0)
(20.8245 -8.81531e-05 0)
(20.5834 -8.72271e-05 0)
(20.344 -8.60975e-05 0)
(20.1062 -8.47379e-05 0)
(19.8701 -8.31259e-05 0)
(19.6357 -8.12439e-05 0)
(19.4029 -7.90799e-05 0)
(19.1718 -7.66283e-05 0)
(18.9424 -7.38906e-05 0)
(18.7147 -7.08756e-05 0)
(18.4886 -6.75993e-05 0)
(18.2642 -6.40846e-05 0)
(18.0414 -6.0361e-05 0)
(17.8203 -5.64638e-05 0)
(17.6009 -5.24336e-05 0)
(17.3832 -4.83147e-05 0)
(17.1671 -4.41538e-05 0)
(16.9528 -3.99989e-05 0)
(16.7401 -3.5895e-05 0)
(16.529 -3.18851e-05 0)
(16.3197 -2.80094e-05 0)
(16.112 -2.43035e-05 0)
(15.9061 -2.07975e-05 0)
(15.7018 -1.75146e-05 0)
(15.4993 -1.44714e-05 0)
(15.2984 -1.16774e-05 0)
(15.0993 -9.14113e-06 0)
(14.9019 -6.87142e-06 0)
(14.7062 -4.87306e-06 0)
(14.5122 -3.14441e-06 0)
(14.32 -1.678e-06 0)
(14.1296 -4.48993e-07 0)
(13.9409 6.28618e-07 0)
(13.754 1.52084e-06 0)
(13.5689 2.3223e-06 0)
(13.3855 2.98873e-06 0)
(13.204 3.53423e-06 0)
(13.0242 3.97696e-06 0)
(12.8463 4.33422e-06 0)
(12.6701 4.61996e-06 0)
(12.4958 4.84728e-06 0)
(12.3233 5.02694e-06 0)
(12.1526 5.16892e-06 0)
(11.9838 5.28093e-06 0)
(11.8168 5.36954e-06 0)
(11.6516 5.43963e-06 0)
(11.4882 5.49565e-06 0)
(11.3267 5.54102e-06 0)
(11.167 5.57873e-06 0)
(11.0091 5.61034e-06 0)
(10.853 5.63746e-06 0)
(10.6987 5.66028e-06 0)
(10.5462 5.6812e-06 0)
(10.3955 5.6999e-06 0)
(10.2466 5.7186e-06 0)
(10.0994 5.73609e-06 0)
(9.95408 5.75339e-06 0)
(9.81048 5.76981e-06 0)
(9.66864 5.78584e-06 0)
(9.52854 5.80166e-06 0)
(9.3902 5.8178e-06 0)
(9.25359 5.83388e-06 0)
(9.11871 5.85074e-06 0)
(8.98557 5.86616e-06 0)
(8.85414 5.88235e-06 0)
(8.72444 5.89677e-06 0)
(8.59646 5.91153e-06 0)
(8.47019 5.9262e-06 0)
(8.34563 5.94096e-06 0)
(8.22278 5.95505e-06 0)
(8.10163 5.97066e-06 0)
(7.98219 5.98454e-06 0)
(7.86445 6.00007e-06 0)
(7.74841 6.01405e-06 0)
(7.63407 6.02848e-06 0)
(7.52142 6.0412e-06 0)
(7.41047 6.05468e-06 0)
(7.30121 6.06702e-06 0)
(7.19364 6.08109e-06 0)
(7.08776 6.09261e-06 0)
(6.98356 6.10836e-06 0)
(6.88105 6.11856e-06 0)
(6.78021 6.13452e-06 0)
(6.68105 6.14225e-06 0)
(6.58356 6.16119e-06 0)
(6.48773 6.16897e-06 0)
(6.39356 6.18645e-06 0)
(6.30104 6.19318e-06 0)
(6.21016 6.21422e-06 0)
(6.1209 6.21861e-06 0)
(6.03327 6.24055e-06 0)
(5.94724 6.2387e-06 0)
(5.86279 6.26855e-06 0)
(5.77992 6.2593e-06 0)
(5.6986 6.30024e-06 0)
(5.61882 6.27294e-06 0)
(5.54056 6.33622e-06 0)
(5.4638 6.27752e-06 0)
(5.38852 6.3881e-06 0)
(5.3147 6.25308e-06 0)
(5.24234 6.48378e-06 0)
(5.17142 6.15225e-06 0)
(5.10192 6.69536e-06 0)
(5.03385 5.87669e-06 0)
(4.9672 7.08138e-06 0)
(4.90196 4.96848e-06 0)
(4.83812 7.99622e-06 0)
(4.77572 3.34949e-06 0)
(4.71469 9.3538e-06 0)
(4.65509 2.00078e-06 0)
(4.59685 1.02757e-05 0)
(4.54002 1.45033e-06 0)
(4.4845 1.06572e-05 0)
(4.43035 8.74748e-07 0)
(4.37743 1.15501e-05 0)
(4.32581 2.4689e-08 0)
(4.27533 1.38976e-05 0)
(4.22606 -1.15353e-06 0)
(4.17781 1.26142e-05 0)
(4.13065 -7.40697e-06 0)
(4.084 -9.74657e-05 0)
(4.0347 -0.0008954 0)
(3.98296 -1.91431e-05 0)
(3.73796 -0.0109043 0)
(42.5808 -9.71241e-05 0)
(42.286 -8.97509e-05 0)
(41.9396 -8.83057e-05 0)
(41.613 -8.98992e-05 0)
(41.3037 -9.12968e-05 0)
(40.9972 -9.23801e-05 0)
(40.6884 -9.32982e-05 0)
(40.3784 -9.40663e-05 0)
(40.0685 -9.4694e-05 0)
(39.759 -9.52009e-05 0)
(39.4497 -9.56044e-05 0)
(39.1406 -9.59206e-05 0)
(38.8318 -9.61648e-05 0)
(38.5232 -9.63465e-05 0)
(38.215 -9.64908e-05 0)
(37.9071 -9.65959e-05 0)
(37.5995 -9.66636e-05 0)
(37.2923 -9.67176e-05 0)
(36.9856 -9.67563e-05 0)
(36.6792 -9.67862e-05 0)
(36.3734 -9.6808e-05 0)
(36.068 -9.68261e-05 0)
(35.7632 -9.68415e-05 0)
(35.4589 -9.68548e-05 0)
(35.1552 -9.6867e-05 0)
(34.8521 -9.68801e-05 0)
(34.5496 -9.68902e-05 0)
(34.2478 -9.69034e-05 0)
(33.9466 -9.69146e-05 0)
(33.6461 -9.69257e-05 0)
(33.3463 -9.69394e-05 0)
(33.0473 -9.69499e-05 0)
(32.749 -9.69639e-05 0)
(32.4515 -9.69765e-05 0)
(32.1547 -9.69898e-05 0)
(31.8588 -9.70052e-05 0)
(31.5637 -9.70193e-05 0)
(31.2694 -9.70345e-05 0)
(30.976 -9.70529e-05 0)
(30.6835 -9.70695e-05 0)
(30.3919 -9.70873e-05 0)
(30.1012 -9.71079e-05 0)
(29.8115 -9.71321e-05 0)
(29.5227 -9.71582e-05 0)
(29.235 -9.71852e-05 0)
(28.9482 -9.72151e-05 0)
(28.6624 -9.72393e-05 0)
(28.3777 -9.7267e-05 0)
(28.0941 -9.72942e-05 0)
(27.8116 -9.73293e-05 0)
(27.5302 -9.73751e-05 0)
(27.2499 -9.74291e-05 0)
(26.9708 -9.74892e-05 0)
(26.6928 -9.75521e-05 0)
(26.4161 -9.76117e-05 0)
(26.1406 -9.76661e-05 0)
(25.8663 -9.77186e-05 0)
(25.5934 -9.77711e-05 0)
(25.3217 -9.78232e-05 0)
(25.0514 -9.78764e-05 0)
(24.7824 -9.79299e-05 0)
(24.5148 -9.79824e-05 0)
(24.2485 -9.80337e-05 0)
(23.9837 -9.8087e-05 0)
(23.7204 -9.81438e-05 0)
(23.4585 -9.81999e-05 0)
(23.1981 -9.82461e-05 0)
(22.9392 -9.82702e-05 0)
(22.6818 -9.82574e-05 0)
(22.426 -9.81933e-05 0)
(22.1717 -9.80664e-05 0)
(21.9191 -9.78674e-05 0)
(21.668 -9.75864e-05 0)
(21.4185 -9.72113e-05 0)
(21.1707 -9.67258e-05 0)
(20.9244 -9.61092e-05 0)
(20.6799 -9.53364e-05 0)
(20.437 -9.43795e-05 0)
(20.1958 -9.32098e-05 0)
(19.9562 -9.18002e-05 0)
(19.7184 -9.01268e-05 0)
(19.4822 -8.81702e-05 0)
(19.2478 -8.59167e-05 0)
(19.015 -8.3359e-05 0)
(18.784 -8.04971e-05 0)
(18.5547 -7.73386e-05 0)
(18.3272 -7.38988e-05 0)
(18.1014 -7.02007e-05 0)
(17.8773 -6.62742e-05 0)
(17.655 -6.21559e-05 0)
(17.4345 -5.78879e-05 0)
(17.2157 -5.3517e-05 0)
(16.9986 -4.90929e-05 0)
(16.7834 -4.46667e-05 0)
(16.5699 -4.02866e-05 0)
(16.3581 -3.59989e-05 0)
(16.1481 -3.18464e-05 0)
(15.9399 -2.78673e-05 0)
(15.7335 -2.4094e-05 0)
(15.5288 -2.05522e-05 0)
(15.3259 -1.72609e-05 0)
(15.1248 -1.42327e-05 0)
(14.9255 -1.14741e-05 0)
(14.7279 -8.98404e-06 0)
(14.5321 -6.75263e-06 0)
(14.338 -4.7609e-06 0)
(14.1458 -2.98e-06 0)
(13.9553 -1.35521e-06 0)
(13.7666 8.30984e-08 0)
(13.5798 9.97626e-07 0)
(13.3947 1.78732e-06 0)
(13.2114 2.45124e-06 0)
(13.0299 3.00163e-06 0)
(12.8502 3.45324e-06 0)
(12.6724 3.82019e-06 0)
(12.4963 4.11543e-06 0)
(12.3221 4.35089e-06 0)
(12.1497 4.53749e-06 0)
(11.9792 4.6848e-06 0)
(11.8105 4.80094e-06 0)
(11.6436 4.89251e-06 0)
(11.4785 4.96467e-06 0)
(11.3152 5.02204e-06 0)
(11.1538 5.06825e-06 0)
(10.9942 5.10629e-06 0)
(10.8364 5.13813e-06 0)
(10.6805 5.16501e-06 0)
(10.5263 5.18792e-06 0)
(10.3739 5.20831e-06 0)
(10.2234 5.22705e-06 0)
(10.0746 5.24509e-06 0)
(9.92756 5.26248e-06 0)
(9.78232 5.27929e-06 0)
(9.63884 5.29549e-06 0)
(9.49713 5.31126e-06 0)
(9.35716 5.32688e-06 0)
(9.21894 5.34274e-06 0)
(9.08245 5.35889e-06 0)
(8.9477 5.37524e-06 0)
(8.81468 5.39126e-06 0)
(8.68339 5.40684e-06 0)
(8.55381 5.42193e-06 0)
(8.42595 5.43686e-06 0)
(8.29981 5.45179e-06 0)
(8.17538 5.46694e-06 0)
(8.05265 5.48214e-06 0)
(7.93163 5.4976e-06 0)
(7.81232 5.51307e-06 0)
(7.69471 5.52888e-06 0)
(7.5788 5.54443e-06 0)
(7.46458 5.55957e-06 0)
(7.35206 5.57406e-06 0)
(7.24124 5.5885e-06 0)
(7.13211 5.60296e-06 0)
(7.02467 5.61765e-06 0)
(6.91892 5.63254e-06 0)
(6.81485 5.64777e-06 0)
(6.71247 5.66252e-06 0)
(6.61176 5.67735e-06 0)
(6.51273 5.69167e-06 0)
(6.41537 5.70693e-06 0)
(6.31967 5.7217e-06 0)
(6.22563 5.7373e-06 0)
(6.13323 5.75222e-06 0)
(6.04248 5.76811e-06 0)
(5.95336 5.78237e-06 0)
(5.86585 5.79762e-06 0)
(5.77995 5.8111e-06 0)
(5.69564 5.8276e-06 0)
(5.6129 5.84107e-06 0)
(5.53171 5.85851e-06 0)
(5.45207 5.87018e-06 0)
(5.37394 5.88875e-06 0)
(5.29731 5.89766e-06 0)
(5.22216 5.91973e-06 0)
(5.14848 5.9237e-06 0)
(5.07625 5.95525e-06 0)
(5.00546 5.94429e-06 0)
(4.93609 6.00086e-06 0)
(4.86816 5.94922e-06 0)
(4.80163 6.06539e-06 0)
(4.73653 5.84573e-06 0)
(4.67283 6.28597e-06 0)
(4.61055 5.72277e-06 0)
(4.54966 6.6669e-06 0)
(4.4902 5.74248e-06 0)
(4.43209 6.89062e-06 0)
(4.37539 5.92089e-06 0)
(4.32 6.94405e-06 0)
(4.26599 6.04372e-06 0)
(4.2132 6.92204e-06 0)
(4.16172 6.09287e-06 0)
(4.11137 7.25428e-06 0)
(4.06224 6.07926e-06 0)
(4.01413 6.89041e-06 0)
(3.96711 8.89082e-06 0)
(3.92066 2.27241e-05 0)
(3.87251 0.000226427 0)
(3.82676 0.00911524 0)
(4.04622 0.01956 0)
(3.3485 0.128939 -3.64195e-15)
(3.2853 0.355819 7.28278e-15)
(3.33011 0.612065 -1.3648e-14)
(3.40562 0.891619 2.81902e-14)
(3.39619 1.1663 -2.90974e-14)
(3.24746 1.36925 -1.81853e-15)
(2.9759 1.49482 -1.30662e-20)
(2.82546 1.6797 -2.54666e-14)
(3.08216 2.20806 -1.1786e-13)
(3.66715 3.16063 1.15499e-13)
(4.18452 4.32092 -2.87648e-14)
(4.21874 5.13097 -5.93106e-14)
(3.73579 5.20143 3.05562e-14)
(2.96845 4.72474 0)
(2.14145 3.86691 2.89349e-14)
(1.42554 2.78795 2.90726e-14)
(1.02032 2.34838 -2.91894e-14)
(0.828976 2.92936 2.91093e-14)
(0.68912 3.9658 2.26542e-16)
(0.484615 5.10609 -2.25037e-16)
(3.73295 0.175718 0)
(3.73223 0.441565 0)
(3.79144 0.755229 -1.86204e-15)
(3.86832 1.11804 -3.72121e-15)
(3.84188 1.57459 9.30292e-15)
(3.63453 1.98538 1.86009e-14)
(3.26591 2.25233 0)
(3.03876 2.26789 1.11714e-14)
(3.27773 2.31696 1.8559e-14)
(3.79528 2.81618 -4.43394e-14)
(4.21666 3.8978 2.94428e-14)
(4.03734 5.40978 1.47186e-14)
(3.32217 6.20482 -1.47053e-14)
(2.33663 6.27772 1.47011e-14)
(1.24569 5.77204 0)
(0.293228 4.57072 -1.84982e-15)
(0.147868 3.29956 1.86319e-15)
(0.598627 3.0539 -6.52382e-15)
(0.642649 3.53274 -9.3002e-16)
(0.794355 3.96238 0)
(3.9611 -0.0329499 -4.9796e-17)
(3.97684 -0.0905476 -2.52941e-14)
(4.02435 -0.168647 2.56917e-14)
(4.10628 -0.263999 -2.46971e-14)
(4.23434 -0.364641 -2.70899e-14)
(4.40727 -0.421803 1.0079e-13)
(4.60014 -0.392744 -5.09895e-14)
(4.75283 -0.254729 4.94007e-14)
(4.8201 -0.0627217 -1.00411e-13)
(4.89894 0.0182455 1.59471e-15)
(5.16533 -0.102999 4.94756e-14)
(5.65317 -0.261528 0)
(6.08178 -0.129893 -4.95306e-14)
(6.27451 0.293456 4.95178e-14)
(6.25957 0.876799 -3.99125e-16)
(6.10826 1.51587 0)
(5.71165 2.16654 3.98877e-16)
(4.8731 2.72096 0)
(3.95152 3.06548 0)
(3.41607 3.23978 0)
(3.66488 0.16852 8.35352e-16)
(3.57558 0.477877 -8.35575e-15)
(3.50313 0.841282 -1.67049e-15)
(3.4482 1.21432 3.33854e-15)
(3.40304 1.58886 -3.33527e-15)
(3.35599 1.96365 -5.73076e-21)
(3.29675 2.33748 -1.3309e-14)
(3.21676 2.7097 0)
(3.10905 3.0804 0)
(2.9668 3.44821 -6.62864e-15)
(2.78076 3.80785 6.62141e-15)
(2.54235 4.1503 0)
(2.25821 4.46604 -6.60951e-15)
(1.94515 4.75703 6.6032e-15)
(1.6124 5.03131 -6.59623e-15)
(1.2605 5.29125 1.31778e-14)
(0.888299 5.53137 -6.58114e-15)
(0.491783 5.75237 0)
(0.0639112 5.969 -3.28079e-15)
(-0.380274 6.19787 0)
(4.10095 0.19812 -1.30809e-15)
(4.14644 0.473404 1.00262e-14)
(4.13992 0.773211 6.97128e-15)
(4.12564 1.0786 1.39327e-14)
(4.11867 1.39981 0)
(4.10806 1.74361 0)
(4.08207 2.10937 1.38915e-14)
(4.034 2.49528 3.4686e-15)
(3.96013 2.89856 -6.92801e-15)
(3.85729 3.31112 3.45932e-15)
(3.71901 3.71896 2.76396e-14)
(3.53592 4.10999 -1.72555e-14)
(3.30198 4.48279 1.72379e-14)
(3.02018 4.8426 -3.44406e-15)
(2.69701 5.19399 -1.37614e-14)
(2.33538 5.53901 -2.40541e-14)
(1.93282 5.88099 -1.20107e-14)
(1.48786 6.22726 -1.71295e-15)
(1.01331 6.57391 9.83109e-15)
(0.56358 6.86354 4.27093e-16)
(0.138915 10.181 0)
(0.235318 11.8854 0)
(0.279771 10.2646 0)
(0.237664 9.56225 0)
(0.150901 12.053 0)
(0.308217 14.6104 0)
(0.408805 14.3684 0)
(0.399149 13.4594 0)
(0.273016 15.0583 0)
(0.467722 16.9716 0)
(0.518609 15.9711 0)
(0.493324 14.4865 0)
(0.262358 16.5663 0)
(0.500071 19.6733 0)
(0.596718 19.1711 0)
(0.581722 16.1573 0)
(0.496375 13.2793 0)
(0.152442 16.135 0)
(0.370587 21.7499 0)
(0.614531 22.6201 0)
(0.655532 19.7453 0)
(0.565384 14.7107 0)
(0.392048 11.8763 0)
(0.0706867 17.1341 0)
(0.365827 24.0626 0)
(0.687485 25.1086 0)
(0.754965 21.7982 0)
(0.721308 17.0693 0)
(0.427429 16.427 0)
(0.317783 21.8843 0)
(0.731002 25.3756 0)
(0.90221 24.5845 0)
(0.967282 23.0288 0)
(1.0027 22.0406 0)
(1.02492 21.4882 0)
(1.03541 21.1606 0)
(1.03484 20.9016 0)
(1.01876 20.5246 0)
(0.973593 19.6044 0)
(0.897117 17.0891 0)
(0.780103 13.1393 0)
(0.313841 14.6625 0)
(0.290175 21.8846 0)
(0.765649 25.2972 0)
(0.929504 24.1333 0)
(0.991265 22.4955 0)
(1.02436 21.5334 0)
(1.04369 21.0287 0)
(1.05255 20.7627 0)
(1.05559 20.6152 0)
(1.05605 20.5249 0)
(1.05543 20.4622 0)
(1.05424 20.413 0)
(1.0527 20.3705 0)
(1.05091 20.3316 0)
(1.04892 20.2946 0)
(1.04678 20.2587 0)
(1.0445 20.2238 0)
(1.04219 20.1901 0)
(1.03997 20.1581 0)
(1.03785 20.1275 0)
(1.03584 20.0978 0)
(1.03395 20.0688 0)
(1.03216 20.0401 0)
(1.03046 20.0116 0)
(1.02882 19.9831 0)
(1.02722 19.9547 0)
(1.02562 19.9262 0)
(1.02398 19.8976 0)
(1.02226 19.869 0)
(1.02039 19.8404 0)
(1.01833 19.8117 0)
(1.016 19.7832 0)
(1.01332 19.7548 0)
(1.01019 19.7266 0)
(1.00651 19.6988 0)
(1.00213 19.6715 0)
(0.996885 19.6446 0)
(0.99058 19.6181 0)
(0.982997 19.5918 0)
(0.973887 19.5656 0)
(0.962975 19.5388 0)
(0.949953 19.5106 0)
(0.934476 19.4798 0)
(0.916134 19.4441 0)
(0.894437 19.3999 0)
(0.868726 19.3408 0)
(0.83815 19.2534 0)
(0.801882 19.1091 0)
(0.760066 18.8462 0)
(0.715167 18.3451 0)
(0.669272 17.4291 0)
(0.609327 15.9601 0)
(0.515471 14.5889 0)
(0.306788 15.3912 0)
(0.22385 18.6231 0)