/*--------------------------------*- C++ -*----------------------------------*\
| =========                 |                                                 |
| \\      /  F ield         | OpenFOAM: The Open Source CFD Toolbox           |
|  \\    /   O peration     | Version:  3.0.x                                 |
|   \\  /    A nd           | Web:      www.OpenFOAM.org                      |
|    \\/     M anipulation  |                                                 |
\*---------------------------------------------------------------------------*/
FoamFile
{
    version     2.0;
    format      ascii;
    class       volScalarField;
    location    "0.23";
    object      rho;
}
// * * * * * * * * * * * * * * * * * * * * * * * * * * * * * * * * * * * * * //

dimensions      [1 -3 0 0 0 0 0];

internalField   nonuniform List<scalar> 
6900
(
50.8123
50.8124
50.8125
50.8127
50.8129
50.8131
50.8134
50.8138
50.8144
50.8149
50.8155
50.8162
50.8169
50.8176
50.8184
50.8192
50.8199
50.8207
50.8214
50.8221
50.8228
50.8235
50.8243
50.8252
50.8261
50.8271
50.828
50.8289
50.8297
50.8305
50.8313
50.832
50.8327
50.8334
50.834
50.8347
50.8353
50.8359
50.8365
50.8371
50.8377
50.8382
50.8388
50.8393
50.8398
50.8403
50.8409
50.8414
50.8419
50.8424
50.8429
50.8434
50.844
50.8445
50.845
50.8455
50.8461
50.8466
50.8471
50.8477
50.8482
50.8487
50.8493
50.8498
50.8503
50.8508
50.8513
50.8517
50.8522
50.8526
50.853
50.8534
50.8538
50.8541
50.8544
50.8547
50.855
50.8552
50.8554
50.8556
50.8558
50.8559
50.856
50.8561
50.8562
50.8562
50.8562
50.8562
50.8562
50.8561
50.8561
50.856
50.8559
50.8558
50.8556
50.8554
50.8552
50.855
50.8548
50.8545
50.8542
50.8539
50.8535
50.8532
50.8528
50.8524
50.8519
50.8515
50.851
50.8505
50.85
50.8495
50.849
50.8485
50.8479
50.8474
50.8468
50.8463
50.8458
50.8452
50.8447
50.8442
50.8437
50.8432
50.8428
50.8423
50.8418
50.8414
50.8409
50.8405
50.8401
50.8397
50.8392
50.8388
50.8384
50.8379
50.8374
50.8369
50.8364
50.8359
50.8353
50.8347
50.8341
50.8334
50.8328
50.8321
50.8313
50.8306
50.8299
50.8291
50.8283
50.8275
50.8267
50.8259
50.8251
50.8243
50.8234
50.8226
50.8219
50.8211
50.8203
50.8196
50.8189
50.8182
50.8176
50.8169
50.8163
50.8157
50.8152
50.8146
50.8141
50.8136
50.813
50.8125
50.8119
50.8113
50.8107
50.8101
50.8094
50.8087
50.808
50.8073
50.8066
50.8059
50.8052
50.8044
50.8037
50.803
50.8022
50.8015
50.8007
50.7999
50.7992
50.7984
50.7977
50.7969
50.7963
50.7956
50.7954
50.792
50.8124
50.8125
50.8126
50.8128
50.813
50.8132
50.8135
50.8139
50.8145
50.815
50.8156
50.8163
50.817
50.8177
50.8185
50.8193
50.82
50.8208
50.8215
50.8222
50.8229
50.8236
50.8244
50.8253
50.8262
50.8272
50.8281
50.8289
50.8298
50.8306
50.8313
50.8321
50.8328
50.8335
50.8341
50.8348
50.8354
50.836
50.8366
50.8372
50.8377
50.8383
50.8388
50.8394
50.8399
50.8404
50.8409
50.8414
50.842
50.8425
50.843
50.8435
50.844
50.8445
50.8451
50.8456
50.8461
50.8467
50.8472
50.8477
50.8483
50.8488
50.8493
50.8499
50.8504
50.8509
50.8513
50.8518
50.8522
50.8527
50.8531
50.8535
50.8538
50.8542
50.8545
50.8548
50.855
50.8553
50.8555
50.8557
50.8558
50.856
50.8561
50.8562
50.8562
50.8563
50.8563
50.8563
50.8563
50.8562
50.8562
50.8561
50.856
50.8558
50.8557
50.8555
50.8553
50.8551
50.8549
50.8546
50.8543
50.854
50.8536
50.8532
50.8529
50.8524
50.852
50.8516
50.8511
50.8506
50.8501
50.8496
50.8491
50.8485
50.848
50.8475
50.8469
50.8464
50.8458
50.8453
50.8448
50.8443
50.8438
50.8433
50.8428
50.8424
50.8419
50.8415
50.841
50.8406
50.8402
50.8397
50.8393
50.8389
50.8384
50.838
50.8375
50.837
50.8365
50.8359
50.8354
50.8348
50.8341
50.8335
50.8328
50.8321
50.8314
50.8307
50.8299
50.8291
50.8284
50.8276
50.8268
50.826
50.8251
50.8243
50.8235
50.8227
50.8219
50.8212
50.8204
50.8197
50.819
50.8183
50.8176
50.817
50.8164
50.8158
50.8153
50.8147
50.8142
50.8136
50.8131
50.8125
50.812
50.8114
50.8108
50.8101
50.8095
50.8088
50.8081
50.8074
50.8067
50.8059
50.8052
50.8045
50.8038
50.803
50.8023
50.8015
50.8008
50.8
50.7993
50.7985
50.7978
50.797
50.7964
50.7957
50.7954
50.7924
50.8124
50.8125
50.8126
50.8128
50.813
50.8132
50.8135
50.8139
50.8145
50.815
50.8156
50.8163
50.817
50.8177
50.8185
50.8193
50.82
50.8208
50.8215
50.8222
50.8229
50.8236
50.8244
50.8253
50.8262
50.8272
50.8281
50.8289
50.8298
50.8306
50.8313
50.8321
50.8328
50.8334
50.8341
50.8348
50.8354
50.836
50.8366
50.8372
50.8377
50.8383
50.8388
50.8394
50.8399
50.8404
50.8409
50.8414
50.842
50.8425
50.843
50.8435
50.844
50.8445
50.8451
50.8456
50.8461
50.8467
50.8472
50.8477
50.8483
50.8488
50.8493
50.8499
50.8504
50.8509
50.8513
50.8518
50.8522
50.8527
50.8531
50.8535
50.8538
50.8542
50.8545
50.8548
50.855
50.8553
50.8555
50.8557
50.8558
50.856
50.8561
50.8562
50.8562
50.8563
50.8563
50.8563
50.8563
50.8562
50.8562
50.8561
50.856
50.8558
50.8557
50.8555
50.8553
50.8551
50.8549
50.8546
50.8543
50.854
50.8536
50.8532
50.8529
50.8524
50.852
50.8516
50.8511
50.8506
50.8501
50.8496
50.8491
50.8485
50.848
50.8475
50.8469
50.8464
50.8458
50.8453
50.8448
50.8443
50.8438
50.8433
50.8428
50.8424
50.8419
50.8415
50.841
50.8406
50.8402
50.8397
50.8393
50.8389
50.8384
50.838
50.8375
50.837
50.8365
50.8359
50.8354
50.8348
50.8341
50.8335
50.8328
50.8321
50.8314
50.8307
50.8299
50.8291
50.8284
50.8276
50.8268
50.826
50.8251
50.8243
50.8235
50.8227
50.8219
50.8212
50.8204
50.8197
50.819
50.8183
50.8176
50.817
50.8164
50.8158
50.8153
50.8147
50.8142
50.8136
50.8131
50.8125
50.812
50.8114
50.8108
50.8101
50.8095
50.8088
50.8081
50.8074
50.8067
50.8059
50.8052
50.8045
50.8038
50.803
50.8023
50.8015
50.8008
50.8
50.7993
50.7985
50.7978
50.797
50.7963
50.7956
50.7951
50.7944
50.8124
50.8125
50.8126
50.8128
50.813
50.8132
50.8135
50.8139
50.8145
50.815
50.8156
50.8163
50.817
50.8177
50.8185
50.8193
50.82
50.8208
50.8215
50.8222
50.8229
50.8236
50.8244
50.8253
50.8262
50.8272
50.8281
50.8289
50.8298
50.8306
50.8313
50.8321
50.8328
50.8335
50.8341
50.8348
50.8354
50.836
50.8366
50.8372
50.8377
50.8383
50.8388
50.8394
50.8399
50.8404
50.8409
50.8414
50.842
50.8425
50.843
50.8435
50.844
50.8445
50.8451
50.8456
50.8461
50.8467
50.8472
50.8477
50.8483
50.8488
50.8493
50.8499
50.8504
50.8509
50.8513
50.8518
50.8522
50.8527
50.8531
50.8535
50.8538
50.8542
50.8545
50.8548
50.855
50.8553
50.8555
50.8557
50.8558
50.856
50.8561
50.8562
50.8562
50.8563
50.8563
50.8563
50.8563
50.8562
50.8562
50.8561
50.856
50.8558
50.8557
50.8555
50.8553
50.8551
50.8549
50.8546
50.8543
50.854
50.8536
50.8532
50.8529
50.8524
50.852
50.8516
50.8511
50.8506
50.8501
50.8496
50.8491
50.8485
50.848
50.8475
50.8469
50.8464
50.8458
50.8453
50.8448
50.8443
50.8438
50.8433
50.8428
50.8424
50.8419
50.8415
50.841
50.8406
50.8402
50.8397
50.8393
50.8389
50.8384
50.838
50.8375
50.837
50.8365
50.8359
50.8354
50.8348
50.8341
50.8335
50.8328
50.8321
50.8314
50.8307
50.8299
50.8291
50.8284
50.8276
50.8268
50.826
50.8251
50.8243
50.8235
50.8227
50.8219
50.8212
50.8204
50.8197
50.819
50.8183
50.8176
50.817
50.8164
50.8158
50.8152
50.8147
50.8142
50.8136
50.8131
50.8125
50.812
50.8114
50.8108
50.8101
50.8095
50.8088
50.8081
50.8074
50.8067
50.806
50.8052
50.8045
50.8038
50.803
50.8023
50.8015
50.8008
50.8
50.7992
50.7985
50.7977
50.7971
50.7963
50.7958
50.7942
50.7995
50.8123
50.8124
50.8125
50.8127
50.8129
50.8131
50.8134
50.8138
50.8144
50.8149
50.8155
50.8162
50.8169
50.8176
50.8184
50.8192
50.8199
50.8207
50.8214
50.8221
50.8228
50.8235
50.8243
50.8252
50.8261
50.8271
50.828
50.8289
50.8297
50.8305
50.8313
50.832
50.8327
50.8334
50.834
50.8347
50.8353
50.8359
50.8365
50.8371
50.8377
50.8382
50.8388
50.8393
50.8398
50.8403
50.8409
50.8414
50.8419
50.8424
50.8429
50.8434
50.844
50.8445
50.845
50.8455
50.8461
50.8466
50.8471
50.8477
50.8482
50.8487
50.8493
50.8498
50.8503
50.8508
50.8513
50.8517
50.8522
50.8526
50.853
50.8534
50.8538
50.8541
50.8544
50.8547
50.855
50.8552
50.8554
50.8556
50.8558
50.8559
50.856
50.8561
50.8562
50.8562
50.8562
50.8562
50.8562
50.8561
50.8561
50.856
50.8559
50.8558
50.8556
50.8554
50.8552
50.855
50.8548
50.8545
50.8542
50.8539
50.8535
50.8532
50.8528
50.8524
50.8519
50.8515
50.851
50.8505
50.85
50.8495
50.849
50.8485
50.8479
50.8474
50.8468
50.8463
50.8458
50.8452
50.8447
50.8442
50.8437
50.8432
50.8428
50.8423
50.8418
50.8414
50.8409
50.8405
50.8401
50.8397
50.8392
50.8388
50.8384
50.8379
50.8374
50.8369
50.8364
50.8359
50.8353
50.8347
50.8341
50.8334
50.8328
50.8321
50.8313
50.8306
50.8299
50.8291
50.8283
50.8275
50.8267
50.8259
50.8251
50.8243
50.8234
50.8226
50.8219
50.8211
50.8203
50.8196
50.8189
50.8182
50.8176
50.8169
50.8163
50.8157
50.8152
50.8146
50.8141
50.8136
50.813
50.8125
50.8119
50.8113
50.8107
50.8101
50.8094
50.8087
50.808
50.8073
50.8066
50.8059
50.8052
50.8044
50.8037
50.803
50.8022
50.8015
50.8007
50.8
50.7992
50.7985
50.7977
50.797
50.7962
50.7957
50.7936
50.8048
50.8093
50.8157
50.8162
50.8143
50.8124
50.8105
50.8086
50.8076
50.809
50.8087
50.8038
50.7937
50.7839
50.7764
50.7693
50.7633
50.7627
50.7716
50.7825
50.78
50.8059
50.8091
50.8087
50.8069
50.8051
50.8033
50.8014
50.8006
50.8023
50.8018
50.7957
50.7849
50.7756
50.7685
50.7618
50.7565
50.7561
50.7672
50.7758
50.7699
50.7949
50.7947
50.7936
50.7914
50.7886
50.7852
50.781
50.7759
50.7696
50.763
50.7563
50.7498
50.7422
50.7332
50.7234
50.7129
50.7013
50.6881
50.6756
50.6646
50.7729
50.77
50.7707
50.772
50.7709
50.7672
50.7621
50.7552
50.7493
50.742
50.7355
50.7286
50.7223
50.7159
50.7101
50.7052
50.701
50.6971
50.6944
50.6921
50.7635
50.7517
50.7473
50.7465
50.7443
50.7394
50.7331
50.7251
50.7178
50.7092
50.7013
50.693
50.6854
50.6778
50.6713
50.665
50.6599
50.6553
50.6518
50.65
50.7019
50.6752
50.6862
50.6891
50.6816
50.6778
50.6774
50.6771
50.6764
50.6755
50.6749
50.6744
50.6739
50.6733
50.6727
50.6722
50.6716
50.671
50.6705
50.6699
50.6694
50.669
50.6685
50.668
50.6675
50.6671
50.6668
50.6665
50.6659
50.6653
50.6647
50.6641
50.6636
50.6631
50.6629
50.6628
50.6629
50.6622
50.6611
50.6601
50.6596
50.6593
50.659
50.6588
50.6587
50.6586
50.6585
50.6579
50.6548
50.6418
50.6238
50.6154
50.6145
50.6196
50.6382
50.6547
50.6628
50.6653
50.6651
50.6639
50.6616
50.6599
50.6587
50.6577
50.6569
50.6562
50.6556
50.6551
50.6545
50.654
50.6536
50.6531
50.6527
50.6523
50.6519
50.6516
50.6512
50.6509
50.6505
50.6502
50.6499
50.6496
50.6493
50.6491
50.6488
50.6485
50.6483
50.648
50.6478
50.6475
50.6473
50.6471
50.6468
50.6466
50.6464
50.6462
50.646
50.6458
50.6456
50.6454
50.6452
50.645
50.6448
50.6447
50.6445
50.6444
50.6443
50.6442
50.6441
50.644
50.6439
50.6438
50.6438
50.6437
50.6437
50.6437
50.6437
50.6437
50.6438
50.6438
50.6439
50.644
50.644
50.6441
50.6442
50.6443
50.6444
50.6444
50.6445
50.6446
50.6446
50.6447
50.6447
50.6447
50.6447
50.6447
50.6447
50.6446
50.6446
50.6445
50.6444
50.6443
50.6441
50.644
50.6439
50.6437
50.6436
50.6434
50.6433
50.6431
50.6429
50.6428
50.6426
50.6425
50.6423
50.6422
50.6421
50.642
50.642
50.6419
50.6419
50.6419
50.6419
50.6419
50.642
50.6421
50.6422
50.6424
50.6425
50.6427
50.6429
50.643
50.6432
50.6434
50.6436
50.6437
50.6439
50.644
50.6441
50.6441
50.6441
50.6441
50.6441
50.644
50.6438
50.6437
50.6435
50.6432
50.643
50.6427
50.6424
50.6421
50.6417
50.6414
50.641
50.6406
50.6401
50.6398
50.6381
50.6459
50.697
50.6746
50.686
50.6883
50.6808
50.677
50.6764
50.6759
50.6752
50.6744
50.6738
50.6733
50.6727
50.6721
50.6715
50.671
50.6704
50.6698
50.6693
50.6688
50.6684
50.6679
50.6673
50.6669
50.6665
50.666
50.6655
50.6651
50.6645
50.6638
50.6632
50.6626
50.6621
50.6617
50.6613
50.661
50.6607
50.6599
50.6589
50.6582
50.6577
50.6575
50.6573
50.6571
50.657
50.657
50.6568
50.6557
50.6505
50.6391
50.6316
50.6293
50.6299
50.6361
50.6483
50.6563
50.6602
50.6615
50.6615
50.6609
50.66
50.659
50.6582
50.6575
50.6568
50.6562
50.6556
50.6551
50.6546
50.6541
50.6536
50.6532
50.6528
50.6524
50.652
50.6516
50.6513
50.6509
50.6506
50.6503
50.65
50.6497
50.6494
50.6491
50.6489
50.6486
50.6483
50.6481
50.6478
50.6476
50.6474
50.6471
50.6469
50.6467
50.6465
50.6462
50.646
50.6458
50.6456
50.6454
50.6453
50.6451
50.6449
50.6448
50.6446
50.6445
50.6443
50.6442
50.6441
50.644
50.644
50.6439
50.6438
50.6438
50.6438
50.6438
50.6438
50.6438
50.6439
50.6439
50.644
50.644
50.6441
50.6442
50.6443
50.6444
50.6444
50.6445
50.6446
50.6446
50.6447
50.6447
50.6448
50.6448
50.6448
50.6448
50.6447
50.6447
50.6446
50.6445
50.6444
50.6443
50.6442
50.6441
50.6439
50.6438
50.6437
50.6435
50.6433
50.6432
50.643
50.6428
50.6427
50.6426
50.6424
50.6423
50.6422
50.6421
50.642
50.642
50.6419
50.6419
50.6419
50.642
50.6421
50.6422
50.6423
50.6424
50.6426
50.6427
50.6429
50.6431
50.6433
50.6435
50.6437
50.6438
50.6439
50.6441
50.6441
50.6442
50.6442
50.6442
50.6441
50.644
50.6439
50.6437
50.6435
50.6433
50.6431
50.6428
50.6425
50.6422
50.6418
50.6414
50.641
50.6406
50.6402
50.6398
50.6385
50.6415
50.6446
50.6556
50.6623
50.6625
50.661
50.6602
50.6597
50.6594
50.6588
50.6583
50.6577
50.6572
50.6567
50.6562
50.6556
50.6551
50.6546
50.6541
50.6535
50.6529
50.6523
50.6517
50.651
50.6504
50.6498
50.6493
50.6487
50.648
50.6473
50.6466
50.646
50.6455
50.6449
50.6445
50.6443
50.6451
50.6482
50.6518
50.6547
50.6569
50.6582
50.6589
50.6593
50.6594
50.6594
50.6594
50.6592
50.6591
50.6591
50.6591
50.6595
50.66
50.6604
50.6607
50.6607
50.6606
50.6603
50.6599
50.6594
50.6589
50.6585
50.658
50.6575
50.657
50.6565
50.656
50.6555
50.655
50.6545
50.6541
50.6536
50.6532
50.6528
50.6524
50.652
50.6516
50.6513
50.6509
50.6506
50.6503
50.65
50.6497
50.6494
50.6491
50.6489
50.6486
50.6483
50.6481
50.6478
50.6476
50.6474
50.6471
50.6469
50.6467
50.6465
50.6462
50.646
50.6458
50.6456
50.6454
50.6453
50.6451
50.6449
50.6448
50.6446
50.6445
50.6443
50.6442
50.6441
50.644
50.644
50.6439
50.6438
50.6438
50.6438
50.6438
50.6438
50.6438
50.6439
50.6439
50.644
50.644
50.6441
50.6442
50.6443
50.6444
50.6444
50.6445
50.6446
50.6446
50.6447
50.6447
50.6448
50.6448
50.6448
50.6448
50.6447
50.6447
50.6446
50.6445
50.6444
50.6443
50.6442
50.6441
50.6439
50.6438
50.6437
50.6435
50.6433
50.6432
50.643
50.6428
50.6427
50.6426
50.6424
50.6423
50.6422
50.6421
50.642
50.642
50.6419
50.6419
50.6419
50.642
50.6421
50.6422
50.6423
50.6424
50.6426
50.6427
50.6429
50.6431
50.6433
50.6435
50.6437
50.6438
50.644
50.6441
50.6441
50.6442
50.6442
50.6442
50.6441
50.644
50.6439
50.6437
50.6435
50.6433
50.6431
50.6428
50.6425
50.6421
50.6418
50.6414
50.6411
50.6406
50.6402
50.6398
50.6393
50.6388
50.6838
50.6817
50.6807
50.679
50.6777
50.6769
50.6765
50.676
50.6755
50.675
50.6745
50.6739
50.6733
50.6727
50.6722
50.6716
50.671
50.6704
50.6699
50.6694
50.6689
50.6684
50.6679
50.6675
50.6671
50.6666
50.6662
50.6658
50.6653
50.6649
50.6644
50.664
50.6637
50.6633
50.6629
50.6624
50.6618
50.661
50.6603
50.6598
50.6594
50.6588
50.6579
50.6571
50.6566
50.6562
50.6553
50.6528
50.6495
50.6478
50.6474
50.6476
50.6498
50.6548
50.6584
50.6604
50.6611
50.6611
50.6607
50.6601
50.6594
50.6587
50.658
50.6573
50.6567
50.6561
50.6556
50.6551
50.6546
50.6541
50.6536
50.6532
50.6528
50.6524
50.652
50.6516
50.6513
50.6509
50.6506
50.6503
50.65
50.6497
50.6494
50.6491
50.6489
50.6486
50.6483
50.6481
50.6478
50.6476
50.6474
50.6471
50.6469
50.6467
50.6465
50.6462
50.646
50.6458
50.6456
50.6454
50.6453
50.6451
50.6449
50.6448
50.6446
50.6445
50.6443
50.6442
50.6441
50.644
50.644
50.6439
50.6438
50.6438
50.6438
50.6438
50.6438
50.6438
50.6439
50.6439
50.644
50.644
50.6441
50.6442
50.6443
50.6444
50.6444
50.6445
50.6446
50.6446
50.6447
50.6447
50.6448
50.6448
50.6448
50.6448
50.6447
50.6447
50.6446
50.6445
50.6444
50.6443
50.6442
50.6441
50.6439
50.6438
50.6437
50.6435
50.6433
50.6432
50.643
50.6428
50.6427
50.6426
50.6424
50.6423
50.6422
50.6421
50.642
50.642
50.6419
50.6419
50.6419
50.642
50.6421
50.6422
50.6423
50.6424
50.6426
50.6427
50.6429
50.6431
50.6433
50.6435
50.6437
50.6438
50.644
50.6441
50.6441
50.6442
50.6442
50.6442
50.6441
50.644
50.6439
50.6437
50.6435
50.6433
50.6431
50.6428
50.6425
50.6421
50.6418
50.6414
50.6411
50.6406
50.6402
50.6398
50.6397
50.6381
50.6691
50.6729
50.6726
50.6712
50.67
50.6692
50.6688
50.6684
50.6679
50.6674
50.6669
50.6663
50.6657
50.6651
50.6645
50.6639
50.6634
50.6628
50.6623
50.6618
50.6613
50.6608
50.6604
50.66
50.6596
50.6592
50.6587
50.6583
50.6578
50.6574
50.657
50.6566
50.6561
50.6557
50.6552
50.6545
50.6539
50.6533
50.6528
50.6521
50.6514
50.6509
50.6507
50.6507
50.6506
50.6497
50.6448
50.6317
50.6219
50.618
50.6177
50.6204
50.6302
50.6406
50.6479
50.6527
50.6556
50.6572
50.658
50.6582
50.6581
50.6578
50.6574
50.6569
50.6564
50.6559
50.6554
50.6549
50.6544
50.654
50.6535
50.6531
50.6527
50.6523
50.6519
50.6515
50.6512
50.6509
50.6505
50.6502
50.6499
50.6496
50.6493
50.6491
50.6488
50.6485
50.6483
50.648
50.6478
50.6475
50.6473
50.6471
50.6468
50.6466
50.6464
50.6462
50.646
50.6458
50.6456
50.6454
50.6452
50.645
50.6448
50.6447
50.6445
50.6444
50.6443
50.6442
50.6441
50.644
50.6439
50.6438
50.6438
50.6437
50.6437
50.6437
50.6437
50.6437
50.6438
50.6438
50.6439
50.644
50.644
50.6441
50.6442
50.6443
50.6444
50.6444
50.6445
50.6446
50.6446
50.6447
50.6447
50.6447
50.6447
50.6447
50.6447
50.6446
50.6446
50.6445
50.6444
50.6443
50.6441
50.644
50.6439
50.6437
50.6436
50.6434
50.6433
50.6431
50.6429
50.6428
50.6426
50.6425
50.6423
50.6422
50.6421
50.642
50.642
50.6419
50.6419
50.6419
50.6419
50.6419
50.642
50.6421
50.6422
50.6424
50.6425
50.6427
50.6429
50.643
50.6432
50.6434
50.6436
50.6437
50.6439
50.644
50.6441
50.6441
50.6441
50.6441
50.6441
50.644
50.6438
50.6437
50.6435
50.6432
50.643
50.6427
50.6424
50.6421
50.6417
50.6414
50.641
50.6406
50.6402
50.6398
50.6397
50.6379
50.6101
50.5977
50.5931
50.592
50.5896
50.5847
50.578
50.5711
50.5631
50.5553
50.5474
50.5393
50.532
50.5247
50.5183
50.512
50.5066
50.5014
50.4978
50.4959
50.6186
50.6155
50.6159
50.6169
50.6156
50.6119
50.606
50.6007
50.5935
50.5876
50.5807
50.5739
50.5674
50.5619
50.5565
50.5513
50.5468
50.5426
50.5394
50.537
50.6392
50.639
50.6379
50.6358
50.6331
50.6296
50.6254
50.6203
50.615
50.6091
50.6027
50.5951
50.5864
50.577
50.5663
50.5547
50.5437
50.5339
50.5258
50.5173
50.6494
50.6526
50.6524
50.6508
50.6493
50.6481
50.6475
50.647
50.644
50.6373
50.6304
50.6247
50.62
50.617
50.6209
50.6319
50.6374
50.6318
50.6154
50.5941
50.6527
50.6592
50.6597
50.658
50.6564
50.6551
50.6544
50.6538
50.6511
50.645
50.6378
50.6319
50.6269
50.6236
50.6273
50.637
50.6444
50.6417
50.6298
50.6091
50.5176
50.5219
50.5205
50.5188
50.5176
50.5167
50.5161
50.5157
50.5153
50.5149
50.5145
50.5141
50.5137
50.5134
50.513
50.5127
50.5124
50.512
50.5117
50.5113
50.511
50.5107
50.5104
50.5101
50.5098
50.5095
50.5092
50.5089
50.5086
50.5083
50.508
50.5077
50.5074
50.507
50.5066
50.5061
50.5056
50.5051
50.5048
50.5044
50.5038
50.5032
50.5028
50.5027
50.5026
50.5025
50.5015
50.4963
50.4832
50.4736
50.4698
50.4695
50.4721
50.4819
50.492
50.4991
50.5038
50.5067
50.5083
50.509
50.5093
50.5092
50.509
50.5087
50.5083
50.5079
50.5076
50.5072
50.5068
50.5065
50.5061
50.5058
50.5054
50.5051
50.5047
50.5043
50.504
50.5035
50.5031
50.5027
50.5022
50.5017
50.5012
50.5007
50.5002
50.4996
50.4991
50.4985
50.498
50.4974
50.4969
50.4963
50.4958
50.4952
50.4947
50.4941
50.4935
50.4931
50.4914
50.4985
50.5322
50.5306
50.5285
50.5266
50.5253
50.5243
50.5237
50.5231
50.5227
50.5224
50.522
50.5215
50.5211
50.5208
50.5204
50.5201
50.5197
50.5194
50.5191
50.5187
50.5184
50.5181
50.5177
50.5174
50.5172
50.5168
50.5165
50.5162
50.5158
50.5155
50.5152
50.515
50.5148
50.5145
50.5141
50.5137
50.5131
50.5126
50.5121
50.5117
50.5114
50.511
50.5105
50.5095
50.5088
50.5083
50.5079
50.507
50.5045
50.5013
50.4996
50.4991
50.4992
50.5013
50.506
50.5094
50.5114
50.5121
50.5121
50.5118
50.5112
50.5106
50.5099
50.5093
50.5088
50.5083
50.5078
50.5074
50.507
50.5066
50.5062
50.5059
50.5055
50.5052
50.5048
50.5044
50.504
50.5036
50.5032
50.5027
50.5023
50.5018
50.5013
50.5008
50.5002
50.4997
50.4991
50.4986
50.498
50.4975
50.4969
50.4964
50.4958
50.4953
50.4947
50.4942
50.4936
50.4931
50.4918
50.4943
50.4946
50.5036
50.5095
50.51
50.5089
50.508
50.5076
50.5071
50.5067
50.5063
50.5059
50.5055
50.5051
50.5047
50.5044
50.5041
50.5037
50.5034
50.503
50.5026
50.5022
50.5018
50.5013
50.5009
50.5004
50.5
50.4996
50.4992
50.4987
50.4982
50.4976
50.4971
50.4966
50.4962
50.4958
50.4957
50.4967
50.5
50.5034
50.5062
50.5082
50.5095
50.5102
50.5106
50.5107
50.5107
50.5107
50.5106
50.5105
50.5104
50.5104
50.5108
50.5112
50.5115
50.5117
50.5118
50.5116
50.5113
50.5109
50.5105
50.51
50.5096
50.5092
50.5088
50.5084
50.508
50.5076
50.5073
50.5069
50.5066
50.5062
50.5059
50.5055
50.5052
50.5048
50.5044
50.504
50.5036
50.5032
50.5027
50.5023
50.5018
50.5013
50.5008
50.5002
50.4997
50.4991
50.4986
50.498
50.4975
50.4969
50.4964
50.4958
50.4953
50.4947
50.4942
50.4937
50.4931
50.4926
50.492
50.5314
50.5251
50.5389
50.5329
50.5263
50.5247
50.5241
50.5234
50.5224
50.5218
50.5215
50.521
50.5206
50.5202
50.5198
50.5195
50.5191
50.5187
50.5184
50.5181
50.5177
50.5174
50.517
50.5167
50.5165
50.5162
50.5158
50.5154
50.5149
50.5144
50.514
50.5137
50.5134
50.5131
50.5128
50.5127
50.5123
50.5115
50.5107
50.5102
50.5099
50.5097
50.5095
50.5092
50.5089
50.5087
50.5085
50.5081
50.5069
50.5016
50.4906
50.4834
50.4811
50.4815
50.4872
50.4991
50.5071
50.5111
50.5126
50.5126
50.512
50.5112
50.5103
50.5096
50.5089
50.5084
50.5079
50.5074
50.507
50.5066
50.5063
50.5059
50.5055
50.5052
50.5048
50.5044
50.504
50.5036
50.5032
50.5027
50.5023
50.5018
50.5013
50.5008
50.5002
50.4997
50.4991
50.4986
50.498
50.4975
50.4969
50.4964
50.4958
50.4953
50.4948
50.4942
50.4937
50.4932
50.493
50.4915
50.5357
50.5246
50.5392
50.5335
50.5269
50.5256
50.5251
50.5245
50.5234
50.5228
50.5226
50.5222
50.5217
50.5213
50.5209
50.5206
50.5202
50.5199
50.5195
50.5192
50.5189
50.5185
50.5182
50.5178
50.5175
50.5173
50.5171
50.5167
50.5163
50.5159
50.5154
50.515
50.5147
50.5145
50.5144
50.5146
50.5145
50.5137
50.5127
50.512
50.5116
50.5113
50.5111
50.5109
50.5106
50.5104
50.5102
50.51
50.5094
50.5066
50.4949
50.4774
50.4686
50.4672
50.4711
50.4876
50.5044
50.513
50.5159
50.516
50.5149
50.5129
50.5112
50.51
50.5092
50.5085
50.5079
50.5074
50.507
50.5066
50.5062
50.5058
50.5055
50.5051
50.5047
50.5044
50.504
50.5036
50.5031
50.5027
50.5022
50.5017
50.5012
50.5007
50.5002
50.4996
50.4991
50.4985
50.498
50.4974
50.4969
50.4963
50.4958
50.4952
50.4947
50.4941
50.4936
50.4931
50.4929
50.4913
50.4642
50.4519
50.4474
50.4463
50.4439
50.439
50.4325
50.4256
50.4179
50.4103
50.4025
50.3946
50.3874
50.3803
50.3741
50.3678
50.3625
50.3575
50.3538
50.352
50.4725
50.4694
50.4697
50.4706
50.4693
50.4656
50.4598
50.4546
50.4476
50.4419
50.4351
50.4284
50.4221
50.4167
50.4114
50.4063
50.4018
50.3977
50.3945
50.3921
50.4923
50.4921
50.491
50.489
50.4863
50.4829
50.4788
50.4737
50.4685
50.4628
50.4565
50.4491
50.4406
50.4314
50.421
50.4095
50.3988
50.3892
50.3813
50.3729
50.5023
50.5054
50.5052
50.5036
50.5021
50.5009
50.5004
50.4999
50.497
50.4903
50.4835
50.478
50.4734
50.4704
50.4739
50.4849
50.4905
50.4851
50.469
50.4484
50.5055
50.5118
50.5123
50.5106
50.509
50.5078
50.5071
50.5065
50.5039
50.4979
50.4908
50.485
50.4801
50.4767
50.4803
50.4898
50.4972
50.4947
50.483
50.4629
50.3729
50.3771
50.376
50.3744
50.3732
50.3722
50.3716
50.371
50.3707
50.3703
50.3699
50.3695
50.3692
50.3688
50.3685
50.3682
50.3679
50.3677
50.3674
50.3672
50.3669
50.3667
50.3666
50.3664
50.3662
50.3661
50.366
50.3659
50.3659
50.3659
50.3659
50.366
50.366
50.366
50.3659
50.3658
50.3657
50.3657
50.3656
50.3653
50.3651
50.3653
50.3657
50.3661
50.3663
50.3645
50.3554
50.3435
50.3375
50.3364
50.3378
50.3445
50.3562
50.3652
50.3714
50.3754
50.378
50.3795
50.3804
50.3808
50.3811
50.3812
50.3812
50.3812
50.3812
50.3812
50.3811
50.3811
50.3811
50.381
50.381
50.381
50.3809
50.3809
50.3809
50.3808
50.3808
50.3808
50.3807
50.3807
50.3807
50.3806
50.3806
50.3806
50.3806
50.3805
50.3805
50.3805
50.3805
50.3805
50.3805
50.3805
50.3805
50.3805
50.3805
50.3805
50.3805
50.3805
50.3806
50.3806
50.3806
50.3806
50.3807
50.3807
50.3807
50.3808
50.3808
50.3809
50.3809
50.381
50.381
50.3811
50.3811
50.3812
50.3812
50.3813
50.3813
50.3813
50.3814
50.3814
50.3814
50.3814
50.3814
50.3814
50.3814
50.3813
50.3813
50.3812
50.3811
50.381
50.3809
50.3808
50.3807
50.3806
50.3805
50.3804
50.3803
50.3801
50.38
50.3799
50.3798
50.3797
50.3796
50.3795
50.3794
50.3794
50.3793
50.3793
50.3793
50.3792
50.3792
50.3793
50.3793
50.3793
50.3794
50.3795
50.3796
50.3797
50.3798
50.38
50.3801
50.3803
50.3804
50.3806
50.3807
50.3809
50.3811
50.3812
50.3813
50.3814
50.3815
50.3816
50.3816
50.3816
50.3816
50.3815
50.3814
50.3813
50.3812
50.381
50.3809
50.3807
50.3805
50.3803
50.3801
50.38
50.3798
50.3796
50.3794
50.3792
50.379
50.3789
50.3787
50.3785
50.3784
50.3783
50.3781
50.3781
50.3784
50.377
50.387
50.3856
50.3838
50.382
50.3807
50.3797
50.379
50.3784
50.378
50.3777
50.3773
50.3769
50.3766
50.3763
50.3759
50.3756
50.3754
50.3751
50.3748
50.3746
50.3743
50.3741
50.3739
50.3738
50.3736
50.3735
50.3734
50.3733
50.3732
50.3732
50.3732
50.3733
50.3734
50.3734
50.3735
50.3734
50.3731
50.3729
50.3729
50.373
50.3731
50.3729
50.3724
50.3722
50.3724
50.3723
50.3711
50.3683
50.3665
50.3661
50.3666
50.3682
50.3727
50.3773
50.3803
50.3818
50.3825
50.3827
50.3826
50.3824
50.3821
50.3819
50.3817
50.3816
50.3814
50.3813
50.3813
50.3812
50.3812
50.3811
50.3811
50.381
50.381
50.381
50.3809
50.3809
50.3809
50.3808
50.3808
50.3808
50.3807
50.3807
50.3807
50.3807
50.3806
50.3806
50.3806
50.3806
50.3806
50.3806
50.3805
50.3805
50.3805
50.3806
50.3806
50.3806
50.3806
50.3806
50.3806
50.3807
50.3807
50.3807
50.3807
50.3808
50.3808
50.3808
50.3809
50.3809
50.381
50.381
50.3811
50.3811
50.3812
50.3812
50.3813
50.3813
50.3814
50.3814
50.3814
50.3815
50.3815
50.3815
50.3815
50.3815
50.3814
50.3814
50.3813
50.3813
50.3812
50.3811
50.381
50.3809
50.3808
50.3807
50.3806
50.3804
50.3803
50.3802
50.3801
50.38
50.3799
50.3798
50.3797
50.3796
50.3795
50.3794
50.3794
50.3794
50.3793
50.3793
50.3793
50.3793
50.3794
50.3794
50.3795
50.3795
50.3796
50.3798
50.3799
50.38
50.3802
50.3803
50.3805
50.3806
50.3808
50.381
50.3811
50.3813
50.3814
50.3815
50.3816
50.3816
50.3817
50.3817
50.3816
50.3816
50.3815
50.3814
50.3813
50.3811
50.3809
50.3808
50.3806
50.3804
50.3802
50.38
50.3798
50.3796
50.3795
50.3793
50.3791
50.3789
50.3788
50.3786
50.3785
50.3783
50.3782
50.3781
50.3784
50.3772
50.3501
50.3593
50.3651
50.3655
50.3643
50.3634
50.3629
50.3625
50.3621
50.3617
50.3613
50.361
50.3606
50.3603
50.36
50.3597
50.3594
50.3592
50.3589
50.3586
50.3584
50.3581
50.3578
50.3575
50.3572
50.3569
50.3566
50.3563
50.3559
50.3556
50.3553
50.3551
50.3551
50.3552
50.3556
50.3571
50.3609
50.3647
50.3679
50.3702
50.3718
50.3729
50.3737
50.3743
50.3749
50.3753
50.3757
50.3762
50.3767
50.3774
50.3784
50.3793
50.38
50.3806
50.381
50.3812
50.3813
50.3814
50.3814
50.3814
50.3813
50.3813
50.3813
50.3813
50.3812
50.3812
50.3812
50.3812
50.3811
50.3811
50.3811
50.381
50.381
50.381
50.3809
50.3809
50.3809
50.3808
50.3808
50.3808
50.3807
50.3807
50.3807
50.3807
50.3806
50.3806
50.3806
50.3806
50.3806
50.3806
50.3805
50.3805
50.3805
50.3806
50.3806
50.3806
50.3806
50.3806
50.3806
50.3807
50.3807
50.3807
50.3807
50.3808
50.3808
50.3808
50.3809
50.3809
50.381
50.381
50.3811
50.3811
50.3812
50.3812
50.3813
50.3813
50.3814
50.3814
50.3814
50.3815
50.3815
50.3815
50.3815
50.3815
50.3814
50.3814
50.3813
50.3813
50.3812
50.3811
50.381
50.3809
50.3808
50.3807
50.3806
50.3804
50.3803
50.3802
50.3801
50.38
50.3799
50.3798
50.3797
50.3796
50.3795
50.3794
50.3794
50.3794
50.3793
50.3793
50.3793
50.3793
50.3794
50.3794
50.3795
50.3795
50.3796
50.3798
50.3799
50.38
50.3802
50.3803
50.3805
50.3806
50.3808
50.381
50.3811
50.3813
50.3814
50.3815
50.3816
50.3816
50.3817
50.3817
50.3816
50.3816
50.3815
50.3814
50.3813
50.3811
50.3809
50.3808
50.3806
50.3804
50.3802
50.38
50.3798
50.3796
50.3795
50.3793
50.3791
50.3789
50.3788
50.3786
50.3785
50.3783
50.3782
50.3781
50.378
50.3779
50.3857
50.3807
50.3936
50.3876
50.3814
50.3799
50.3794
50.3786
50.3777
50.3772
50.3769
50.3764
50.3761
50.3757
50.3753
50.3751
50.3748
50.3745
50.3742
50.374
50.3737
50.3735
50.3733
50.3732
50.373
50.3729
50.3727
50.3726
50.3724
50.3722
50.3721
50.3721
50.3721
50.3721
50.3721
50.3722
50.3722
50.3717
50.3712
50.3713
50.3715
50.3718
50.3721
50.3724
50.3728
50.3732
50.373
50.3706
50.3617
50.3529
50.3494
50.3496
50.353
50.3641
50.3743
50.38
50.3825
50.3834
50.3834
50.3831
50.3826
50.3822
50.3819
50.3817
50.3815
50.3814
50.3813
50.3812
50.3812
50.3811
50.3811
50.381
50.381
50.381
50.3809
50.3809
50.3809
50.3808
50.3808
50.3808
50.3807
50.3807
50.3807
50.3807
50.3806
50.3806
50.3806
50.3806
50.3806
50.3806
50.3805
50.3805
50.3805
50.3806
50.3806
50.3806
50.3806
50.3806
50.3806
50.3807
50.3807
50.3807
50.3807
50.3808
50.3808
50.3808
50.3809
50.3809
50.381
50.381
50.3811
50.3811
50.3812
50.3812
50.3813
50.3813
50.3814
50.3814
50.3814
50.3815
50.3815
50.3815
50.3815
50.3815
50.3814
50.3814
50.3813
50.3813
50.3812
50.3811
50.381
50.3809
50.3808
50.3807
50.3806
50.3804
50.3803
50.3802
50.3801
50.38
50.3799
50.3798
50.3797
50.3796
50.3795
50.3794
50.3794
50.3794
50.3793
50.3793
50.3793
50.3793
50.3794
50.3794
50.3795
50.3795
50.3796
50.3798
50.3799
50.38
50.3802
50.3803
50.3805
50.3806
50.3808
50.381
50.3811
50.3813
50.3814
50.3815
50.3816
50.3816
50.3817
50.3817
50.3816
50.3816
50.3815
50.3814
50.3813
50.3811
50.3809
50.3808
50.3806
50.3804
50.3802
50.38
50.3798
50.3796
50.3795
50.3793
50.3791
50.3789
50.3788
50.3786
50.3785
50.3783
50.3782
50.3781
50.3773
50.3806
50.3899
50.3802
50.394
50.3882
50.3821
50.3809
50.3804
50.3798
50.3787
50.3782
50.3779
50.3775
50.3772
50.3767
50.3764
50.3761
50.3758
50.3756
50.3753
50.3751
50.3748
50.3746
50.3744
50.3742
50.3741
50.3739
50.3738
50.3737
50.3735
50.3734
50.3733
50.3733
50.3733
50.3734
50.3737
50.3744
50.3746
50.374
50.3732
50.3731
50.3733
50.3735
50.3738
50.374
50.3744
50.3748
50.375
50.374
50.3673
50.35
50.3384
50.3355
50.3376
50.3501
50.3695
50.3808
50.3857
50.3868
50.3866
50.3852
50.3837
50.3828
50.3822
50.3818
50.3816
50.3814
50.3813
50.3812
50.3811
50.3811
50.381
50.381
50.3809
50.3809
50.3809
50.3808
50.3808
50.3808
50.3807
50.3807
50.3807
50.3806
50.3806
50.3806
50.3806
50.3805
50.3805
50.3805
50.3805
50.3805
50.3805
50.3805
50.3805
50.3805