/*--------------------------------*- C++ -*----------------------------------*\
| =========                 |                                                 |
| \\      /  F ield         | OpenFOAM: The Open Source CFD Toolbox           |
|  \\    /   O peration     | Version:  3.0.x                                 |
|   \\  /    A nd           | Web:      www.OpenFOAM.org                      |
|    \\/     M anipulation  |                                                 |
\*---------------------------------------------------------------------------*/
FoamFile
{
    version     2.0;
    format      ascii;
    class       volScalarField;
    location    "0.37";
    object      rho;
}
// * * * * * * * * * * * * * * * * * * * * * * * * * * * * * * * * * * * * * //

dimensions      [1 -3 0 0 0 0 0];

internalField   nonuniform List<scalar> 
6900
(
50.9142
50.9142
50.9142
50.9142
50.9143
50.9143
50.9143
50.9143
50.9144
50.9144
50.9144
50.9144
50.9144
50.9144
50.9144
50.9144
50.9144
50.9144
50.9144
50.9144
50.9146
50.9147
50.9149
50.915
50.915
50.9151
50.9151
50.915
50.915
50.915
50.9151
50.9152
50.9153
50.9155
50.9157
50.9159
50.9162
50.9164
50.9167
50.9169
50.917
50.9171
50.9171
50.9172
50.9172
50.9173
50.9175
50.9176
50.9178
50.918
50.9181
50.9182
50.9182
50.9183
50.9183
50.9183
50.9182
50.9182
50.9181
50.9181
50.918
50.918
50.9179
50.9179
50.9179
50.9179
50.9179
50.9179
50.9179
50.9179
50.9179
50.918
50.918
50.9181
50.9182
50.9182
50.9183
50.9184
50.9184
50.9185
50.9186
50.9186
50.9187
50.9187
50.9187
50.9187
50.9187
50.9187
50.9186
50.9186
50.9185
50.9185
50.9184
50.9183
50.9183
50.9182
50.9181
50.9181
50.9181
50.918
50.918
50.918
50.9181
50.9181
50.9182
50.9183
50.9184
50.9185
50.9186
50.9188
50.9189
50.9191
50.9192
50.9194
50.9195
50.9197
50.9198
50.9199
50.92
50.9201
50.9201
50.9201
50.9201
50.9201
50.9201
50.92
50.9199
50.9199
50.9198
50.9197
50.9196
50.9195
50.9194
50.9193
50.9192
50.9192
50.9192
50.9192
50.9192
50.9192
50.9193
50.9195
50.9196
50.9198
50.92
50.9202
50.9204
50.9206
50.9209
50.9211
50.9213
50.9215
50.9217
50.9218
50.9219
50.922
50.922
50.922
50.922
50.9219
50.9218
50.9217
50.9215
50.9214
50.9212
50.921
50.9208
50.9207
50.9205
50.9203
50.9202
50.9201
50.92
50.92
50.92
50.92
50.9201
50.9202
50.9204
50.9206
50.9209
50.9212
50.9215
50.9219
50.9222
50.9226
50.9229
50.9231
50.9234
50.9235
50.9236
50.9237
50.9237
50.9236
50.9235
50.9233
50.9231
50.9229
50.9231
50.92
50.9144
50.9144
50.9144
50.9144
50.9144
50.9145
50.9145
50.9145
50.9145
50.9145
50.9146
50.9146
50.9146
50.9146
50.9146
50.9146
50.9146
50.9146
50.9145
50.9146
50.9147
50.9149
50.915
50.9151
50.9152
50.9152
50.9152
50.9152
50.9152
50.9152
50.9152
50.9153
50.9155
50.9156
50.9158
50.9161
50.9163
50.9166
50.9168
50.917
50.9171
50.9172
50.9173
50.9173
50.9174
50.9175
50.9176
50.9178
50.9179
50.9181
50.9182
50.9183
50.9184
50.9184
50.9184
50.9184
50.9183
50.9183
50.9182
50.9182
50.9181
50.9181
50.9181
50.918
50.918
50.918
50.918
50.918
50.918
50.918
50.918
50.9181
50.9181
50.9182
50.9183
50.9184
50.9184
50.9185
50.9186
50.9186
50.9187
50.9187
50.9188
50.9188
50.9188
50.9188
50.9188
50.9188
50.9187
50.9187
50.9186
50.9186
50.9185
50.9184
50.9184
50.9183
50.9183
50.9182
50.9182
50.9181
50.9181
50.9181
50.9182
50.9182
50.9183
50.9184
50.9185
50.9186
50.9187
50.9189
50.919
50.9192
50.9193
50.9195
50.9196
50.9198
50.9199
50.92
50.9201
50.9202
50.9202
50.9203
50.9203
50.9202
50.9202
50.9201
50.9201
50.92
50.9199
50.9198
50.9197
50.9196
50.9195
50.9194
50.9193
50.9193
50.9193
50.9193
50.9193
50.9194
50.9194
50.9196
50.9197
50.9199
50.9201
50.9203
50.9205
50.9207
50.921
50.9212
50.9214
50.9216
50.9218
50.9219
50.922
50.9221
50.9221
50.9221
50.9221
50.922
50.9219
50.9218
50.9217
50.9215
50.9213
50.9211
50.921
50.9208
50.9206
50.9205
50.9203
50.9202
50.9201
50.9201
50.9201
50.9201
50.9202
50.9203
50.9205
50.9207
50.921
50.9213
50.9216
50.922
50.9223
50.9227
50.923
50.9233
50.9235
50.9236
50.9238
50.9238
50.9238
50.9237
50.9236
50.9234
50.9232
50.923
50.9232
50.9204
50.9143
50.9144
50.9144
50.9144
50.9144
50.9144
50.9145
50.9145
50.9145
50.9145
50.9146
50.9146
50.9146
50.9146
50.9146
50.9146
50.9146
50.9145
50.9145
50.9146
50.9147
50.9149
50.915
50.9151
50.9152
50.9152
50.9152
50.9152
50.9152
50.9152
50.9152
50.9153
50.9155
50.9156
50.9158
50.9161
50.9163
50.9166
50.9168
50.917
50.9171
50.9172
50.9173
50.9173
50.9174
50.9175
50.9176
50.9178
50.9179
50.9181
50.9182
50.9183
50.9184
50.9184
50.9184
50.9184
50.9183
50.9183
50.9182
50.9182
50.9181
50.9181
50.9181
50.918
50.918
50.918
50.918
50.918
50.918
50.918
50.918
50.9181
50.9181
50.9182
50.9183
50.9184
50.9184
50.9185
50.9186
50.9186
50.9187
50.9187
50.9188
50.9188
50.9188
50.9188
50.9188
50.9188
50.9187
50.9187
50.9186
50.9186
50.9185
50.9184
50.9184
50.9183
50.9183
50.9182
50.9182
50.9181
50.9181
50.9181
50.9182
50.9182
50.9183
50.9184
50.9185
50.9186
50.9187
50.9189
50.919
50.9192
50.9193
50.9195
50.9196
50.9198
50.9199
50.92
50.9201
50.9202
50.9202
50.9203
50.9203
50.9202
50.9202
50.9201
50.9201
50.92
50.9199
50.9198
50.9197
50.9196
50.9195
50.9194
50.9193
50.9193
50.9193
50.9193
50.9193
50.9194
50.9194
50.9196
50.9197
50.9199
50.9201
50.9203
50.9205
50.9207
50.921
50.9212
50.9214
50.9216
50.9218
50.9219
50.922
50.9221
50.9221
50.9221
50.9221
50.922
50.9219
50.9218
50.9217
50.9215
50.9213
50.9211
50.921
50.9208
50.9206
50.9205
50.9203
50.9202
50.9201
50.9201
50.9201
50.9201
50.9202
50.9203
50.9205
50.9207
50.921
50.9213
50.9216
50.922
50.9223
50.9227
50.923
50.9233
50.9235
50.9236
50.9238
50.9238
50.9238
50.9237
50.9236
50.9234
50.9232
50.923
50.9228
50.9226
50.9144
50.9144
50.9144
50.9144
50.9144
50.9145
50.9145
50.9145
50.9145
50.9145
50.9146
50.9146
50.9146
50.9146
50.9146
50.9146
50.9146
50.9146
50.9145
50.9146
50.9147
50.9149
50.915
50.9151
50.9152
50.9152
50.9152
50.9152
50.9152
50.9152
50.9152
50.9153
50.9155
50.9156
50.9158
50.9161
50.9163
50.9166
50.9168
50.917
50.9171
50.9172
50.9173
50.9173
50.9174
50.9175
50.9176
50.9178
50.9179
50.9181
50.9182
50.9183
50.9184
50.9184
50.9184
50.9184
50.9183
50.9183
50.9182
50.9182
50.9181
50.9181
50.9181
50.918
50.918
50.918
50.918
50.918
50.918
50.918
50.918
50.9181
50.9181
50.9182
50.9183
50.9184
50.9184
50.9185
50.9186
50.9186
50.9187
50.9187
50.9188
50.9188
50.9188
50.9188
50.9188
50.9188
50.9187
50.9187
50.9186
50.9186
50.9185
50.9184
50.9184
50.9183
50.9183
50.9182
50.9182
50.9181
50.9181
50.9181
50.9182
50.9182
50.9183
50.9184
50.9185
50.9186
50.9187
50.9189
50.919
50.9192
50.9193
50.9195
50.9196
50.9198
50.9199
50.92
50.9201
50.9202
50.9202
50.9203
50.9203
50.9202
50.9202
50.9201
50.9201
50.92
50.9199
50.9198
50.9197
50.9196
50.9195
50.9194
50.9193
50.9193
50.9193
50.9193
50.9193
50.9194
50.9194
50.9196
50.9197
50.9199
50.9201
50.9203
50.9205
50.9207
50.921
50.9212
50.9214
50.9216
50.9218
50.9219
50.922
50.9221
50.9221
50.9221
50.9221
50.922
50.9219
50.9218
50.9217
50.9215
50.9213
50.9211
50.921
50.9208
50.9206
50.9205
50.9203
50.9202
50.9201
50.9201
50.9201
50.9201
50.9202
50.9203
50.9205
50.9207
50.921
50.9213
50.9216
50.922
50.9223
50.9227
50.923
50.9233
50.9235
50.9237
50.9238
50.9238
50.9238
50.9237
50.9236
50.9234
50.9232
50.9231
50.922
50.9282
50.9142
50.9142
50.9142
50.9142
50.9143
50.9143
50.9143
50.9143
50.9144
50.9144
50.9144
50.9144
50.9144
50.9144
50.9144
50.9144
50.9144
50.9144
50.9144
50.9144
50.9146
50.9147
50.9149
50.915
50.915
50.9151
50.9151
50.915
50.915
50.915
50.9151
50.9152
50.9153
50.9155
50.9157
50.9159
50.9162
50.9164
50.9167
50.9169
50.917
50.9171
50.9171
50.9172
50.9172
50.9173
50.9175
50.9176
50.9178
50.918
50.9181
50.9182
50.9182
50.9183
50.9183
50.9183
50.9182
50.9182
50.9181
50.9181
50.918
50.918
50.9179
50.9179
50.9179
50.9179
50.9179
50.9179
50.9179
50.9179
50.9179
50.918
50.918
50.9181
50.9182
50.9182
50.9183
50.9184
50.9184
50.9185
50.9186
50.9186
50.9187
50.9187
50.9187
50.9187
50.9187
50.9187
50.9186
50.9186
50.9185
50.9185
50.9184
50.9183
50.9183
50.9182
50.9181
50.9181
50.9181
50.918
50.918
50.918
50.9181
50.9181
50.9182
50.9183
50.9184
50.9185
50.9186
50.9188
50.9189
50.9191
50.9192
50.9194
50.9195
50.9197
50.9198
50.9199
50.92
50.9201
50.9201
50.9201
50.9201
50.9201
50.9201
50.92
50.9199
50.9199
50.9198
50.9197
50.9196
50.9195
50.9194
50.9193
50.9192
50.9192
50.9192
50.9192
50.9192
50.9192
50.9193
50.9195
50.9196
50.9198
50.92
50.9202
50.9204
50.9206
50.9209
50.9211
50.9213
50.9215
50.9217
50.9218
50.9219
50.922
50.922
50.922
50.922
50.9219
50.9218
50.9217
50.9215
50.9214
50.9212
50.921
50.9208
50.9207
50.9205
50.9203
50.9202
50.9201
50.92
50.92
50.92
50.92
50.9201
50.9202
50.9204
50.9206
50.9209
50.9212
50.9215
50.9219
50.9222
50.9226
50.9229
50.9231
50.9234
50.9235
50.9236
50.9237
50.9237
50.9236
50.9235
50.9233
50.9231
50.923
50.9213
50.934
50.9389
50.9459
50.9466
50.9447
50.943
50.9418
50.941
50.9389
50.9339
50.9272
50.9213
50.917
50.9154
50.9216
50.9306
50.9331
50.9226
50.9025
50.8774
50.8579
50.9353
50.9388
50.9385
50.9368
50.9353
50.9341
50.9335
50.9313
50.9259
50.9192
50.9136
50.9095
50.9081
50.9151
50.9245
50.9244
50.9108
50.8864
50.8629
50.8447
50.9233
50.9232
50.922
50.9198
50.9168
50.9131
50.9086
50.9035
50.8977
50.8914
50.8838
50.875
50.8652
50.8541
50.8423
50.8314
50.8223
50.8139
50.8052
50.7945
50.8992
50.896
50.8969
50.8985
50.8975
50.8936
50.8881
50.8806
50.874
50.8665
50.859
50.8519
50.8454
50.8388
50.8325
50.8267
50.8212
50.8166
50.8133
50.8112
50.8892
50.8764
50.8717
50.8711
50.8689
50.8638
50.857
50.8484
50.8404
50.8312
50.8227
50.814
50.8059
50.7979
50.7906
50.7834
50.7771
50.7714
50.7676
50.7657
50.8091
50.8074
50.8108
50.8036
50.8007
50.7999
50.7999
50.799
50.7984
50.7985
50.7985
50.7983
50.7983
50.7983
50.7984
50.7984
50.7985
50.7985
50.7986
50.7987
50.7988
50.799
50.7991
50.7993
50.7994
50.7996
50.7998
50.8
50.8002
50.8004
50.8006
50.8008
50.801
50.8012
50.8013
50.8014
50.8015
50.8016
50.8016
50.8016
50.8016
50.8016
50.8015
50.8014
50.8013
50.8012
50.8011
50.801
50.8008
50.8007
50.8006
50.8006
50.8005
50.8005
50.8006
50.8008
50.8007
50.8005
50.8003
50.8001
50.8001
50.8002
50.8003
50.8004
50.8005
50.8006
50.8006
50.8007
50.8008
50.8009
50.801
50.8012
50.8014
50.8017
50.8021
50.8025
50.8027
50.8028
50.8029
50.8031
50.8035
50.8038
50.8039
50.8028
50.798
50.7925
50.79
50.7898
50.7912
50.7969
50.8044
50.8092
50.8117
50.8127
50.813
50.813
50.8127
50.8123
50.8121
50.812
50.8119
50.8119
50.812
50.8121
50.8122
50.8123
50.8125
50.8127
50.8129
50.8131
50.8134
50.8136
50.8139
50.8141
50.8144
50.8147
50.815
50.8153
50.8156
50.8159
50.8162
50.8166
50.8169
50.8172
50.8176
50.818
50.8183
50.8187
50.8191
50.8195
50.8199
50.8203
50.8207
50.8212
50.8217
50.8221
50.8226
50.8232
50.8237
50.8243
50.8249
50.8256
50.8262
50.8269
50.8277
50.8285
50.8293
50.8301
50.831
50.8319
50.8329
50.8339
50.8349
50.8359
50.837
50.8381
50.8392
50.8403
50.8414
50.8426
50.8438
50.845
50.8462
50.8474
50.8487
50.8499
50.8512
50.8525
50.8538
50.8552
50.8566
50.858
50.8594
50.8608
50.8623
50.8637
50.8652
50.8668
50.8683
50.8699
50.8715
50.8732
50.8748
50.8766
50.8783
50.8801
50.882
50.8839
50.8859
50.8879
50.89
50.8922
50.8943
50.8967
50.8989
50.9014
50.9036
50.9062
50.9074
50.9188
50.8061
50.8076
50.8103
50.803
50.7998
50.7989
50.7986
50.7979
50.7974
50.7974
50.7974
50.7972
50.7972
50.7972
50.7973
50.7973
50.7974
50.7975
50.7975
50.7976
50.7977
50.7978
50.798
50.7982
50.7983
50.7985
50.7987
50.799
50.7992
50.7994
50.7996
50.7999
50.8
50.8002
50.8003
50.8005
50.8005
50.8006
50.8006
50.8006
50.8006
50.8006
50.8005
50.8004
50.8003
50.8002
50.8
50.7999
50.7997
50.7996
50.7995
50.7994
50.7993
50.7991
50.7991
50.7992
50.7992
50.799
50.7989
50.7989
50.799
50.7991
50.7992
50.7992
50.7993
50.7993
50.7992
50.7992
50.7993
50.7993
50.7995
50.7997
50.7999
50.8001
50.8002
50.8002
50.8003
50.8005
50.8008
50.8012
50.8015
50.8015
50.7999
50.7954
50.7918
50.7902
50.7903
50.7916
50.7964
50.8031
50.8077
50.8104
50.8117
50.8123
50.8124
50.8124
50.8122
50.8121
50.812
50.8119
50.8119
50.8119
50.812
50.8121
50.8123
50.8124
50.8126
50.8128
50.813
50.8132
50.8135
50.8137
50.814
50.8142
50.8145
50.8148
50.8151
50.8154
50.8157
50.816
50.8163
50.8167
50.817
50.8174
50.8177
50.8181
50.8184
50.8188
50.8192
50.8196
50.82
50.8204
50.8208
50.8213
50.8218
50.8222
50.8228
50.8233
50.8238
50.8244
50.825
50.8257
50.8263
50.827
50.8278
50.8286
50.8294
50.8302
50.8311
50.832
50.833
50.834
50.835
50.836
50.8371
50.8382
50.8393
50.8404
50.8415
50.8427
50.8439
50.8451
50.8463
50.8475
50.8488
50.85
50.8513
50.8526
50.854
50.8553
50.8567
50.8581
50.8595
50.8609
50.8624
50.8639
50.8654
50.8669
50.8684
50.87
50.8716
50.8733
50.8749
50.8767
50.8784
50.8802
50.8821
50.884
50.886
50.888
50.8901
50.8923
50.8944
50.8968
50.899
50.9015
50.9037
50.9063
50.9079
50.9144
50.7623
50.7718
50.7801
50.7817
50.7808
50.7802
50.78
50.7801
50.7802
50.7803
50.7803
50.7804
50.7804
50.7804
50.7804
50.7805
50.7805
50.7806
50.7807
50.7809
50.7812
50.7814
50.7817
50.782
50.7823
50.7826
50.7829
50.7832
50.7835
50.7837
50.7839
50.7841
50.7842
50.7843
50.7844
50.7844
50.7845
50.7845
50.7845
50.7845
50.7845
50.7845
50.7844
50.7844
50.7843
50.7841
50.784
50.7838
50.7836
50.7834
50.7831
50.7829
50.7826
50.7823
50.782
50.7817
50.7814
50.7813
50.7812
50.7813
50.7813
50.7816
50.7827
50.7855
50.7889
50.7919
50.7945
50.7966
50.7982
50.7994
50.8002
50.8009
50.8013
50.8017
50.8021
50.8025
50.8028
50.8031
50.8035
50.8039
50.8044
50.805
50.8056
50.8064
50.8071
50.8078
50.8085
50.8091
50.8096
50.81
50.8103
50.8105
50.8107
50.8108
50.8109
50.811
50.8111
50.8112
50.8113
50.8114
50.8116
50.8117
50.8118
50.812
50.8122
50.8123
50.8125
50.8128
50.813
50.8132
50.8134
50.8137
50.814
50.8142
50.8145
50.8148
50.8151
50.8154
50.8157
50.816
50.8163
50.8167
50.817
50.8174
50.8177
50.8181
50.8184
50.8188
50.8192
50.8196
50.82
50.8204
50.8208
50.8213
50.8218
50.8222
50.8228
50.8233
50.8238
50.8244
50.825
50.8257
50.8263
50.827
50.8278
50.8286
50.8294
50.8302
50.8311
50.832
50.833
50.834
50.835
50.836
50.8371
50.8382
50.8393
50.8404
50.8415
50.8427
50.8439
50.8451
50.8463
50.8475
50.8488
50.85
50.8513
50.8526
50.854
50.8553
50.8567
50.8581
50.8595
50.8609
50.8624
50.8639
50.8654
50.8669
50.8684
50.87
50.8716
50.8733
50.8749
50.8767
50.8784
50.8802
50.8821
50.884
50.886
50.888
50.8901
50.8922
50.8945
50.8967
50.8991
50.9014
50.9039
50.9063
50.9089
50.9115
50.806
50.8038
50.8016
50.8002
50.799
50.7982
50.7978
50.7978
50.7978
50.7978
50.7977
50.7977
50.7977
50.7977
50.7978
50.7978
50.7979
50.798
50.7981
50.7982
50.7984
50.7985
50.7987
50.7988
50.799
50.7992
50.7993
50.7995
50.7997
50.7999
50.8
50.8002
50.8004
50.8005
50.8006
50.8007
50.8008
50.8009
50.8009
50.8009
50.8009
50.8009
50.8009
50.8008
50.8008
50.8007
50.8006
50.8006
50.8005
50.8004
50.8004
50.8003
50.8002
50.8001
50.8
50.7999
50.7998
50.7998
50.7997
50.7998
50.7998
50.7999
50.8
50.8
50.8001
50.8002
50.8003
50.8004
50.8005
50.8005
50.8006
50.8007
50.8008
50.8007
50.8002
50.7999
50.8
50.8001
50.7999
50.7986
50.7968
50.7954
50.7949
50.7952
50.7958
50.7976
50.802
50.8061
50.809
50.8108
50.8117
50.8121
50.8122
50.8123
50.8121
50.8119
50.8118
50.8118
50.8117
50.8117
50.8118
50.8119
50.812
50.8121
50.8122
50.8124
50.8126
50.8128
50.813
50.8132
50.8135
50.8137
50.814
50.8142
50.8145
50.8148
50.8151
50.8154
50.8157
50.816
50.8163
50.8167
50.817
50.8174
50.8177
50.8181
50.8184
50.8188
50.8192
50.8196
50.82
50.8204
50.8208
50.8213
50.8218
50.8222
50.8228
50.8233
50.8238
50.8244
50.825
50.8257
50.8263
50.827
50.8278
50.8286
50.8294
50.8302
50.8311
50.832
50.833
50.834
50.835
50.836
50.8371
50.8382
50.8393
50.8404
50.8415
50.8427
50.8439
50.8451
50.8463
50.8475
50.8488
50.85
50.8513
50.8526
50.854
50.8553
50.8567
50.8581
50.8595
50.8609
50.8624
50.8639
50.8654
50.8669
50.8684
50.87
50.8716
50.8733
50.8749
50.8767
50.8784
50.8802
50.8821
50.884
50.886
50.888
50.8901
50.8922
50.8945
50.8967
50.8991
50.9014
50.9039
50.9063
50.9094
50.9107
50.7897
50.7942
50.7927
50.7914
50.7904
50.7897
50.7893
50.7893
50.7893
50.7893
50.7892
50.7892
50.7893
50.7893
50.7894
50.7895
50.7896
50.7897
50.7898
50.79
50.7901
50.7902
50.7904
50.7905
50.7907
50.7909
50.7911
50.7913
50.7915
50.7917
50.7919
50.7921
50.7923
50.7925
50.7926
50.7928
50.7929
50.793
50.793
50.7931
50.7932
50.7932
50.7932
50.7932
50.7931
50.7931
50.793
50.7929
50.7928
50.7927
50.7926
50.7925
50.7924
50.7923
50.7922
50.7922
50.7921
50.7921
50.7921
50.7922
50.7923
50.7923
50.7924
50.7925
50.7926
50.7927
50.7929
50.793
50.7932
50.7933
50.7932
50.7929
50.7929
50.793
50.7934
50.7938
50.7939
50.7926
50.7876
50.7829
50.7809
50.7809
50.782
50.7863
50.7932
50.7986
50.8026
50.8054
50.8073
50.8086
50.8094
50.81
50.8104
50.8106
50.8108
50.8109
50.8111
50.8112
50.8113
50.8114
50.8115
50.8116
50.8117
50.8119
50.8121
50.8122
50.8124
50.8126
50.8129
50.8131
50.8133
50.8136
50.8139
50.8141
50.8144
50.8147
50.815
50.8153
50.8156
50.8159
50.8162
50.8166
50.8169
50.8172
50.8176
50.818
50.8183
50.8187
50.8191
50.8195
50.8199
50.8203
50.8207
50.8212
50.8217
50.8221
50.8226
50.8232
50.8237
50.8243
50.8249
50.8256
50.8262
50.8269
50.8277
50.8285
50.8293
50.8301
50.831
50.8319
50.8329
50.8339
50.8349
50.8359
50.837
50.8381
50.8392
50.8403
50.8414
50.8426
50.8438
50.845
50.8462
50.8474
50.8487
50.8499
50.8512
50.8525
50.8538
50.8552
50.8566
50.858
50.8594
50.8608
50.8623
50.8637
50.8652
50.8668
50.8683
50.8699
50.8715
50.8732
50.8748
50.8766
50.8783
50.8801
50.882
50.8839
50.8859
50.8879
50.89
50.8921
50.8944
50.8966
50.899
50.9013
50.9038
50.9062
50.9093
50.9104
50.8857
50.8741
50.87
50.8698
50.8682
50.864
50.858
50.8518
50.8446
50.8376
50.8302
50.8227
50.8157
50.8085
50.8023
50.7965
50.7917
50.7876
50.7847
50.7835
50.8943
50.8916
50.8928
50.8946
50.894
50.891
50.8858
50.8813
50.8748
50.8698
50.8631
50.8573
50.8515
50.8456
50.8404
50.836
50.8319
50.8287
50.8261
50.8247
50.9138
50.9145
50.9141
50.9127
50.9107
50.9081
50.9048
50.9006
50.8956
50.8893
50.8821
50.8749
50.8682
50.8619
50.8547
50.8461
50.8365
50.8261
50.8148
50.8016
50.9237
50.9278
50.9284
50.9275
50.9265
50.9255
50.9238
50.9216
50.9201
50.9221
50.9279
50.9287
50.921
50.9069
50.8952
50.8873
50.8803
50.8743
50.8718
50.8861
50.9269
50.9342
50.9357
50.9346
50.9336
50.9325
50.9307
50.9284
50.9269
50.9285
50.9338
50.9355
50.9296
50.9172
50.9046
50.8961
50.8885
50.8813
50.8782
50.8934
50.8044
50.8088
50.8107
50.8124
50.814
50.8164
50.8195
50.8225
50.8256
50.8287
50.8318
50.835
50.8382
50.8415
50.8448
50.8481
50.8515
50.8549
50.8582
50.8616
50.8651
50.8685
50.8719
50.8754
50.8789
50.8824
50.8859
50.8894
50.893
50.8966
50.9002
50.9038
50.9075
50.9112
50.9149
50.9187
50.9226
50.9265
50.9304
50.9344
50.9385
50.9427
50.9469
50.9511
50.9555
50.9598
50.9642
50.9687
50.9733
50.9779
50.9826
50.9874
50.9922
50.9971
51.002
51.007
51.0122
51.0173
51.0225
51.0278
51.0331
51.0384
51.0438
51.0494
51.0549
51.0604
51.0659
51.0715
51.0771
51.0826
51.0882
51.0936
51.0989
51.1043
51.1102
51.1165
51.123
51.1288
51.1319
51.1317
51.1329
51.1369
51.1434
51.1512
51.1616
51.1742
51.1855
51.1953
51.2037
51.2113
51.2187
51.2258
51.2323
51.239
51.2451
51.2519
51.2579
51.2647
51.2697
51.2815
50.8186
50.8176
50.8191
50.8207
50.8221
50.8245
50.8277
50.8308
50.8338
50.8369
50.8401
50.8433
50.8465
50.8498
50.8531
50.8564
50.8597
50.8631
50.8664
50.8698
50.8732
50.8766
50.88
50.8834
50.8869
50.8903
50.8938
50.8973
50.9008
50.9044
50.908
50.9116
50.9153
50.919
50.9228
50.9265
50.9304
50.9343
50.9382
50.9422
50.9462
50.9503
50.9545
50.9587
50.963
50.9673
50.9718
50.9763
50.9808
50.9854
50.9901
50.9949
50.9997
51.0046
51.0095
51.0146
51.0197
51.0248
51.03
51.0353
51.0406
51.0459
51.0513
51.0568
51.0622
51.0677
51.0732
51.0788
51.0844
51.09
51.0955
51.101
51.1067
51.1124
51.1177
51.1227
51.1281
51.1342
51.1401
51.1453
51.1496
51.1534
51.1577
51.1629
51.1692
51.1766
51.1846
51.1945
51.2044
51.2129
51.2205
51.2279
51.2346
51.2409
51.2466
51.253
51.2587
51.2654
51.2704
51.2787
50.7732
50.7884
50.7997
50.8034
50.8049
50.8071
50.8101
50.8134
50.8166
50.8198
50.823
50.8264
50.8297
50.833
50.8364
50.8398
50.8432
50.8466
50.85
50.8534
50.8568
50.8601
50.8635
50.8669
50.8704
50.8739
50.8774
50.881
50.8846
50.8883
50.892
50.8957
50.8994
50.9031
50.9068
50.9106
50.9145
50.9183
50.9223
50.9262
50.9303
50.9344
50.9385
50.9427
50.947
50.9513
50.9556
50.96
50.9644
50.9689
50.9735
50.9782
50.9829
50.9877
50.9924
50.9972
51.0021
51.007
51.012
51.017
51.0222
51.0278
51.0338
51.0404
51.0478
51.0565
51.065
51.0731
51.0804
51.0872
51.094
51.1005
51.1067
51.1127
51.1186
51.1246
51.1306
51.1365
51.1425
51.1486
51.1549
51.1612
51.1676
51.1741
51.1806
51.1872
51.1939
51.2005
51.2071
51.2136
51.2201
51.2264
51.2328
51.2391
51.2454
51.2518
51.2582
51.2645
51.2714
51.2776
50.8643
50.8262
50.8191
50.8248
50.8277
50.8266
50.8276
50.8306
50.834
50.8368
50.8397
50.8429
50.8462
50.8494
50.8527
50.856
50.8593
50.8627
50.8661
50.8694
50.8728
50.8762
50.8796
50.883
50.8864
50.8899
50.8934
50.8968
50.9004
50.9039
50.9074
50.911
50.9147
50.9184
50.9221
50.9259
50.9298
50.9337
50.9377
50.9417
50.9458
50.9499
50.9541
50.9583
50.9626
50.967
50.9714
50.9758
50.9804
50.9849
50.9895
50.9943
50.999
51.0039
51.0089
51.0138
51.0189
51.024
51.0292
51.0344
51.0398
51.0451
51.0505
51.0559
51.0613
51.0667
51.0721
51.0775
51.0831
51.0887
51.0943
51.1
51.1056
51.1113
51.1169
51.1226
51.1284
51.1341
51.14
51.1462
51.1528
51.1594
51.165
51.1678
51.1688
51.171
51.1755
51.1823
51.1903
51.2014
51.2138
51.224
51.2324
51.24
51.2473
51.2534
51.2598
51.2654
51.2724
51.2783
50.8674
50.8272
50.8197
50.8253
50.829
50.8277
50.8285
50.8317
50.8352
50.8381
50.8408
50.8439
50.8473
50.8505
50.8537
50.857
50.8604
50.8637
50.8671
50.8704
50.8738
50.8772
50.8806
50.884
50.8874
50.8909
50.8944
50.8979
50.9014
50.9049
50.9085
50.9121
50.9157
50.9194
50.9232
50.927
50.9308
50.9347
50.9387
50.9427
50.9468
50.9509
50.9551
50.9593
50.9636
50.9679
50.9724
50.9768
50.9814
50.986
50.9906
50.9953
51.0001
51.005
51.0099
51.0149
51.02
51.0251
51.0303
51.0355
51.0408
51.0461
51.0515
51.057
51.0625
51.068
51.0734
51.079
51.0845
51.0901
51.0957
51.1015
51.1073
51.1131
51.1189
51.1247
51.1306
51.1365
51.1423
51.148
51.154
51.1604
51.1672
51.1734
51.1777
51.1777
51.178
51.1814
51.1879
51.196
51.2076
51.2209
51.2313
51.2397
51.2473
51.2542
51.2604
51.2659
51.2726
51.2784
51.2642
51.2574
51.2556
51.2564
51.2562
51.2545
51.251
51.2473
51.2435
51.2396
51.2353
51.2318
51.2279
51.2245
51.2213
51.2186
51.2163
51.2145
51.2132
51.213
51.2707
51.2702
51.2721
51.2741
51.2746
51.2735
51.2707
51.268
51.265
51.2622
51.2587
51.2563
51.2532
51.2503
51.248
51.2463
51.2447
51.2434
51.2426
51.242
51.2823
51.2838
51.2847
51.2849
51.2845
51.2837
51.2824
51.2802
51.2775
51.2746
51.2719
51.2686
51.2644
51.2594
51.2538
51.2475
51.2401
51.2322
51.2255
51.2202
51.2891
51.2928
51.2944
51.2948
51.2953
51.2958
51.2968
51.2995
51.3026
51.3022
51.2975
51.2913
51.2875
51.2845
51.2819
51.2827
51.291
51.3021
51.3073
51.2996
51.2919
51.2978
51.2998
51.3001
51.3005
51.3009
51.3018
51.3042
51.3071
51.3071
51.3031
51.297
51.2929
51.2897
51.2865
51.2869
51.2947
51.3052
51.3131
51.308
51.23
51.2392
51.2462
51.2524
51.2584
51.2649
51.2719
51.2787
51.2857
51.2928
51.3
51.3074
51.3149
51.3224
51.33
51.3376
51.3453
51.353
51.3608
51.3686
51.3764
51.3843
51.3922
51.4
51.408
51.4159
51.4238
51.4318
51.4398
51.4478
51.4559
51.464
51.4722
51.4803
51.4885
51.4967
51.5049
51.5131
51.5214
51.5297
51.538
51.5463
51.5547
51.5631
51.5715
51.5799
51.5884
51.5969
51.6054
51.614
51.6226
51.6312
51.6399
51.6486
51.6573
51.666
51.6748
51.6835
51.6922
51.7011
51.7099
51.7188
51.7276
51.7364
51.7453
51.7542
51.7631
51.7717
51.7799
51.7883
51.7975
51.8074
51.8173
51.8256
51.8291
51.831
51.8359
51.8443
51.855
51.8673
51.8831
51.8985
51.9116
51.9233
51.9343
51.945
51.9551
51.9645
51.9738
51.983
51.9922
52.0013
52.0105
52.0196
52.0287
52.0379
52.0471
52.0563
52.0655
52.0747
52.0839
52.0932
52.1024
52.1117
52.121
52.1303
52.1395
52.1488
52.1581
52.1674
52.1767
52.186
52.1952
52.2045
52.2137
52.223
52.2322
52.2414
52.2506
52.2598
52.2689
52.2781
52.2872
52.2963
52.3054
52.3145
52.3235
52.3325
52.3416
52.3506
52.3596
52.3685
52.3775
52.3864
52.3954
52.4043
52.4132
52.4221
52.431
52.4399
52.4488
52.4577
52.4666
52.4755
52.4843
52.4932
52.5021
52.5109
52.5198
52.5287
52.5375
52.5463
52.5552
52.564
52.5729
52.5817
52.5905
52.5993
52.6081
52.6169
52.6256
52.6344
52.6431
52.6519
52.6606
52.6692
52.6779
52.6865
52.6952
52.7038
52.7123
52.7209
52.7294
52.7378
52.7463
52.7547
52.7631
52.7715
52.7799
52.7881
52.7965
52.8046
52.813
52.821
52.8294
52.8373
52.8457
52.8535
52.8619
52.8695
52.878
52.8855
52.8939
52.9014
52.9097
52.9175
52.9252
52.9334
52.9409
52.9487
51.2387
51.2455
51.2523
51.2585
51.2648
51.2714
51.2784
51.2857
51.2929
51.3002
51.3076
51.315
51.3225
51.3301
51.3377
51.3454
51.3531
51.3608
51.3686
51.3765
51.3843
51.3922
51.4001
51.408
51.4159
51.4238
51.4318
51.4397
51.4477
51.4557
51.4638
51.4718
51.4799
51.488
51.4962
51.5043
51.5126
51.5208
51.5291
51.5373
51.5456
51.554
51.5623
51.5707
51.5791
51.5876
51.596
51.6046
51.6131
51.6217
51.6303
51.6389
51.6475
51.6562
51.6649
51.6736
51.6824
51.6911
51.6999
51.7087
51.7175
51.7262
51.735
51.7439
51.7528
51.7616
51.7702
51.7789
51.7881
51.7969
51.805
51.813
51.8218
51.8312
51.8401
51.8479
51.8546
51.8611
51.8684
51.8772
51.8875
51.8987
51.911
51.9239
51.9357
51.9467
51.9574
51.967
51.9757
51.9845
51.9933
52.0022
52.0111
52.0201
52.0291
52.0382
52.0473
52.0565
52.0656
52.0748
52.0841
52.0933
52.1025
52.1118
52.1211
52.1304
52.1396
52.1489
52.1582
52.1675
52.1768
52.1861
52.1953
52.2046
52.2138
52.2231
52.2323
52.2415
52.2507
52.2599
52.269
52.2782
52.2873
52.2964
52.3055
52.3146
52.3236
52.3326
52.3417
52.3507
52.3597
52.3686
52.3776
52.3865
52.3955
52.4044
52.4133
52.4222
52.4311
52.44
52.4489
52.4578
52.4667
52.4756
52.4844
52.4933
52.5022
52.511
52.5199
52.5287
52.5376
52.5464
52.5553
52.5641
52.5729
52.5818
52.5906
52.5994
52.6082
52.617
52.6257
52.6345
52.6432
52.652
52.6607
52.6693
52.678
52.6866
52.6953
52.7039
52.7124
52.721
52.7295
52.7379
52.7464
52.7548
52.7632
52.7716
52.78
52.7882
52.7966
52.8047
52.8131
52.8211
52.8295
52.8374
52.8458
52.8536
52.862
52.8696
52.8781
52.8856
52.894
52.9015
52.9099
52.9173
52.9257
52.933
52.9413
52.9487
51.2101
51.2245
51.2355
51.2419
51.248
51.2547
51.2619
51.2691
51.2764
51.2839
51.2914
51.299
51.3065
51.3141
51.3217
51.3293
51.337
51.3447
51.3524
51.3602
51.3681
51.376
51.3839
51.3919
51.3998
51.4078
51.4157
51.4237
51.4316
51.4396
51.4477
51.4557
51.4638
51.4719
51.48
51.4881
51.4963
51.5045
51.5128
51.521
51.5293
51.5377
51.546
51.5544
51.5627
51.5711
51.5796
51.588
51.5965
51.6049
51.6133
51.6216
51.63
51.6384
51.6468
51.6552
51.6637
51.6726
51.682
51.6921
51.7027
51.7141
51.7263
51.7375
51.7482
51.7587
51.7689
51.7785
51.7878
51.797
51.8061
51.8151
51.8241
51.8332
51.8424
51.8516
51.861
51.8703
51.8798
51.8893
51.8989
51.9085
51.9181
51.9276
51.9371
51.9465
51.9557
51.9649
51.9741
51.9832
51.9923
52.0014
52.0105
52.0197
52.0288
52.038
52.0472
52.0564
52.0656
52.0748
52.084
52.0933
52.1025
52.1118
52.1211
52.1304
52.1396
52.1489
52.1582
52.1675
52.1768
52.1861
52.1953
52.2046
52.2138
52.2231
52.2323
52.2415
52.2507
52.2599
52.269
52.2782
52.2873
52.2964
52.3055
52.3146
52.3236
52.3326
52.3417
52.3507
52.3597
52.3686
52.3776
52.3865
52.3955
52.4044
52.4133
52.4222
52.4311
52.44
52.4489
52.4578
52.4667
52.4756
52.4844
52.4933
52.5022
52.511
52.5199
52.5287
52.5376
52.5464
52.5553
52.5641
52.5729
52.5818
52.5906
52.5994
52.6082
52.617
52.6257
52.6345
52.6432
52.652
52.6607
52.6693
52.678
52.6866
52.6953
52.7039
52.7124
52.721
52.7295
52.7379
52.7464
52.7548
52.7632
52.7716
52.7799
52.7882
52.7966
52.8048
52.813
52.8212
52.8294
52.8375
52.8456
52.8537
52.8618
52.8698
52.8779
52.8857
52.8939
52.9017
52.9096
52.9176
52.9254
52.9332
52.9412
52.9489
51.2368
51.2402
51.2596
51.2672
51.2673
51.2719
51.2796
51.287
51.294
51.3011
51.3081
51.3155
51.323
51.3305
51.3379
51.3456
51.3532
51.3609
51.3686
51.3763
51.384
51.3918
51.3996
51.4075
51.4154
51.4233
51.4312
51.4392
51.4472
51.4553
51.4634
51.4715
51.4796
51.4877
51.4958
51.504
51.5121
51.5203
51.5285
51.5368
51.545
51.5533
51.5617
51.57
51.5785
51.587
51.5954
51.6039
51.6125
51.621
51.6296
51.6383
51.6469
51.6555
51.6642
51.6729
51.6816
51.6903
51.6991
51.7078
51.7166
51.7253
51.734
51.7426
51.7514
51.7603
51.7693
51.7782
51.7871
51.7959
51.8047
51.8135
51.822
51.8306
51.8395
51.8492
51.8593
51.8688
51.8759
51.8794
51.8832
51.8896
51.8989
51.9101
51.9236
51.9393
51.9527
51.9644
51.9753
51.9854
51.9941
52.0027
52.0114
52.0203
52.0293
52.0383
52.0474
52.0565
52.0657
52.0749
52.0841
52.0933
52.1026
52.1118
52.1211
52.1304
52.1396
52.1489
52.1582
52.1675
52.1768
52.1861
52.1953
52.2046
52.2138
52.2231
52.2323
52.2415
52.2507
52.2599
52.269
52.2782
52.2873
52.2964
52.3055
52.3146
52.3236
52.3326
52.3417
52.3507
52.3597
52.3686
52.3776
52.3865
52.3955
52.4044
52.4133
52.4222
52.4311
52.44
52.4489
52.4578
52.4667
52.4756
52.4844
52.4933
52.5022
52.511
52.5199
52.5287
52.5376
52.5464
52.5553
52.5641
52.5729
52.5818
52.5906
52.5994
52.6082
52.617
52.6257
52.6345
52.6432
52.652
52.6607
52.6693
52.678
52.6866
52.6953
52.7039
52.7124
52.721
52.7295
52.7379
52.7464
52.7548
52.7632
52.7716
52.7799
52.7883
52.7965
52.8049
52.8129
52.8213
52.8292
52.8376
52.8455
52.8539
52.8616
52.87
52.8776
52.8861
52.8935
52.902
52.9094
52.9178
52.9252
52.9335
52.9412
52.9488
51.2411
51.2403
51.261
51.2685
51.2683
51.273
51.281
51.289
51.2956
51.3024
51.3095
51.3168
51.3243
51.3316
51.339
51.3466
51.3543
51.3619
51.3696
51.3773
51.3851
51.3929
51.4007
51.4085
51.4164
51.4243
51.4323
51.4402
51.4482
51.4563
51.4643
51.4724
51.4805
51.4886
51.4968
51.5049
51.5131
51.5213
51.5296
51.5378
51.5461
51.5544
51.5627
51.5711
51.5796
51.5881
51.5966
51.605
51.6135
51.6221
51.6307
51.6393
51.6479
51.6566
51.6653
51.6739
51.6826
51.6914
51.7001
51.7089
51.7177
51.7265
51.7353
51.744
51.7528
51.7615
51.7704
51.7794
51.7884
51.7975
51.8065
51.8156
51.8246
51.8334
51.8419
51.8505
51.8598
51.8699
51.8799
51.8884
51.892
51.8934
51.8982
51.9071
51.9184
51.9328
51.9495
51.9632
51.9748
51.9856
51.9951
52.0033
52.0118
52.0205
52.0294
52.0384
52.0474
52.0565
52.0656
52.0748
52.084
52.0932
52.1025
52.1117