/*--------------------------------*- C++ -*----------------------------------*\
| =========                 |                                                 |
| \\      /  F ield         | OpenFOAM: The Open Source CFD Toolbox           |
|  \\    /   O peration     | Version:  3.0.x                                 |
|   \\  /    A nd           | Web:      www.OpenFOAM.org                      |
|    \\/     M anipulation  |                                                 |
\*---------------------------------------------------------------------------*/
FoamFile
{
    version     2.0;
    format      ascii;
    class       volVectorField;
    location    "0.37";
    object      U;
}
// * * * * * * * * * * * * * * * * * * * * * * * * * * * * * * * * * * * * * //

dimensions      [0 1 -1 0 0 0 0];

internalField   nonuniform List<vector> 
6900
(
(42.6979 0.000101123 0)
(42.6954 9.25635e-05 0)
(42.6927 8.99331e-05 0)
(42.6901 9.08461e-05 0)
(42.6876 9.15707e-05 0)
(42.6851 9.1972e-05 0)
(42.6827 9.22797e-05 0)
(42.6804 9.25273e-05 0)
(42.6782 9.27089e-05 0)
(42.6761 9.28509e-05 0)
(42.6741 9.29608e-05 0)
(42.6722 9.30472e-05 0)
(42.6704 9.31164e-05 0)
(42.6687 9.31665e-05 0)
(42.6671 9.32414e-05 0)
(42.6656 9.32612e-05 0)
(42.6641 9.33008e-05 0)
(42.6628 9.3344e-05 0)
(42.6615 9.33798e-05 0)
(42.6602 9.3442e-05 0)
(42.6589 9.34492e-05 0)
(42.6577 9.34933e-05 0)
(42.6564 9.35348e-05 0)
(42.6551 9.35726e-05 0)
(42.6537 9.36098e-05 0)
(42.6522 9.36468e-05 0)
(42.6506 9.3684e-05 0)
(42.6489 9.37219e-05 0)
(42.6471 9.3762e-05 0)
(42.6452 9.37985e-05 0)
(42.6432 9.38404e-05 0)
(42.641 9.38833e-05 0)
(42.6387 9.39274e-05 0)
(42.6363 9.39722e-05 0)
(42.6337 9.40168e-05 0)
(42.6311 9.406e-05 0)
(42.6284 9.41e-05 0)
(42.6256 9.41345e-05 0)
(42.6228 9.41596e-05 0)
(42.62 9.41708e-05 0)
(42.6172 9.41613e-05 0)
(42.6144 9.41223e-05 0)
(42.6116 9.40419e-05 0)
(42.6089 9.39069e-05 0)
(42.6063 9.37014e-05 0)
(42.6039 9.33828e-05 0)
(42.6015 9.29589e-05 0)
(42.5994 9.23765e-05 0)
(42.5973 9.16078e-05 0)
(42.5955 9.06174e-05 0)
(42.5938 8.93694e-05 0)
(42.5922 8.7833e-05 0)
(42.5908 8.59716e-05 0)
(42.5896 8.37651e-05 0)
(42.5886 8.11964e-05 0)
(42.5876 7.82593e-05 0)
(42.5868 7.49598e-05 0)
(42.5861 7.13163e-05 0)
(42.5854 6.73608e-05 0)
(42.5848 6.3137e-05 0)
(42.5843 5.86982e-05 0)
(42.5837 5.41076e-05 0)
(42.5831 4.94339e-05 0)
(42.5825 4.47481e-05 0)
(42.5818 4.0121e-05 0)
(42.581 3.56189e-05 0)
(42.5802 3.13013e-05 0)
(42.5792 2.7215e-05 0)
(42.5782 2.34173e-05 0)
(42.577 1.99208e-05 0)
(42.5757 1.67524e-05 0)
(42.5743 1.3919e-05 0)
(42.5728 1.14179e-05 0)
(42.5713 9.23998e-06 0)
(42.5697 7.36743e-06 0)
(42.5681 5.77762e-06 0)
(42.5664 4.44485e-06 0)
(42.5648 3.34124e-06 0)
(42.5633 2.43838e-06 0)
(42.5619 1.7085e-06 0)
(42.5606 1.12545e-06 0)
(42.5594 6.64364e-07 0)
(42.5584 3.05993e-07 0)
(42.5576 2.87275e-08 0)
(42.557 -1.84514e-07 0)
(42.5566 -3.445e-07 0)
(42.5564 -4.63795e-07 0)
(42.5564 -5.51802e-07 0)
(42.5566 -6.15858e-07 0)
(42.557 -6.62377e-07 0)
(42.5576 -6.95673e-07 0)
(42.5582 -7.19018e-07 0)
(42.559 -7.3557e-07 0)
(42.5598 -7.4677e-07 0)
(42.5606 -7.54264e-07 0)
(42.5614 -7.59024e-07 0)
(42.5621 -7.61744e-07 0)
(42.5628 -7.63035e-07 0)
(42.5633 -7.63248e-07 0)
(42.5636 -7.62696e-07 0)
(42.5637 -7.62123e-07 0)
(42.5636 -7.59792e-07 0)
(42.5633 -7.59174e-07 0)
(42.5627 -7.56302e-07 0)
(42.5618 -7.5452e-07 0)
(42.5607 -7.52346e-07 0)
(42.5593 -7.505e-07 0)
(42.5577 -7.48621e-07 0)
(42.5559 -7.46973e-07 0)
(42.5539 -7.45353e-07 0)
(42.5517 -7.4475e-07 0)
(42.5495 -7.43384e-07 0)
(42.5472 -7.43333e-07 0)
(42.545 -7.43555e-07 0)
(42.5428 -7.44164e-07 0)
(42.5407 -7.45192e-07 0)
(42.5388 -7.46644e-07 0)
(42.5371 -7.48517e-07 0)
(42.5357 -7.50775e-07 0)
(42.5345 -7.53197e-07 0)
(42.5336 -7.55875e-07 0)
(42.5331 -7.58529e-07 0)
(42.5328 -7.60296e-07 0)
(42.5329 -7.64168e-07 0)
(42.5332 -7.66259e-07 0)
(42.5338 -7.68759e-07 0)
(42.5346 -7.70481e-07 0)
(42.5356 -7.72284e-07 0)
(42.5368 -7.73246e-07 0)
(42.538 -7.74156e-07 0)
(42.5393 -7.74408e-07 0)
(42.5405 -7.74212e-07 0)
(42.5417 -7.73739e-07 0)
(42.5428 -7.72479e-07 0)
(42.5436 -7.71033e-07 0)
(42.5443 -7.6884e-07 0)
(42.5447 -7.65341e-07 0)
(42.5448 -7.71256e-07 0)
(42.5445 -7.54817e-07 0)
(42.5439 -7.59183e-07 0)
(42.5429 -7.55079e-07 0)
(42.5415 -7.51319e-07 0)
(42.5398 -7.48125e-07 0)
(42.5377 -7.45516e-07 0)
(42.5353 -7.42249e-07 0)
(42.5326 -7.40444e-07 0)
(42.5298 -7.38509e-07 0)
(42.5268 -7.37274e-07 0)
(42.5238 -7.36928e-07 0)
(42.5209 -7.37324e-07 0)
(42.518 -7.38897e-07 0)
(42.5155 -7.40715e-07 0)
(42.5132 -7.43685e-07 0)
(42.5112 -7.47209e-07 0)
(42.5097 -7.5099e-07 0)
(42.5087 -7.55045e-07 0)
(42.5081 -7.59182e-07 0)
(42.508 -7.64576e-07 0)
(42.5083 -7.66875e-07 0)
(42.509 -7.71913e-07 0)
(42.5101 -7.75754e-07 0)
(42.5115 -7.79455e-07 0)
(42.5132 -7.82427e-07 0)
(42.5151 -7.84482e-07 0)
(42.5172 -7.86818e-07 0)
(42.5193 -7.87319e-07 0)
(42.5215 -7.88305e-07 0)
(42.5237 -7.87856e-07 0)
(42.5258 -7.87332e-07 0)
(42.5277 -7.85696e-07 0)
(42.5294 -7.83787e-07 0)
(42.5308 -7.80833e-07 0)
(42.5318 -7.77802e-07 0)
(42.5323 -7.73685e-07 0)
(42.5324 -7.71451e-07 0)
(42.5319 -7.64617e-07 0)
(42.5309 -7.59341e-07 0)
(42.5292 -7.5246e-07 0)
(42.5269 -7.48137e-07 0)
(42.524 -7.41923e-07 0)
(42.5206 -7.37941e-07 0)
(42.5168 -7.33098e-07 0)
(42.5127 -7.30689e-07 0)
(42.5083 -7.26453e-07 0)
(42.5039 -7.28537e-07 0)
(42.4996 -7.26383e-07 0)
(42.4956 -7.32266e-07 0)
(42.4921 -7.335e-07 0)
(42.4892 -7.41314e-07 0)
(42.487 -7.45755e-07 0)
(42.4856 -7.54081e-07 0)
(42.485 -7.56563e-07 0)
(42.4852 -6.37856e-07 0)
(42.4861 -8.03171e-08 0)
(42.4874 4.72102e-06 0)
(42.4885 3.75227e-05 0)
(42.4849 0.000267186 0)
(42.4471 0.0018852 0)
(42.2673 0.0167538 0)
(39.7087 0.0870742 0)
(42.6997 0.000128286 0)
(42.6989 9.9058e-05 0)
(42.6981 8.59407e-05 0)
(42.6973 8.53475e-05 0)
(42.6965 8.53387e-05 0)
(42.6958 8.49276e-05 0)
(42.6952 8.4631e-05 0)
(42.6947 8.44561e-05 0)
(42.6943 8.43129e-05 0)
(42.6939 8.42076e-05 0)
(42.6937 8.4127e-05 0)
(42.6936 8.40661e-05 0)
(42.6936 8.40206e-05 0)
(42.6937 8.39782e-05 0)
(42.6939 8.40003e-05 0)
(42.6942 8.39505e-05 0)
(42.6945 8.39484e-05 0)
(42.6949 8.39607e-05 0)
(42.6954 8.39705e-05 0)
(42.6959 8.40253e-05 0)
(42.6965 8.39979e-05 0)
(42.697 8.404e-05 0)
(42.6975 8.4075e-05 0)
(42.698 8.4106e-05 0)
(42.6984 8.4139e-05 0)
(42.6987 8.41736e-05 0)
(42.6989 8.42095e-05 0)
(42.699 8.4247e-05 0)
(42.699 8.42879e-05 0)
(42.6989 8.43236e-05 0)
(42.6987 8.43682e-05 0)
(42.6983 8.44129e-05 0)
(42.6978 8.44585e-05 0)
(42.6972 8.4505e-05 0)
(42.6964 8.45517e-05 0)
(42.6956 8.45974e-05 0)
(42.6947 8.46404e-05 0)
(42.6937 8.46786e-05 0)
(42.6927 8.47085e-05 0)
(42.6917 8.4726e-05 0)
(42.6907 8.47248e-05 0)
(42.6896 8.46967e-05 0)
(42.6887 8.46308e-05 0)
(42.6878 8.45158e-05 0)
(42.687 8.43364e-05 0)
(42.6864 8.40506e-05 0)
(42.6858 8.36754e-05 0)
(42.6854 8.31532e-05 0)
(42.6851 8.24617e-05 0)
(42.685 8.15687e-05 0)
(42.685 8.04416e-05 0)
(42.6852 7.90552e-05 0)
(42.6855 7.73713e-05 0)
(42.6859 7.53753e-05 0)
(42.6864 7.30514e-05 0)
(42.687 7.03943e-05 0)
(42.6877 6.74097e-05 0)
(42.6883 6.41147e-05 0)
(42.689 6.0539e-05 0)
(42.6897 5.67223e-05 0)
(42.6903 5.27131e-05 0)
(42.6908 4.85698e-05 0)
(42.6912 4.43541e-05 0)
(42.6915 4.01303e-05 0)
(42.6916 3.59626e-05 0)
(42.6916 3.19108e-05 0)
(42.6913 2.80274e-05 0)
(42.6909 2.43497e-05 0)
(42.6904 2.09452e-05 0)
(42.6896 1.78063e-05 0)
(42.6887 1.49656e-05 0)
(42.6876 1.24276e-05 0)
(42.6863 1.01886e-05 0)
(42.685 8.24097e-06 0)
(42.6835 6.56756e-06 0)
(42.682 5.14778e-06 0)
(42.6805 3.95838e-06 0)
(42.679 2.9741e-06 0)
(42.6775 2.16933e-06 0)
(42.6761 1.51902e-06 0)
(42.6748 9.99651e-07 0)
(42.6737 5.89125e-07 0)
(42.6727 2.69746e-07 0)
(42.6719 2.03193e-08 0)
(42.6713 -1.68144e-07 0)
(42.6709 -3.10564e-07 0)
(42.6707 -4.17625e-07 0)
(42.6707 -4.97795e-07 0)
(42.6709 -5.55969e-07 0)
(42.6712 -5.98692e-07 0)
(42.6718 -6.29543e-07 0)
(42.6724 -6.51152e-07 0)
(42.6731 -6.66578e-07 0)
(42.6739 -6.76764e-07 0)
(42.6747 -6.83378e-07 0)
(42.6755 -6.87276e-07 0)
(42.6762 -6.8897e-07 0)
(42.6768 -6.89094e-07 0)
(42.6773 -6.87981e-07 0)
(42.6776 -6.8593e-07 0)
(42.6778 -6.84019e-07 0)
(42.6776 -6.79485e-07 0)
(42.6773 -6.77498e-07 0)
(42.6767 -6.71993e-07 0)
(42.6758 -6.68444e-07 0)
(42.6747 -6.64279e-07 0)
(42.6733 -6.60724e-07 0)
(42.6716 -6.57118e-07 0)
(42.6698 -6.54069e-07 0)
(42.6678 -6.51257e-07 0)
(42.6656 -6.50174e-07 0)
(42.6633 -6.47908e-07 0)
(42.6611 -6.47959e-07 0)
(42.6588 -6.48532e-07 0)
(42.6566 -6.49875e-07 0)
(42.6545 -6.52037e-07 0)
(42.6526 -6.54976e-07 0)
(42.6509 -6.58648e-07 0)
(42.6494 -6.62976e-07 0)
(42.6482 -6.67601e-07 0)
(42.6474 -6.7266e-07 0)
(42.6468 -6.77635e-07 0)
(42.6465 -6.81118e-07 0)
(42.6466 -6.87873e-07 0)
(42.6469 -6.92042e-07 0)
(42.6474 -6.96385e-07 0)
(42.6482 -6.99524e-07 0)
(42.6492 -7.02637e-07 0)
(42.6504 -7.04266e-07 0)
(42.6516 -7.05718e-07 0)
(42.6528 -7.05913e-07 0)
(42.6541 -7.05233e-07 0)
(42.6552 -7.03975e-07 0)
(42.6563 -7.01314e-07 0)
(42.6571 -6.98325e-07 0)
(42.6578 -6.93883e-07 0)
(42.6581 -6.87333e-07 0)
(42.6582 -6.97522e-07 0)
(42.6579 -6.66709e-07 0)
(42.6573 -6.74583e-07 0)
(42.6563 -6.67593e-07 0)
(42.6549 -6.59773e-07 0)
(42.6531 -6.54134e-07 0)
(42.651 -6.48597e-07 0)
(42.6486 -6.43313e-07 0)
(42.6459 -6.39489e-07 0)
(42.6431 -6.36467e-07 0)
(42.6401 -6.34582e-07 0)
(42.6371 -6.34357e-07 0)
(42.6341 -6.35329e-07 0)
(42.6313 -6.38372e-07 0)
(42.6287 -6.42114e-07 0)
(42.6264 -6.47791e-07 0)
(42.6244 -6.5431e-07 0)
(42.6229 -6.61728e-07 0)
(42.6218 -6.68991e-07 0)
(42.6212 -6.75161e-07 0)
(42.6211 -6.94369e-07 0)
(42.6214 -6.8632e-07 0)
(42.6221 -7.00352e-07 0)
(42.6231 -7.0702e-07 0)
(42.6245 -7.13594e-07 0)
(42.6262 -7.18645e-07 0)
(42.6281 -7.21815e-07 0)
(42.6302 -7.25729e-07 0)
(42.6323 -7.25751e-07 0)
(42.6345 -7.27886e-07 0)
(42.6367 -7.25881e-07 0)
(42.6387 -7.25191e-07 0)
(42.6406 -7.21165e-07 0)
(42.6423 -7.17853e-07 0)
(42.6437 -7.11375e-07 0)
(42.6447 -7.05328e-07 0)
(42.6452 -6.9744e-07 0)
(42.6453 -6.92701e-07 0)
(42.6448 -6.80526e-07 0)
(42.6437 -6.70331e-07 0)
(42.642 -6.55404e-07 0)
(42.6397 -6.50347e-07 0)
(42.6368 -6.36103e-07 0)
(42.6334 -6.29602e-07 0)
(42.6295 -6.19502e-07 0)
(42.6254 -6.17761e-07 0)
(42.621 -6.06731e-07 0)
(42.6166 -6.14595e-07 0)
(42.6123 -6.05482e-07 0)
(42.6083 -6.2411e-07 0)
(42.6048 -6.19805e-07 0)
(42.6018 -6.39077e-07 0)
(42.5996 -6.44105e-07 0)
(42.5982 -6.57325e-07 0)
(42.5976 -6.37949e-07 0)
(42.5978 9.1625e-08 0)
(42.5986 3.82234e-06 0)
(42.5999 3.2604e-05 0)
(42.601 0.000229638 0)
(42.5975 0.00160123 0)
(42.5609 0.0110881 0)
(42.3861 0.0790619 0)
(40.3988 0.375633 0)
(42.6997 7.48579e-13 0)
(42.6989 -5.72817e-14 0)
(42.698 -2.07027e-12 0)
(42.6972 -2.7915e-12 0)
(42.6965 -2.84148e-12 0)
(42.6958 -5.58198e-12 0)
(42.6952 -7.54016e-12 0)
(42.6947 -7.18637e-12 0)
(42.6942 -5.67428e-12 0)
(42.6939 -4.49236e-12 0)
(42.6937 -5.68187e-12 0)
(42.6936 -8.63663e-12 0)
(42.6936 -1.2613e-11 0)
(42.6937 -1.43846e-11 0)
(42.6938 -1.45098e-11 0)
(42.6941 -1.54827e-11 0)
(42.6945 -1.69238e-11 0)
(42.6949 -1.68536e-11 0)
(42.6954 -1.6224e-11 0)
(42.6959 -1.49415e-11 0)
(42.6964 -1.25461e-11 0)
(42.697 -1.23755e-11 0)
(42.6975 -1.25983e-11 0)
(42.6979 -1.26153e-11 0)
(42.6983 -1.15813e-11 0)
(42.6987 -1.07901e-11 0)
(42.6989 -1.07745e-11 0)
(42.699 -1.09115e-11 0)
(42.699 -1.20908e-11 0)
(42.6989 -1.14952e-11 0)
(42.6986 -1.0181e-11 0)
(42.6983 -8.75151e-12 0)
(42.6978 -7.58244e-12 0)
(42.6971 -7.64087e-12 0)
(42.6964 -9.74635e-12 0)
(42.6956 -1.08394e-11 0)
(42.6947 -1.37211e-11 0)
(42.6937 -1.45604e-11 0)
(42.6927 -1.49189e-11 0)
(42.6917 -1.57104e-11 0)
(42.6907 -1.51046e-11 0)
(42.6897 -1.46052e-11 0)
(42.6887 -1.21754e-11 0)
(42.6878 -1.35763e-11 0)
(42.687 -1.32288e-11 0)
(42.6864 -1.34943e-11 0)
(42.6858 -1.36413e-11 0)
(42.6854 -1.3749e-11 0)
(42.6852 -1.39955e-11 0)
(42.685 -1.33059e-11 0)
(42.6851 -1.3708e-11 0)
(42.6852 -1.46555e-11 0)
(42.6855 -1.51437e-11 0)
(42.6859 -1.63869e-11 0)
(42.6865 -1.77364e-11 0)
(42.687 -1.93641e-11 0)
(42.6877 -1.90439e-11 0)
(42.6884 -1.73651e-11 0)
(42.6891 -1.72295e-11 0)
(42.6897 -1.58378e-11 0)
(42.6903 -1.45312e-11 0)
(42.6908 -1.47246e-11 0)
(42.6912 -1.61897e-11 0)
(42.6915 -1.63277e-11 0)
(42.6916 -1.57495e-11 0)
(42.6916 -1.56171e-11 0)
(42.6914 -1.6514e-11 0)
(42.691 -1.60206e-11 0)
(42.6904 -1.53681e-11 0)
(42.6896 -1.51616e-11 0)
(42.6887 -1.55236e-11 0)
(42.6876 -1.46857e-11 0)
(42.6864 -1.27073e-11 0)
(42.685 -1.11569e-11 0)
(42.6836 -7.79821e-12 0)
(42.682 -5.31283e-12 0)
(42.6805 -3.99252e-12 0)
(42.679 -2.06155e-12 0)
(42.6775 -2.76519e-12 0)
(42.6761 -2.74078e-12 0)
(42.6748 -6.98152e-12 0)
(42.6737 -1.1745e-11 0)
(42.6727 -1.40542e-11 0)
(42.6719 -1.22238e-11 0)
(42.6713 -9.58012e-12 0)
(42.6709 -7.62967e-12 0)
(42.6707 -6.76255e-12 0)
(42.6707 -6.62337e-12 0)
(42.6709 -8.20151e-12 0)
(42.6713 -1.07483e-11 0)
(42.6718 -1.5427e-11 0)
(42.6724 -1.6696e-11 0)
(42.6731 -1.72317e-11 0)
(42.6739 -1.71085e-11 0)
(42.6747 -1.62936e-11 0)
(42.6755 -1.58453e-11 0)
(42.6762 -1.43201e-11 0)
(42.6769 -1.4181e-11 0)
(42.6774 -1.52291e-11 0)
(42.6777 -1.54143e-11 0)
(42.6778 -1.3106e-11 0)
(42.6777 -1.12596e-11 0)
(42.6773 -8.96235e-12 0)
(42.6767 -8.36544e-12 0)
(42.6758 -7.83384e-12 0)
(42.6747 -6.47205e-12 0)
(42.6733 -6.90021e-12 0)
(42.6716 -8.25218e-12 0)
(42.6698 -9.02268e-12 0)
(42.6678 -9.40392e-12 0)
(42.6656 -9.06939e-12 0)
(42.6634 -7.37656e-12 0)
(42.6611 -4.88999e-12 0)
(42.6588 -3.22967e-12 0)
(42.6566 -2.25728e-12 0)
(42.6545 -2.25528e-12 0)
(42.6526 -1.20691e-12 0)
(42.6509 -5.64583e-13 0)
(42.6494 6.47757e-13 0)
(42.6483 -2.04012e-12 0)
(42.6474 -4.64192e-12 0)
(42.6468 -7.91491e-12 0)
(42.6466 -9.79745e-12 0)
(42.6466 -1.8653e-11 0)
(42.6469 -1.86475e-11 0)
(42.6475 -1.47258e-11 0)
(42.6483 -1.87903e-11 0)
(42.6493 -1.66109e-11 0)
(42.6504 -2.22822e-11 0)
(42.6516 -9.40365e-12 0)
(42.6529 -2.99849e-11 0)
(42.6541 1.00537e-11 0)
(42.6553 -5.1932e-11 0)
(42.6563 7.07967e-11 0)
(42.6572 -9.03756e-11 0)
(42.6578 4.23526e-10 0)
(42.6582 4.0051e-09 0)
(42.6582 -9.78775e-09 0)
(42.658 7.86047e-09 0)
(42.6573 -3.17998e-10 0)
(42.6563 -2.4254e-09 0)
(42.6549 6.75892e-10 0)
(42.6532 -8.80843e-10 0)
(42.6511 8.21171e-10 0)
(42.6486 -8.08148e-10 0)
(42.646 8.29197e-10 0)
(42.6431 -5.60325e-10 0)
(42.6401 4.50082e-10 0)
(42.6371 -5.48184e-10 0)
(42.6341 1.41759e-10 0)
(42.6313 1.71854e-10 0)
(42.6287 9.37073e-12 0)
(42.6264 -5.99039e-11 0)
(42.6245 2.29827e-10 0)
(42.6229 -3.00555e-10 0)
(42.6219 1.76224e-09 0)
(42.6213 1.11688e-08 0)
(42.6211 -5.10262e-08 0)
(42.6214 3.08108e-08 0)
(42.6221 5.70097e-09 0)
(42.6232 5.27332e-11 0)
(42.6246 1.43762e-09 0)
(42.6263 -1.68276e-09 0)
(42.6282 2.14792e-09 0)
(42.6302 -1.49582e-09 0)
(42.6324 3.3301e-09 0)
(42.6346 -3.45859e-09 0)
(42.6367 2.3253e-09 0)
(42.6388 -1.07716e-09 0)
(42.6407 1.46317e-09 0)
(42.6423 -1.79556e-09 0)
(42.6437 2.1211e-09 0)
(42.6447 -1.34308e-09 0)
(42.6452 1.80011e-09 0)
(42.6453 8.46531e-09 0)
(42.6448 -1.51281e-08 0)
(42.6437 -3.97415e-10 0)
(42.642 7.06048e-09 0)
(42.6397 -3.25253e-09 0)
(42.6368 3.00875e-09 0)
(42.6334 -4.60746e-09 0)
(42.6296 1.69669e-09 0)
(42.6254 -7.34422e-09 0)
(42.621 1.51108e-09 0)
(42.6166 -2.08448e-08 0)
(42.6123 5.29883e-09 0)
(42.6083 -3.16284e-08 0)
(42.6048 6.40312e-09 0)
(42.6018 -3.19355e-08 0)
(42.5996 8.81439e-09 0)
(42.5982 -1.95431e-08 0)
(42.5976 3.27971e-08 0)
(42.5978 1.89293e-06 0)
(42.5986 8.82733e-06 0)
(42.6001 6.65771e-05 0)
(42.602 0.000467227 0)
(42.6039 0.00330083 0)
(42.6041 0.0231635 0)
(42.5892 0.16288 0)
(42.438 0.747136 0)
(42.6997 -0.000128286 0)
(42.6989 -9.9058e-05 0)
(42.6981 -8.59407e-05 0)
(42.6973 -8.53475e-05 0)
(42.6965 -8.53386e-05 0)
(42.6958 -8.49276e-05 0)
(42.6952 -8.4631e-05 0)
(42.6947 -8.44561e-05 0)
(42.6943 -8.43129e-05 0)
(42.6939 -8.42076e-05 0)
(42.6937 -8.4127e-05 0)
(42.6936 -8.4066e-05 0)
(42.6936 -8.40206e-05 0)
(42.6937 -8.39782e-05 0)
(42.6939 -8.40003e-05 0)
(42.6942 -8.39505e-05 0)
(42.6945 -8.39484e-05 0)
(42.6949 -8.39607e-05 0)
(42.6954 -8.39705e-05 0)
(42.6959 -8.40253e-05 0)
(42.6965 -8.39979e-05 0)
(42.697 -8.404e-05 0)
(42.6975 -8.4075e-05 0)
(42.698 -8.4106e-05 0)
(42.6984 -8.4139e-05 0)
(42.6987 -8.41736e-05 0)
(42.6989 -8.42095e-05 0)
(42.699 -8.4247e-05 0)
(42.699 -8.42879e-05 0)
(42.6989 -8.43236e-05 0)
(42.6987 -8.43682e-05 0)
(42.6983 -8.44129e-05 0)
(42.6978 -8.44585e-05 0)
(42.6972 -8.4505e-05 0)
(42.6964 -8.45517e-05 0)
(42.6956 -8.45974e-05 0)
(42.6947 -8.46404e-05 0)
(42.6937 -8.46786e-05 0)
(42.6927 -8.47084e-05 0)
(42.6917 -8.47259e-05 0)
(42.6907 -8.47248e-05 0)
(42.6896 -8.46967e-05 0)
(42.6887 -8.46308e-05 0)
(42.6878 -8.45158e-05 0)
(42.687 -8.43364e-05 0)
(42.6864 -8.40505e-05 0)
(42.6858 -8.36754e-05 0)
(42.6854 -8.31531e-05 0)
(42.6851 -8.24617e-05 0)
(42.685 -8.15687e-05 0)
(42.685 -8.04416e-05 0)
(42.6852 -7.90552e-05 0)
(42.6855 -7.73713e-05 0)
(42.6859 -7.53753e-05 0)
(42.6864 -7.30514e-05 0)
(42.687 -7.03943e-05 0)
(42.6877 -6.74097e-05 0)
(42.6883 -6.41147e-05 0)
(42.689 -6.0539e-05 0)
(42.6897 -5.67223e-05 0)
(42.6903 -5.27131e-05 0)
(42.6908 -4.85698e-05 0)
(42.6912 -4.43541e-05 0)
(42.6915 -4.01302e-05 0)
(42.6916 -3.59626e-05 0)
(42.6916 -3.19108e-05 0)
(42.6913 -2.80274e-05 0)
(42.6909 -2.43497e-05 0)
(42.6904 -2.09452e-05 0)
(42.6896 -1.78063e-05 0)
(42.6887 -1.49656e-05 0)
(42.6876 -1.24276e-05 0)
(42.6863 -1.01886e-05 0)
(42.685 -8.24096e-06 0)
(42.6835 -6.56756e-06 0)
(42.682 -5.14778e-06 0)
(42.6805 -3.95838e-06 0)
(42.679 -2.9741e-06 0)
(42.6775 -2.16932e-06 0)
(42.6761 -1.51901e-06 0)
(42.6748 -9.99646e-07 0)
(42.6737 -5.8912e-07 0)
(42.6727 -2.6974e-07 0)
(42.6719 -2.03184e-08 0)
(42.6713 1.68144e-07 0)
(42.6709 3.10562e-07 0)
(42.6707 4.17624e-07 0)
(42.6707 4.97792e-07 0)
(42.6709 5.55969e-07 0)
(42.6712 5.98695e-07 0)
(42.6718 6.29547e-07 0)
(42.6724 6.51157e-07 0)
(42.6731 6.66581e-07 0)
(42.6739 6.76767e-07 0)
(42.6747 6.83383e-07 0)
(42.6755 6.87275e-07 0)
(42.6762 6.8897e-07 0)
(42.6768 6.89097e-07 0)
(42.6773 6.87984e-07 0)
(42.6776 6.85931e-07 0)
(42.6778 6.84022e-07 0)
(42.6776 6.79485e-07 0)
(42.6773 6.77498e-07 0)
(42.6767 6.71994e-07 0)
(42.6758 6.68441e-07 0)
(42.6747 6.64278e-07 0)
(42.6733 6.60726e-07 0)
(42.6716 6.57118e-07 0)
(42.6698 6.54069e-07 0)
(42.6678 6.51256e-07 0)
(42.6656 6.50171e-07 0)
(42.6633 6.479e-07 0)
(42.6611 6.47953e-07 0)
(42.6588 6.48526e-07 0)
(42.6566 6.49873e-07 0)
(42.6545 6.52036e-07 0)
(42.6526 6.54975e-07 0)
(42.6509 6.58644e-07 0)
(42.6494 6.62977e-07 0)
(42.6482 6.67603e-07 0)
(42.6474 6.72662e-07 0)
(42.6468 6.77637e-07 0)
(42.6465 6.81128e-07 0)
(42.6466 6.87872e-07 0)
(42.6469 6.92039e-07 0)
(42.6474 6.96393e-07 0)
(42.6482 6.99525e-07 0)
(42.6492 7.02648e-07 0)
(42.6504 7.04261e-07 0)
(42.6516 7.05737e-07 0)
(42.6528 7.05882e-07 0)
(42.6541 7.05288e-07 0)
(42.6552 7.03885e-07 0)
(42.6563 7.01463e-07 0)
(42.6571 6.98144e-07 0)
(42.6578 6.94542e-07 0)
(42.6581 6.93733e-07 0)
(42.6582 6.79933e-07 0)
(42.6579 6.81644e-07 0)
(42.6573 6.73164e-07 0)
(42.6563 6.64307e-07 0)
(42.6549 6.60649e-07 0)
(42.6531 6.53273e-07 0)
(42.651 6.49363e-07 0)
(42.6486 6.42641e-07 0)
(42.6459 6.40391e-07 0)
(42.6431 6.35602e-07 0)
(42.6401 6.35227e-07 0)
(42.6371 6.33714e-07 0)
(42.6341 6.35611e-07 0)
(42.6313 6.38445e-07 0)
(42.6287 6.42137e-07 0)
(42.6264 6.47687e-07 0)
(42.6244 6.54487e-07 0)
(42.6229 6.61311e-07 0)
(42.6218 6.7131e-07 0)
(42.6212 6.90492e-07 0)
(42.6211 6.26141e-07 0)
(42.6214 7.28029e-07 0)
(42.6221 7.07805e-07 0)
(42.6231 7.06096e-07 0)
(42.6245 7.16278e-07 0)
(42.6262 7.16724e-07 0)
(42.6281 7.24583e-07 0)
(42.6302 7.23626e-07 0)
(42.6323 7.30066e-07 0)
(42.6345 7.23909e-07 0)
(42.6367 7.28891e-07 0)
(42.6387 7.23361e-07 0)
(42.6406 7.23046e-07 0)
(42.6423 7.15594e-07 0)
(42.6437 7.13919e-07 0)
(42.6447 7.03402e-07 0)
(42.6452 6.99994e-07 0)
(42.6453 7.03767e-07 0)
(42.6448 6.60225e-07 0)
(42.6437 6.70021e-07 0)
(42.642 6.64432e-07 0)
(42.6397 6.46293e-07 0)
(42.6368 6.40592e-07 0)
(42.6334 6.23733e-07 0)
(42.6295 6.23332e-07 0)
(42.6254 6.06713e-07 0)
(42.621 6.15791e-07 0)
(42.6166 5.89057e-07 0)
(42.6123 6.20592e-07 0)
(42.6083 5.88362e-07 0)
(42.6048 6.39638e-07 0)
(42.6018 6.05879e-07 0)
(42.5996 6.67614e-07 0)
(42.5982 6.39738e-07 0)
(42.5976 6.74762e-07 0)
(42.5978 2.27046e-06 0)
(42.5986 6.62123e-06 0)
(42.6002 4.67434e-05 0)
(42.6033 0.000327003 0)
(42.6135 0.00233993 0)
(42.6728 0.0168714 0)
(42.8863 0.13783 0)
(46.1001 0.581743 0)
(42.6979 -0.000101123 0)
(42.6954 -9.25635e-05 0)
(42.6927 -8.99331e-05 0)
(42.6901 -9.08461e-05 0)
(42.6876 -9.15707e-05 0)
(42.6851 -9.1972e-05 0)
(42.6827 -9.22797e-05 0)
(42.6804 -9.25273e-05 0)
(42.6782 -9.27089e-05 0)
(42.6761 -9.28509e-05 0)
(42.6741 -9.29608e-05 0)
(42.6722 -9.30472e-05 0)
(42.6704 -9.31164e-05 0)
(42.6687 -9.31665e-05 0)
(42.6671 -9.32414e-05 0)
(42.6656 -9.32612e-05 0)
(42.6641 -9.33008e-05 0)
(42.6628 -9.3344e-05 0)
(42.6615 -9.33798e-05 0)
(42.6602 -9.3442e-05 0)
(42.6589 -9.34492e-05 0)
(42.6577 -9.34933e-05 0)
(42.6564 -9.35348e-05 0)
(42.6551 -9.35726e-05 0)
(42.6537 -9.36098e-05 0)
(42.6522 -9.36468e-05 0)
(42.6506 -9.3684e-05 0)
(42.6489 -9.37219e-05 0)
(42.6471 -9.3762e-05 0)
(42.6452 -9.37985e-05 0)
(42.6432 -9.38404e-05 0)
(42.641 -9.38833e-05 0)
(42.6387 -9.39274e-05 0)
(42.6363 -9.39722e-05 0)
(42.6337 -9.40168e-05 0)
(42.6311 -9.406e-05 0)
(42.6284 -9.41e-05 0)
(42.6256 -9.41345e-05 0)
(42.6228 -9.41596e-05 0)
(42.62 -9.41708e-05 0)
(42.6172 -9.41613e-05 0)
(42.6144 -9.41223e-05 0)
(42.6116 -9.40419e-05 0)
(42.6089 -9.39069e-05 0)
(42.6063 -9.37014e-05 0)
(42.6039 -9.33828e-05 0)
(42.6015 -9.29589e-05 0)
(42.5994 -9.23765e-05 0)
(42.5973 -9.16078e-05 0)
(42.5955 -9.06174e-05 0)
(42.5938 -8.93694e-05 0)
(42.5922 -8.7833e-05 0)
(42.5908 -8.59716e-05 0)
(42.5896 -8.37651e-05 0)
(42.5886 -8.11964e-05 0)
(42.5876 -7.82593e-05 0)
(42.5868 -7.49598e-05 0)
(42.5861 -7.13163e-05 0)
(42.5854 -6.73608e-05 0)
(42.5848 -6.3137e-05 0)
(42.5843 -5.86982e-05 0)
(42.5837 -5.41076e-05 0)
(42.5831 -4.94339e-05 0)
(42.5825 -4.47481e-05 0)
(42.5818 -4.0121e-05 0)
(42.581 -3.56189e-05 0)
(42.5802 -3.13013e-05 0)
(42.5792 -2.7215e-05 0)
(42.5782 -2.34173e-05 0)
(42.577 -1.99208e-05 0)
(42.5757 -1.67524e-05 0)
(42.5743 -1.3919e-05 0)
(42.5728 -1.14179e-05 0)
(42.5713 -9.23998e-06 0)
(42.5697 -7.36743e-06 0)
(42.5681 -5.77762e-06 0)
(42.5664 -4.44485e-06 0)
(42.5648 -3.34124e-06 0)
(42.5633 -2.4384e-06 0)
(42.5619 -1.70851e-06 0)
(42.5606 -1.12546e-06 0)
(42.5594 -6.6437e-07 0)
(42.5584 -3.06001e-07 0)
(42.5576 -2.87281e-08 0)
(42.557 1.84517e-07 0)
(42.5566 3.44502e-07 0)
(42.5564 4.63797e-07 0)
(42.5564 5.51799e-07 0)
(42.5566 6.15859e-07 0)
(42.557 6.62377e-07 0)
(42.5576 6.95673e-07 0)
(42.5582 7.19017e-07 0)
(42.559 7.35568e-07 0)
(42.5598 7.46768e-07 0)
(42.5606 7.54263e-07 0)
(42.5614 7.59029e-07 0)
(42.5621 7.61742e-07 0)
(42.5628 7.63029e-07 0)
(42.5633 7.6325e-07 0)
(42.5636 7.62699e-07 0)
(42.5637 7.62123e-07 0)
(42.5636 7.59797e-07 0)
(42.5633 7.59176e-07 0)
(42.5627 7.56301e-07 0)
(42.5618 7.54523e-07 0)
(42.5607 7.52341e-07 0)
(42.5593 7.50499e-07 0)
(42.5577 7.48623e-07 0)
(42.5559 7.46973e-07 0)
(42.5539 7.45374e-07 0)
(42.5517 7.4476e-07 0)
(42.5495 7.43392e-07 0)
(42.5472 7.43338e-07 0)
(42.545 7.43559e-07 0)
(42.5428 7.44166e-07 0)
(42.5407 7.45193e-07 0)
(42.5388 7.46647e-07 0)
(42.5371 7.48518e-07 0)
(42.5357 7.50777e-07 0)
(42.5345 7.53196e-07 0)
(42.5336 7.55874e-07 0)
(42.5331 7.58531e-07 0)
(42.5328 7.60297e-07 0)
(42.5329 7.64165e-07 0)
(42.5332 7.66258e-07 0)
(42.5338 7.68759e-07 0)
(42.5346 7.70478e-07 0)
(42.5356 7.72287e-07 0)
(42.5368 7.73241e-07 0)
(42.538 7.74164e-07 0)
(42.5393 7.74391e-07 0)
(42.5405 7.7424e-07 0)
(42.5417 7.73693e-07 0)
(42.5428 7.72551e-07 0)
(42.5436 7.70938e-07 0)
(42.5443 7.69062e-07 0)
(42.5447 7.67725e-07 0)
(42.5448 7.63447e-07 0)
(42.5445 7.61886e-07 0)
(42.5439 7.58074e-07 0)
(42.5429 7.54213e-07 0)
(42.5415 7.51514e-07 0)
(42.5398 7.48141e-07 0)
(42.5377 7.45465e-07 0)
(42.5353 7.42392e-07 0)
(42.5326 7.40522e-07 0)
(42.5298 7.3822e-07 0)
(42.5268 7.37479e-07 0)
(42.5238 7.36848e-07 0)
(42.5209 7.37471e-07 0)
(42.518 7.3881e-07 0)
(42.5155 7.40744e-07 0)
(42.5132 7.43654e-07 0)
(42.5112 7.47171e-07 0)
(42.5097 7.50887e-07 0)
(42.5087 7.55611e-07 0)
(42.5081 7.63347e-07 0)
(42.508 7.47377e-07 0)
(42.5083 7.77783e-07 0)
(42.509 7.73677e-07 0)
(42.5101 7.74789e-07 0)
(42.5115 7.80705e-07 0)
(42.5132 7.82194e-07 0)
(42.5151 7.85097e-07 0)
(42.5172 7.86213e-07 0)
(42.5193 7.883e-07 0)
(42.5215 7.87794e-07 0)
(42.5237 7.88559e-07 0)
(42.5258 7.86591e-07 0)
(42.5277 7.86122e-07 0)
(42.5294 7.83332e-07 0)
(42.5308 7.81261e-07 0)
(42.5318 7.77214e-07 0)
(42.5323 7.74439e-07 0)
(42.5324 7.74058e-07 0)
(42.5319 7.59455e-07 0)
(42.5309 7.59446e-07 0)
(42.5292 7.54432e-07 0)
(42.5269 7.47355e-07 0)
(42.524 7.43414e-07 0)
(42.5206 7.36685e-07 0)
(42.5168 7.35221e-07 0)
(42.5127 7.27003e-07 0)
(42.5083 7.33989e-07 0)
(42.5039 7.23854e-07 0)
(42.4996 7.36193e-07 0)
(42.4956 7.28152e-07 0)
(42.4921 7.46945e-07 0)
(42.4892 7.40057e-07 0)
(42.487 7.60482e-07 0)
(42.4856 7.5606e-07 0)
(42.485 7.60704e-07 0)
(42.4852 1.10774e-06 0)
(42.4861 1.70098e-06 0)
(42.4877 8.08181e-06 0)
(42.4908 5.21272e-05 0)
(42.5013 0.000375206 0)
(42.5641 0.00294866 0)
(42.797 0.0402877 0)
(48.1682 0.164976 0)
(38.2761 1.29871 -3.15918e-15)
(37.1821 3.72588 6.33734e-15)
(36.7521 6.49127 -1.18812e-14)
(36.3272 9.29034 2.45508e-14)
(35.6572 12.0612 -2.53292e-14)
(34.7903 14.8048 -1.5816e-15)
(33.916 17.5932 5.78467e-20)
(33.0809 20.5217 -2.20316e-14)
(31.9423 23.3872 -1.02155e-13)
(30.1915 25.8299 1.00579e-13)
(27.8533 27.7195 -2.51619e-14)
(25.1449 29.1167 -5.20122e-14)
(22.364 30.36 2.68743e-14)
(20.1779 32.5091 0)
(18.7258 36.4509 2.48576e-14)
(17.311 41.7737 2.44895e-14)
(15.1306 46.9811 -2.42259e-14)
(12.0061 50.2095 2.41624e-14)
(8.34485 50.9466 1.88737e-16)
(4.67072 50.9369 -1.88413e-16)
(39.5064 2.05739 0)
(38.8526 5.01302 0)
(38.4262 8.27183 -1.60829e-15)
(37.8868 11.5118 -3.21345e-15)
(37.0759 14.6897 8.0239e-15)
(36.0407 17.7879 1.60223e-14)
(35.0146 20.8177 0)
(33.9836 24.036 9.54269e-15)
(32.4294 27.4859 1.58896e-14)
(30.0736 30.6183 -3.81355e-14)
(27.0715 33.0689 2.54014e-14)
(23.6997 34.7907 1.27164e-14)
(20.5811 35.7219 -1.27589e-14)
(18.9605 36.572 1.27092e-14)
(18.1912 39.0645 0)
(16.8548 43.5134 -1.54346e-15)
(13.7892 49.0093 1.52704e-15)
(8.84024 53.5944 -5.33325e-15)
(3.39294 55.4924 -7.62053e-16)
(-0.722165 55.2348 0)
(42.3887 1.64521 -4.09691e-17)
(42.3888 2.71569 -2.08213e-14)
(42.4911 3.80393 2.11463e-14)
(42.6785 4.88638 -2.03246e-14)
(42.9007 6.03626 -2.22931e-14)
(43.1143 7.32914 8.29773e-14)
(43.2701 8.80167 -4.20054e-14)
(43.3609 10.4145 4.0721e-14)
(43.4405 12.1365 -8.28383e-14)
(43.4843 14.07 1.32285e-15)
(43.3644 16.3173 4.08018e-14)
(42.9352 18.8889 0)
(42.0487 21.7409 -4.07986e-14)
(40.4676 24.7309 4.08242e-14)
(38.3623 27.4829 -3.2944e-16)
(36.3416 29.7281 0)
(35.0004 31.5563 3.31052e-16)
(34.367 33.4024 0)
(33.8053 35.6392 0)
(32.8719 38.2301 0)
(46.6529 2.64361 6.25852e-16)
(46.3814 6.06882 -6.2792e-15)
(45.3502 10.1434 -1.25851e-15)
(44.1272 14.3284 2.51474e-15)
(43.0129 18.4578 -2.504e-15)
(41.9476 22.5225 -4.95012e-19)
(40.7592 26.5166 -9.8988e-15)
(39.2876 30.3955 0)
(37.493 34.1437 0)
(35.3775 37.7529 -4.8691e-15)
(32.9177 41.1712 4.84501e-15)
(30.1334 44.389 0)
(27.0274 47.3566 -4.79902e-15)
(23.6296 50.0415 4.78236e-15)
(19.9719 52.4246 -4.76517e-15)
(16.0759 54.4845 9.49774e-15)
(11.9593 56.1853 -4.7382e-15)
(7.66569 57.4796 0)
(3.29869 58.3606 -2.35798e-15)
(-0.686054 58.78 0)
(49.6498 1.82003 -9.54533e-16)
(50.6299 4.66353 7.31706e-15)
(50.3264 8.08136 5.09045e-15)
(49.4943 11.6645 1.01742e-14)
(48.6479 15.3812 0)
(47.8127 19.2331 0)
(46.8476 23.1677 1.00729e-14)
(45.6202 27.1018 2.5067e-15)
(44.0625 31.0126 -4.99043e-15)
(42.1771 34.832 2.48481e-15)
(39.9255 38.5212 1.97944e-14)
(37.3254 42.0294 -1.23249e-14)
(34.3771 45.3119 1.22867e-14)
(31.098 48.3327 -2.44929e-15)
(27.5208 51.0528 -9.77288e-15)
(23.6861 53.4144 -1.70742e-14)
(19.6402 55.3351 -8.52888e-15)
(15.428 56.7125 -1.21852e-15)
(11.1227 57.4033 7.01301e-15)
(6.98838 57.0721 3.0587e-16)
(1.65618 53.4564 0)
(1.02241 56.2531 0)
(0.965876 58.8712 0)
(1.07803 59.6394 0)
(1.09795 59.203 0)
(1.10023 58.8891 0)
(1.07654 59.0159 0)
(1.07683 59.2439 0)
(1.08652 59.3016 0)
(1.08861 59.2503 0)
(1.08802 59.2007 0)
(1.08643 59.1724 0)
(1.08454 59.1522 0)
(1.08274 59.1312 0)
(1.08104 59.1082 0)
(1.07938 59.0856 0)
(1.07776 59.0664 0)
(1.07622 59.0519 0)
(1.07477 59.042 0)
(1.07339 59.0358 0)
(1.07203 59.0316 0)
(1.07066 59.0281 0)
(1.0692 59.024 0)
(1.06762 59.0181 0)
(1.06585 59.0096 0)
(1.0639 58.9981 0)
(1.06176 58.9833 0)
(1.05947 58.9653 0)
(1.05707 58.9442 0)
(1.05462 58.9206 0)
(1.05216 58.895 0)
(1.04974 58.8678 0)
(1.04741 58.8398 0)
(1.04519 58.8115 0)
(1.04312 58.7835 0)
(1.04121 58.7562 0)
(1.03946 58.73 0)
(1.03787 58.7053 0)
(1.03641 58.6823 0)
(1.03506 58.661 0)
(1.0338 58.6417 0)
(1.03259 58.6241 0)
(1.03139 58.6082 0)
(1.03018 58.5937 0)
(1.02893 58.5802 0)
(1.02763 58.5674 0)
(1.02626 58.5548 0)
(1.02481 58.5421 0)
(1.02327 58.5288 0)
(1.02162 58.5145 0)
(1.01982 58.499 0)
(1.01778 58.4823 0)
(1.01528 58.4658 0)
(1.01172 58.4551 0)
(1.00501 58.47 0)
(0.997001 58.5288 0)
(0.991802 58.6113 0)
(0.989994 58.6756 0)
(0.989323 58.6984 0)
(0.985655 58.6847 0)
(0.978416 58.6559 0)
(0.967891 58.6271 0)
(0.954317 58.5993 0)
(0.937721 58.571 0)
(0.918025 58.5401 0)
(0.895126 58.5043 0)
(0.868957 58.4608 0)
(0.839524 58.4067 0)
(0.80693 58.3391 0)
(0.771387 58.2549 0)
(0.733218 58.1513 0)
(0.692848 58.0261 0)
(0.650786 57.8772 0)
(0.607593 57.7034 0)
(0.563857 57.5033 0)
(0.520152 57.2757 0)
(0.477012 57.0187 0)
(0.434895 56.7287 0)
(0.394168 56.4006 0)
(0.35509 56.0271 0)
(0.317822 55.5996 0)
(0.282427 55.1084 0)
(0.248877 54.5444 0)
(0.217229 53.9002 0)
(0.187541 53.1725 0)
(0.159775 52.3635 0)
(0.134248 51.4827 0)
(0.111209 50.5475 0)
(0.0908799 49.5827 0)
(0.0732974 48.6183 0)
(0.0587021 47.6854 0)
(0.0467744 46.8126 0)
(0.0372394 46.0225 0)
(0.0297222 45.329 0)
(0.0238206 44.7376 0)
(0.0191667 44.246 0)
(0.0154604 43.8464 0)
(0.0124634 43.5277 0)