/*--------------------------------*- C++ -*----------------------------------*\
| =========                 |                                                 |
| \\      /  F ield         | OpenFOAM: The Open Source CFD Toolbox           |
|  \\    /   O peration     | Version:  3.0.x                                 |
|   \\  /    A nd           | Web:      www.OpenFOAM.org                      |
|    \\/     M anipulation  |                                                 |
\*---------------------------------------------------------------------------*/
FoamFile
{
    version     2.0;
    format      ascii;
    class       surfaceScalarField;
    location    "0.16";
    object      phi;
}
// * * * * * * * * * * * * * * * * * * * * * * * * * * * * * * * * * * * * * //

dimensions      [1 0 -1 0 0 0 0];

internalField   nonuniform List<scalar> 
26210
(
3.90708
0.000503796
3.90689
0.0003464
3.90671
0.000339167
3.90654
0.000341266
3.90636
0.000341527
3.90619
0.000341394
3.90601
0.000341468
3.90584
0.0003415
3.90566
0.000341398
3.90548
0.000341425
3.90529
0.000341371
3.90511
0.000341253
3.90492
0.000341006
3.90472
0.000340516
3.90453
0.000339604
3.90432
0.00033801
3.9041
0.000335386
3.90386
0.000331312
3.90362
0.000325325
3.90335
0.000316965
3.90307
0.000305851
3.90277
0.000291702
3.90246
0.00027453
3.90214
0.00025449
3.9018
0.000232033
3.90144
0.000207812
3.90108
0.000182629
3.90069
0.000157358
3.90029
0.000132843
3.89987
0.000109832
3.89943
8.89047e-05
3.89897
7.04454e-05
3.89849
5.46375e-05
3.89799
4.14818e-05
3.89746
3.08323e-05
3.89691
2.24394e-05
3.89635
1.5994e-05
3.89577
1.11659e-05
3.89518
7.63514e-06
3.89458
5.1125e-06
3.89397
3.34717e-06
3.89337
2.13272e-06
3.89277
1.32847e-06
3.89217
8.44684e-07
3.89159
3.99523e-07
3.89103
1.84438e-07
3.89049
4.56894e-08
3.88997
-5.3351e-08
3.88948
-1.21414e-07
3.88902
-1.68904e-07
3.88859
-2.04735e-07
3.88819
-2.30029e-07
3.88783
-2.51963e-07
3.88751
-2.66871e-07
3.88721
-2.8031e-07
3.88695
-2.89143e-07
3.88673
-2.95106e-07
3.88653
-2.99333e-07
3.88637
-2.99293e-07
3.88623
-2.97066e-07
3.88611
-2.93054e-07
3.88602
-2.86152e-07
3.88594
-2.76745e-07
3.88588
-2.65547e-07
3.88584
-2.52967e-07
3.8858
-2.38422e-07
3.88577
-2.22401e-07
3.88575
-2.05975e-07
3.88573
-1.88153e-07
3.88571
-1.69483e-07
3.8857
-1.51049e-07
3.88568
-1.31957e-07
3.88566
-1.13145e-07
3.88564
-9.44347e-08
3.88561
-7.62302e-08
3.88558
-5.83277e-08
3.88555
-4.1382e-08
3.88551
-2.51748e-08
3.88547
-9.77525e-09
3.88543
4.65297e-09
3.88539
1.80407e-08
3.88534
3.02825e-08
3.8853
4.17895e-08
3.88525
5.19212e-08
3.8852
6.12781e-08
3.88516
6.96709e-08
3.88512
7.6976e-08
3.88507
8.37281e-08
3.88504
8.95598e-08
3.885
9.49258e-08
3.88497
9.95533e-08
3.88494
1.02958e-07
3.88492
1.05454e-07
3.8849
1.07288e-07
3.88488
1.09183e-07
3.88487
1.11206e-07
3.88486
1.13094e-07
3.88486
1.14855e-07
3.88486
1.15891e-07
3.88487
1.16939e-07
3.88488
1.17438e-07
3.88489
1.1786e-07
3.8849
1.18169e-07
3.88492
1.18485e-07
3.88494
1.18795e-07
3.88496
1.19071e-07
3.88499
1.19409e-07
3.88501
1.1969e-07
3.88504
1.20028e-07
3.88507
1.2037e-07
3.8851
1.20741e-07
3.88513
1.21159e-07
3.88516
1.21647e-07
3.88519
1.22203e-07
3.88522
1.2272e-07
3.88525
1.23302e-07
3.88528
1.2391e-07
3.8853
1.24543e-07
3.88533
1.25201e-07
3.88536
1.25892e-07
3.88539
1.26558e-07
3.88541
1.27195e-07
3.88544
1.27882e-07
3.88546
1.28435e-07
3.88549
1.2893e-07
3.88551
1.29639e-07
3.88553
1.30465e-07
3.88555
1.30785e-07
3.88557
1.32841e-07
3.8856
1.30309e-07
3.88561
1.3315e-07
3.88563
1.3271e-07
3.88565
1.33688e-07
3.88567
1.3315e-07
3.88569
1.3263e-07
3.88571
1.32986e-07
3.88573
1.34249e-07
3.88575
1.35278e-07
3.88576
1.35733e-07
3.88578
1.35838e-07
3.8858
1.35715e-07
3.88582
1.35635e-07
3.88583
1.3566e-07
3.88585
1.35777e-07
3.88587
1.35969e-07
3.88588
1.36148e-07
3.8859
1.36341e-07
3.88591
1.36562e-07
3.88592
1.36733e-07
3.88593
1.37017e-07
3.88594
1.37719e-07
3.88595
1.37577e-07
3.88595
1.37847e-07
3.88595
1.38243e-07
3.88595
1.39207e-07
3.88594
1.39971e-07
3.88592
1.40975e-07
3.8859
1.42096e-07
3.88588
1.43493e-07
3.88584
1.45032e-07
3.8858
1.46912e-07
3.88575
1.48993e-07
3.88569
1.51424e-07
3.88561
1.54188e-07
3.88553
1.57233e-07
3.88543
1.60737e-07
3.88532
1.64568e-07
3.88519
1.68831e-07
3.88505
1.73601e-07
3.88489
1.78748e-07
3.88472
1.84413e-07
3.88453
1.90652e-07
3.88432
1.97237e-07
3.88409
2.04443e-07
3.88384
2.12109e-07
3.88357
2.20152e-07
3.88329
2.28792e-07
3.88298
2.37575e-07
3.88266
2.46797e-07
3.88232
2.56208e-07
3.88197
2.65569e-07
3.8816
2.75249e-07
3.88123
2.84366e-07
3.88084
2.93508e-07
3.88045
3.02218e-07
3.88005
3.10349e-07
3.87966
3.184e-07
3.87927
3.28204e-07
3.87888
3.48758e-07
3.87851
4.2564e-07
3.87816
7.78931e-07
3.87782
2.46906e-06
3.8775
1.06073e-05
3.87717
4.98014e-05
3.87668
0.000238138
3.87534
0.00113941
3.86975
0.00542035
3.84401
0.0256113
3.7121
0.131833
0.500525
3.21154
5.52622
0.000460476
5.52646
0.00032928
5.52671
0.000314076
5.52696
0.000318505
5.52723
0.000318935
5.52748
0.000318746
5.52774
0.00031885
5.52799
0.000318931
5.52825
0.000318883
5.5285
0.000318947
5.52874
0.000318938
5.52898
0.000318869
5.52922
0.000318679
5.52945
0.00031826
5.52967
0.000317443
5.52987
0.000315984
5.53006
0.000313557
5.53022
0.000309764
5.53034
0.000304173
5.53044
0.00029635
5.53049
0.000285939
5.53051
0.00027268
5.53047
0.000256586
5.53039
0.000237805
5.53025
0.000216765
5.53006
0.00019408
5.52981
0.000170506
5.52949
0.000146861
5.52912
0.000123937
5.52869
0.00010243
5.5282
8.2882e-05
5.52766
6.56489e-05
5.52705
5.0899e-05
5.5264
3.86301e-05
5.52571
2.87033e-05
5.52497
2.08834e-05
5.52419
1.48807e-05
5.52339
1.03859e-05
5.52256
7.10012e-06
5.52172
4.75319e-06
5.52087
3.11123e-06
5.52002
1.98217e-06
5.51917
1.23492e-06
5.51833
7.83046e-07
5.51751
3.73071e-07
5.51671
1.70729e-07
5.51594
4.18822e-08
5.51521
-4.99731e-08
5.51452
-1.13212e-07
5.51387
-1.57466e-07
5.51326
-1.90797e-07
5.5127
-2.14448e-07
5.51219
-2.3481e-07
5.51172
-2.48809e-07
5.51131
-2.61274e-07
5.51094
-2.69558e-07
5.51062
-2.75113e-07
5.51034
-2.7904e-07
5.51011
-2.79046e-07
5.50991
-2.76945e-07
5.50975
-2.73209e-07
5.50961
-2.66788e-07
5.5095
-2.57993e-07
5.50942
-2.4757e-07
5.50935
-2.35803e-07
5.5093
-2.22248e-07
5.50926
-2.07305e-07
5.50923
-1.9196e-07
5.5092
-1.75341e-07
5.50917
-1.57932e-07
5.50915
-1.40708e-07
5.50912
-1.22918e-07
5.5091
-1.05347e-07
5.50906
-8.78954e-08
5.50903
-7.09097e-08
5.50899
-5.42186e-08
5.50894
-3.83952e-08
5.50889
-2.32849e-08
5.50883
-8.90213e-09
5.50877
4.58567e-09
5.50871
1.70603e-08
5.50865
2.84817e-08
5.50858
3.92229e-08
5.50851
4.86853e-08
5.50845
5.74073e-08
5.50838
6.52417e-08
5.50832
7.20738e-08
5.50826
7.83602e-08
5.50821
8.38299e-08
5.50816
8.88285e-08
5.50811
9.31523e-08
5.50807
9.633e-08
5.50804
9.86583e-08
5.50801
1.00392e-07
5.50799
1.02167e-07
5.50797
1.04052e-07
5.50796
1.05827e-07
5.50796
1.07459e-07
5.50796
1.0843e-07
5.50797
1.09399e-07
5.50798
1.09863e-07
5.50799
1.10262e-07
5.50802
1.10545e-07
5.50804
1.10833e-07
5.50807
1.11126e-07
5.5081
1.1138e-07
5.50813
1.11682e-07
5.50817
1.11941e-07
5.50821
1.1225e-07
5.50825
1.12565e-07
5.50829
1.12908e-07
5.50833
1.13294e-07
5.50837
1.13749e-07
5.50842
1.14262e-07
5.50846
1.1474e-07
5.5085
1.1528e-07
5.50854
1.15844e-07
5.50858
1.16435e-07
5.50862
1.17043e-07
5.50866
1.17687e-07
5.5087
1.18313e-07
5.50873
1.18906e-07
5.50877
1.19549e-07
5.5088
1.20079e-07
5.50884
1.20543e-07
5.50887
1.21203e-07
5.5089
1.2198e-07
5.50893
1.22327e-07
5.50896
1.24102e-07
5.50899
1.21971e-07
5.50902
1.24204e-07
5.50904
1.24313e-07
5.50907
1.25074e-07
5.5091
1.24528e-07
5.50912
1.24082e-07
5.50915
1.24412e-07
5.50918
1.25594e-07
5.5092
1.26551e-07
5.50923
1.26967e-07
5.50925
1.27062e-07
5.50928
1.26945e-07
5.5093
1.26873e-07
5.50933
1.26891e-07
5.50935
1.26998e-07
5.50937
1.27164e-07
5.50939
1.27324e-07
5.50941
1.27497e-07
5.50943
1.27702e-07
5.50945
1.27853e-07
5.50947
1.28121e-07
5.50948
1.28755e-07
5.50949
1.28646e-07
5.50949
1.28864e-07
5.50949
1.29252e-07
5.50948
1.30131e-07
5.50947
1.30853e-07
5.50945
1.31782e-07
5.50942
1.3283e-07
5.50938
1.34134e-07
5.50933
1.35571e-07
5.50927
1.37317e-07
5.5092
1.39269e-07
5.50911
1.41536e-07
5.50901
1.44122e-07
5.50889
1.46978e-07
5.50875
1.50239e-07
5.50859
1.53826e-07
5.50841
1.5781e-07
5.50821
1.62265e-07
5.50799
1.67072e-07
5.50774
1.7236e-07
5.50747
1.78183e-07
5.50717
1.84342e-07
5.50685
1.91061e-07
5.5065
1.98215e-07
5.50612
2.05737e-07
5.50572
2.13766e-07
5.50529
2.22004e-07
5.50483
2.30581e-07
5.50435
2.39415e-07
5.50386
2.48105e-07
5.50334
2.57211e-07
5.5028
2.65722e-07
5.50226
2.74214e-07
5.5017
2.82345e-07
5.50114
2.90167e-07
5.50058
2.98533e-07
5.50003
3.12466e-07
5.49949
3.53715e-07
5.49896
5.32506e-07
5.49846
1.37944e-06
5.49798
5.45e-06
5.49753
2.50637e-05
5.49707
0.000119526
5.49638
0.000573456
5.49448
0.00274612
5.48658
0.0130758
5.45022
0.0617947
5.26836
0.313585
1.15827
4.61057
7.81526
0.000402738
7.8156
0.000302197
7.81595
0.000279487
7.81631
0.000285909
7.81668
0.000286582
7.81704
0.000286291
7.8174
0.000286378
7.81776
0.000286465
7.81812
0.000286431
7.81848
0.000286487
7.81882
0.000286482
7.81916
0.000286423
7.8195
0.000286255
7.81982
0.000285885
7.82014
0.00028516
7.82043
0.000283864
7.82069
0.000281705
7.82092
0.000278328
7.8211
0.000273345
7.82123
0.000266367
7.82131
0.000257074
7.82133
0.000245228
7.82128
0.000230836
7.82116
0.000214027
7.82097
0.000195182
7.82069
0.000174846
7.82034
0.000153694
7.8199
0.00013246
7.81937
0.000111856
7.81876
9.25081e-05
7.81807
7.4907e-05
7.81729
5.93762e-05
7.81644
4.6071e-05
7.81552
3.49936e-05
7.81454
2.60225e-05
7.81349
1.89486e-05
7.8124
1.35136e-05
7.81126
9.43989e-06
7.81009
6.45906e-06
7.8089
4.32789e-06
7.8077
2.83547e-06
7.80649
1.80872e-06
7.80529
1.12856e-06
7.8041
7.13281e-07
7.80294
3.45388e-07
7.80182
1.57975e-07
7.80073
4.03916e-08
7.79969
-4.30164e-08
7.79871
-1.00575e-07
7.79779
-1.40841e-07
7.79693
-1.70992e-07
7.79614
-1.92475e-07
7.79542
-2.10758e-07
7.79476
-2.23481e-07
7.79418
-2.34612e-07
7.79366
-2.42131e-07
7.7932
-2.47116e-07
7.79281
-2.506e-07
7.79248
-2.50659e-07
7.7922
-2.48749e-07
7.79196
-2.45381e-07
7.79177
-2.39635e-07
7.79162
-2.31727e-07
7.7915
-2.22378e-07
7.79141
-2.11772e-07
7.79133
-1.99612e-07
7.79128
-1.86206e-07
7.79123
-1.72392e-07
7.79119
-1.57484e-07
7.79116
-1.41858e-07
7.79112
-1.26354e-07
7.79109
-1.10408e-07
7.79105
-9.4612e-08
7.791
-7.8945e-08
7.79095
-6.36819e-08
7.79089
-4.87071e-08
7.79082
-3.44889e-08
7.79075
-2.09366e-08
7.79067
-7.99537e-09
7.79059
4.19095e-09
7.7905
1.53095e-08
7.79041
2.55786e-08
7.79032
3.52165e-08
7.79022
4.37358e-08
7.79013
5.15529e-08
7.79004
5.85924e-08
7.78995
6.47442e-08
7.78987
7.0364e-08
7.78979
7.53071e-08
7.78972
7.97854e-08
7.78966
8.36553e-08
7.7896
8.65184e-08
7.78955
8.86039e-08
7.78951
9.01819e-08
7.78948
9.17744e-08
7.78946
9.34624e-08
7.78944
9.50586e-08
7.78944
9.6511e-08
7.78944
9.73923e-08
7.78945
9.82564e-08
7.78947
9.86784e-08
7.78949
9.90358e-08
7.78952
9.92968e-08
7.78955
9.95569e-08
7.78959
9.98134e-08
7.78964
1.00052e-07
7.78969
1.0031e-07
7.78974
1.00551e-07
7.78979
1.00829e-07
7.78985
1.01108e-07
7.78991
1.01416e-07
7.78996
1.01764e-07
7.79002
1.02172e-07
7.79008
1.02631e-07
7.79014
1.03064e-07
7.7902
1.03546e-07
7.79026
1.04056e-07
7.79032
1.04586e-07
7.79037
1.05137e-07
7.79043
1.05711e-07
7.79048
1.06274e-07
7.79053
1.06809e-07
7.79058
1.07383e-07
7.79063
1.07862e-07
7.79068
1.08281e-07
7.79073
1.08869e-07
7.79077
1.09574e-07
7.79081
1.09923e-07
7.79085
1.11368e-07
7.7909
1.09742e-07
7.79093
1.11251e-07
7.79097
1.11852e-07
7.79101
1.12349e-07
7.79105
1.11823e-07
7.79109
1.11479e-07
7.79112
1.11761e-07
7.79116
1.12814e-07
7.79119
1.13667e-07
7.79123
1.14043e-07
7.79127
1.1413e-07
7.7913
1.14027e-07
7.79134
1.1396e-07
7.79137
1.13977e-07
7.7914
1.14078e-07
7.79144
1.1422e-07
7.79147
1.14369e-07
7.7915
1.14524e-07
7.79152
1.14706e-07
7.79155
1.14844e-07
7.79157
1.15094e-07
7.79159
1.15635e-07
7.7916
1.15575e-07
7.7916
1.15746e-07
7.7916
1.16109e-07
7.79159
1.16888e-07
7.79157
1.17543e-07
7.79154
1.18374e-07
7.7915
1.19318e-07
7.79145
1.20483e-07
7.79138
1.21782e-07
7.79129
1.23337e-07
7.79119
1.251e-07
7.79107
1.27131e-07
7.79092
1.29454e-07
7.79075
1.32019e-07
7.79055
1.34948e-07
7.79033
1.38175e-07
7.79008
1.41751e-07
7.7898
1.45748e-07
7.78948
1.50076e-07
7.78913
1.54824e-07
7.78875
1.60049e-07
7.78833
1.65592e-07
7.78787
1.71611e-07
7.78737
1.78047e-07
7.78684
1.84815e-07
7.78627
1.91993e-07
7.78566
1.99429e-07
7.78502
2.07081e-07
7.78434
2.15091e-07
7.78363
2.22835e-07
7.7829
2.31095e-07
7.78215
2.38758e-07
7.78137
2.46317e-07
7.78059
2.53634e-07
7.7798
2.60988e-07
7.77901
2.6977e-07
7.77822
2.89354e-07
7.77746
3.59149e-07
7.77672
6.78468e-07
7.776
2.20654e-06
7.77533
9.56104e-06
7.77469
4.50067e-05
7.77403
0.000215724
7.77308
0.00103618
7.77044
0.00496413
7.75953
0.0236514
7.70938
0.111691
7.46276
0.560045
2.02445
6.59651
34.4982
0.000186324
34.4997
0.000158282
34.5012
0.000137835
34.5028
0.000142384
34.5045
0.000143652
34.5061
0.000143299
34.5077
0.000143254
34.5093
0.000143294
34.5108
0.000143271
34.5124
0.000143284
34.5139
0.000143275
34.5154
0.000143243
34.5169
0.000143161
34.5183
0.000142983
34.5197
0.000142635
34.521
0.00014201
34.5222
0.000140965
34.5232
0.000139324
34.524
0.000136893
34.5246
0.000133475
34.5249
0.000128908
34.525
0.000123068
34.5248
0.000115951
34.5243
0.000107616
34.5234
9.82476e-05
34.5222
8.81125e-05
34.5206
7.75463e-05
34.5187
6.69157e-05
34.5164
5.65786e-05
34.5137
4.68523e-05
34.5106
3.79868e-05
34.5072
3.01497e-05
34.5034
2.34236e-05
34.4994
1.78142e-05
34.495
1.32639e-05
34.4904
9.67007e-06
34.4856
6.90479e-06
34.4806
4.82898e-06
34.4754
3.30797e-06
34.4702
2.21901e-06
34.4648
1.45556e-06
34.4595
9.30324e-07
34.4542
5.81695e-07
34.449
3.64357e-07
34.4438
1.82115e-07
34.4389
8.25285e-08
34.4341
2.21257e-08
34.4295
-1.97542e-08
34.4252
-4.94679e-08
34.4211
-6.99529e-08
34.4173
-8.51951e-08
34.4138
-9.61231e-08
34.4106
-1.05224e-07
34.4077
-1.11752e-07
34.4052
-1.17242e-07
34.4029
-1.21045e-07
34.4009
-1.23579e-07
34.3991
-1.25249e-07
34.3977
-1.25339e-07
34.3964
-1.24374e-07
34.3954
-1.22664e-07
34.3946
-1.19824e-07
34.3939
-1.15849e-07
34.3933
-1.11201e-07
34.3929
-1.05857e-07
34.3926
-9.97907e-08
34.3924
-9.31041e-08
34.3922
-8.61633e-08
34.392
-7.87386e-08
34.3918
-7.09242e-08
34.3917
-6.31444e-08
34.3915
-5.52041e-08
34.3913
-4.72778e-08
34.3911
-3.94616e-08
34.3909
-3.18041e-08
34.3907
-2.43326e-08
34.3904
-1.71726e-08
34.39
-1.035e-08
34.3897
-3.97677e-09
34.3893
1.69575e-09
34.3889
7.70342e-09
34.3885
1.2807e-08
34.3881
1.76074e-08
34.3877
2.18815e-08
34.3873
2.57778e-08
34.3869
2.92998e-08
34.3865
3.23844e-08
34.3861
3.51733e-08
34.3858
3.76617e-08
34.3855
3.98977e-08
34.3852
4.18272e-08
34.385
4.3261e-08
34.3847
4.42992e-08
34.3846
4.51009e-08
34.3844
4.58872e-08
34.3843
4.67289e-08
34.3843
4.75334e-08
34.3842
4.82441e-08
34.3842
4.86975e-08
34.3843
4.91236e-08
34.3844
4.93383e-08
34.3845
4.95143e-08
34.3846
4.96511e-08
34.3848
4.97766e-08
34.3849
4.99062e-08
34.3851
5.00299e-08
34.3853
5.01509e-08
34.3856
5.02755e-08
34.3858
5.04169e-08
34.386
5.05552e-08
34.3863
5.07084e-08
34.3866
5.08812e-08
34.3868
5.10845e-08
34.3871
5.13128e-08
34.3874
5.15338e-08
34.3876
5.17716e-08
34.3879
5.20263e-08
34.3881
5.229e-08
34.3884
5.25674e-08
34.3886
5.28521e-08
34.3889
5.3135e-08
34.3891
5.34028e-08
34.3893
5.3682e-08
34.3895
5.39258e-08
34.3897
5.41299e-08
34.3899
5.44073e-08
34.3901
5.47439e-08
34.3903
5.49462e-08
34.3905
5.55688e-08
34.3907
5.51331e-08
34.3908
5.54019e-08
34.391
5.61431e-08
34.3912
5.6205e-08
34.3914
5.58784e-08
34.3915
5.57634e-08
34.3917
5.58871e-08
34.3918
5.63987e-08
34.392
5.68211e-08
34.3922
5.70126e-08
34.3923
5.70581e-08
34.3925
5.70126e-08
34.3926
5.69803e-08
34.3928
5.69885e-08
34.3929
5.70421e-08
34.3931
5.71099e-08
34.3932
5.71858e-08
34.3933
5.72645e-08
34.3934
5.73541e-08
34.3936
5.74264e-08
34.3936
5.75546e-08
34.3937
5.77975e-08
34.3938
5.78038e-08
34.3938
5.78711e-08
34.3938
5.80667e-08
34.3937
5.84341e-08
34.3937
5.87765e-08
34.3935
5.91845e-08
34.3934
5.96624e-08
34.3931
6.02395e-08
34.3928
6.08961e-08
34.3924
6.16665e-08
34.392
6.25514e-08
34.3914
6.35628e-08
34.3908
6.4721e-08
34.39
6.60116e-08
34.3892
6.74695e-08
34.3882
6.90879e-08
34.3871
7.08792e-08
34.3858
7.28728e-08
34.3844
7.50406e-08
34.3829
7.74153e-08
34.3812
8.00178e-08
34.3793
8.28104e-08
34.3773
8.57908e-08
34.3751
8.90414e-08
34.3728
9.24397e-08
34.3702
9.59039e-08
34.3676
9.97497e-08
34.3647
1.03375e-07
34.3617
1.07672e-07
34.3586
1.11347e-07
34.3554
1.15804e-07
34.3521
1.19814e-07
34.3486
1.23099e-07
34.3452
1.2709e-07
34.3417
1.318e-07
34.3382
1.42523e-07
34.3347
1.8322e-07
34.3314
3.6526e-07
34.3281
1.2329e-06
34.3249
5.42304e-06
34.322
2.56156e-05
34.3192
0.000122966
34.3163
0.000591964
34.3123
0.00284698
34.3018
0.0136469
34.259
0.064907
34.0669
0.302719
33.2485
1.37776
4.85881
30.4138
34.4981
-2.72848e-12
34.4997
-2.72848e-12
34.5012
9.09495e-13
34.5028
1.36424e-12
34.5044
-2.72848e-12
34.506
0
34.5076
-9.09495e-13
34.5092
0
34.5108
-2.72848e-12
34.5124
-2.27374e-12
34.5139
-9.09495e-13
34.5154
9.09495e-13
34.5169
-9.09495e-13
34.5183
-9.09495e-13
34.5197
-1.36424e-12
34.521
1.81899e-12
34.5222
4.09273e-12
34.5232
3.18323e-12
34.524
-2.27374e-12
34.5245
-4.09273e-12
34.5249
-1.81899e-12
34.525
-4.54747e-13
34.5248
0
34.5242
-1.36424e-12
34.5234
-1.36424e-12
34.5222
0
34.5206
-4.54747e-13
34.5187
1.81899e-12
34.5164
0
34.5137
-1.36424e-12
34.5106
9.09495e-13
34.5072
1.36424e-12
34.5034
-2.27374e-12
34.4994
-4.54747e-13
34.495
-9.09495e-13
34.4904
-2.72848e-12
34.4856
-9.09495e-13
34.4806
9.09495e-13
34.4754
-4.54747e-13
34.4702
9.09495e-13
34.4648
0
34.4595
4.54747e-13
34.4542
-4.54747e-13
34.449
-1.81899e-12
34.4438
-2.27374e-12
34.4389
-9.09495e-13
34.4341
-4.54747e-13
34.4295
1.36424e-12
34.4252
1.81899e-12
34.4211
0
34.4173
0
34.4138
4.54747e-13
34.4106
1.36424e-12
34.4077
4.54747e-13
34.4052
-3.18323e-12
34.4029
9.09495e-13
34.4009
2.72848e-12
34.3991
2.72848e-12
34.3977
1.36424e-12
34.3964
9.09495e-13
34.3954
-4.54747e-13
34.3946
-1.36424e-12
34.3939
-9.09495e-13
34.3933
2.72848e-12
34.3929
-9.09495e-13
34.3926
-4.54747e-13
34.3924
4.54747e-13
34.3922
-9.09495e-13
34.392
4.54747e-13
34.3918
9.09495e-13
34.3917
9.09495e-13
34.3915
-4.54747e-13
34.3913
0
34.3911
-4.54747e-13
34.3909
-9.09495e-13
34.3907
-4.09273e-12
34.3904
-2.72848e-12
34.39
-2.72848e-12
34.3897
-1.81899e-12
34.3893
-4.54747e-13
34.3889
0
34.3885
-1.81899e-12
34.3881
4.54747e-13
34.3877
-9.09495e-13
34.3873
9.09495e-13
34.3869
3.63798e-12
34.3865
4.54747e-13
34.3861
-9.09495e-13
34.3858
9.09495e-13
34.3855
1.81899e-12
34.3852
4.09273e-12
34.385
2.27374e-12
34.3847
-4.54747e-13
34.3846
-1.81899e-12
34.3844
-1.36424e-12
34.3843
-5.91172e-12
34.3843
-4.54747e-12
34.3842
-4.09273e-12
34.3842
-3.18323e-12
34.3843
-3.63798e-12
34.3844
-3.18323e-12
34.3845
-2.72848e-12
34.3846
-2.72848e-12
34.3848
-2.27374e-12
34.3849
-1.81899e-12
34.3851
9.09495e-13
34.3853
-1.36424e-12
34.3856
-4.09273e-12
34.3858
3.18323e-12
34.386
1.36424e-12
34.3863
1.36424e-12
34.3866
-1.81899e-12
34.3868
-2.27374e-12
34.3871
-4.54747e-13
34.3874
2.27374e-12
34.3876
1.81899e-12
34.3879
-9.09495e-13
34.3881
-9.09495e-13
34.3884
-1.36424e-12
34.3886
4.54747e-13
34.3889
2.27374e-12
34.3891
-4.54747e-13
34.3893
-1.36424e-12
34.3895
9.09495e-13
34.3897
1.36424e-12
34.3899
1.81899e-12
34.3901
-1.36424e-12
34.3903
-3.63798e-12
34.3905
1.36424e-12
34.3907
9.09495e-13
34.3908
2.27374e-12
34.391
9.09495e-13
34.3912
1.36424e-12
34.3914
-4.54747e-13
34.3915
0
34.3917
9.09495e-13
34.3918
2.27374e-12
34.392
3.18323e-12
34.3922
9.09495e-13
34.3923
3.63798e-12
34.3925
0
34.3926
0
34.3928
-4.54747e-13
34.3929
0
34.3931
-3.18323e-12
34.3932
-1.81899e-12
34.3933
4.54747e-13
34.3934
1.81899e-12
34.3936
0
34.3936
-4.54747e-13
34.3937
-1.36424e-12
34.3938
1.81899e-12
34.3938
-9.09495e-13
34.3938
1.36424e-12
34.3937
1.81899e-12
34.3937
-1.36424e-12
34.3935
4.54747e-13
34.3934
-4.54747e-13
34.3931
2.72848e-12
34.3928
1.81899e-12
34.3924
9.09495e-13
34.392
-1.36424e-12
34.3914
0
34.3908
1.36424e-12
34.39
1.81899e-12
34.3892
2.27374e-12
34.3882
4.54747e-13
34.3871
2.72848e-12
34.3858
2.72848e-12
34.3844
-2.27374e-12
34.3829
6.36646e-12
34.3812
-1.04592e-11
34.3793
1.90994e-11
34.3773
-2.18279e-11
34.3751
2.91038e-11
34.3728
7.68523e-11
34.3702
-2.05091e-10
34.3676
1.55069e-10
34.3647
-4.22006e-10
34.3617
4.75666e-10
34.3586
-5.79803e-10
34.3554
9.40872e-10
34.3521
2.58751e-10
34.3486
2.63753e-10
34.3452
-2.41016e-11
34.3417
2.74622e-09
34.3382
9.83346e-09
34.3347
6.08352e-08
34.3314
2.78667e-07
34.3281
1.35904e-06
34.3249
6.55942e-06
34.322
3.16369e-05
34.3192
0.000152643
34.3166
0.000736313
34.3137
0.00355025
34.3084
0.017102
34.2897
0.082121
34.2016
0.389712
33.7691
1.80958
6.46774
32.1599
34.4981
-0.000186324
34.4997
-0.000158282
34.5012
-0.000137835
34.5028
-0.000142384
34.5044
-0.000143652
34.506
-0.000143299
34.5076
-0.000143254
34.5092
-0.000143294
34.5108
-0.000143271
34.5124
-0.000143284
34.5139
-0.000143275
34.5154
-0.000143243
34.5169
-0.000143161
34.5183
-0.000142983
34.5197
-0.000142635
34.521
-0.00014201
34.5222
-0.000140965
34.5232
-0.000139324
34.524
-0.000136893
34.5245
-0.000133475
34.5249
-0.000128908
34.525
-0.000123068
34.5248
-0.000115951
34.5242
-0.000107616
34.5234
-9.82476e-05
34.5222
-8.81125e-05
34.5206
-7.75463e-05
34.5187
-6.69157e-05
34.5164
-5.65785e-05
34.5137
-4.68523e-05
34.5106
-3.79868e-05
34.5072
-3.01497e-05
34.5034
-2.34236e-05
34.4994
-1.78142e-05
34.495
-1.32639e-05
34.4904
-9.67007e-06
34.4856
-6.90479e-06
34.4806
-4.82898e-06
34.4754
-3.30797e-06
34.4702
-2.21901e-06
34.4648
-1.45556e-06
34.4595
-9.30324e-07
34.4542
-5.81696e-07
34.449
-3.64359e-07
34.4438
-1.82118e-07
34.4389
-8.25294e-08
34.4341
-2.21262e-08
34.4295
1.97547e-08
34.4252
4.94701e-08
34.4211
6.99524e-08
34.4173
8.51956e-08
34.4138
9.61263e-08
34.4106
1.05226e-07
34.4077
1.11752e-07
34.4052
1.17235e-07
34.4029
1.21048e-07
34.4009
1.23585e-07
34.3991
1.25253e-07
34.3977
1.25341e-07
34.3964
1.24376e-07
34.3954
1.22663e-07
34.3946
1.1982e-07
34.3939
1.15848e-07
34.3933
1.11208e-07
34.3929
1.05857e-07
34.3926
9.9792e-08
34.3924
9.31059e-08
34.3922
8.61628e-08
34.392
7.8739e-08
34.3918
7.09269e-08
34.3917
6.31462e-08
34.3915
5.52004e-08
34.3913
4.7276e-08
34.3911
3.94616e-08
34.3909
3.18009e-08
34.3907
2.4324e-08
34.3904
1.71685e-08
34.39
1.0346e-08
34.3897
3.97131e-09
34.3893
-1.69484e-09
34.3889
-7.70387e-09
34.3885
-1.28084e-08
34.3881
-1.76069e-08
34.3877
-2.18843e-08
34.3873
-2.57764e-08
34.3869
-2.92921e-08
34.3865
-3.23839e-08
34.3861
-3.51747e-08
34.3858
-3.76585e-08
34.3855
-3.9895e-08
34.3852
-4.18172e-08
34.385
-4.32569e-08
34.3847
-4.42997e-08
34.3846
-4.51023e-08
34.3844
-4.58881e-08
34.3843
-4.67403e-08
34.3843
-4.75411e-08
34.3842
-4.82528e-08
34.3842
-4.87021e-08
34.3843
-4.91309e-08
34.3844
-4.93446e-08
34.3845
-4.9522e-08
34.3846
-4.96552e-08
34.3848
-4.97812e-08
34.3849
-4.9909e-08
34.3851
-5.00277e-08
34.3853
-5.0155e-08
34.3856
-5.02819e-08
34.3858
-5.04097e-08
34.386
-5.05543e-08
34.3863
-5.07084e-08
34.3866
-5.08853e-08
34.3868
-5.10904e-08
34.3871
-5.13137e-08
34.3874
-5.15292e-08
34.3876
-5.17684e-08
34.3879
-5.20313e-08
34.3881
-5.22919e-08
34.3884
-5.25729e-08
34.3886
-5.28498e-08
34.3889
-5.31304e-08
34.3891
-5.34019e-08
34.3893
-5.36834e-08
34.3895
-5.3923e-08
34.3897
-5.41272e-08
34.3899
-5.44051e-08
34.3901
-5.47475e-08
34.3903
-5.49553e-08
34.3905
-5.55651e-08
34.3907
-5.5129e-08
34.3908
-5.5395e-08
34.391
-5.61408e-08
34.3912
-5.62027e-08
34.3914
-5.58794e-08
34.3915
-5.57629e-08
34.3917
-5.58862e-08
34.3918
-5.63928e-08
34.392
-5.68157e-08
34.3922
-5.7008e-08
34.3923
-5.70512e-08
34.3925
-5.70126e-08
34.3926
-5.69821e-08
34.3928
-5.6988e-08
34.3929
-5.70421e-08
34.3931
-5.71149e-08
34.3932
-5.71895e-08
34.3933
-5.72636e-08
34.3934
-5.73505e-08
34.3936
-5.74273e-08
34.3936
-5.7556e-08
34.3937
-5.77988e-08
34.3938
-5.77993e-08
34.3938
-5.78739e-08
34.3938
-5.80644e-08
34.3937
-5.843e-08
34.3937
-5.87802e-08
34.3935
-5.91849e-08
34.3934
-5.96629e-08
34.3931
-6.02327e-08
34.3928
-6.08911e-08
34.3924
-6.16656e-08
34.392
-6.25546e-08
34.3914
-6.35646e-08
34.3908
-6.47187e-08
34.39
-6.60084e-08
34.3892
-6.74654e-08
34.3882
-6.90857e-08
34.3871
-7.08742e-08
34.3858
-7.28705e-08
34.3844
-7.50433e-08
34.3829
-7.74062e-08
34.3812
-8.0031e-08
34.3793
-8.27858e-08
34.3773
-8.58167e-08
34.3751
-8.89895e-08
34.3728
-9.2346e-08
34.3702
-9.615e-08
34.3676
-9.96279e-08
34.3647
-1.03824e-07
34.3617
-1.07264e-07
34.3586
-1.11739e-07
34.3554
-1.14797e-07
34.3521
-1.19097e-07
34.3486
-1.22907e-07
34.3452
-1.26854e-07
34.3417
-1.27603e-07
34.3382
-1.24883e-07
34.3347
-8.79577e-08
34.3314
8.79418e-08
34.3281
9.52665e-07
34.325
5.14389e-06
34.322
2.5357e-05
34.3193
0.000122983
34.317
0.000594864
34.3154
0.00288054
34.3167
0.0140065
34.3287
0.068631
34.3782
0.339144
34.4494
1.73769
5.90498
35.0119
34.4982
-0.000402738
34.4997
-0.000302197
34.5012
-0.000279487
34.5028
-0.000285909
34.5045
-0.000286582
34.5061
-0.000286291
34.5077
-0.000286378
34.5093
-0.000286465
34.5108
-0.000286431
34.5124
-0.000286487
34.5139
-0.000286482
34.5154
-0.000286423
34.5169
-0.000286255
34.5183
-0.000285885
34.5197
-0.00028516
34.521
-0.000283864
34.5222
-0.000281705
34.5232
-0.000278328
34.524
-0.000273345
34.5246
-0.000266367
34.5249
-0.000257074
34.525
-0.000245228
34.5248
-0.000230836
34.5243
-0.000214027
34.5234
-0.000195182
34.5222
-0.000174846
34.5206
-0.000153694
34.5187
-0.00013246
34.5164
-0.000111856
34.5137
-9.25081e-05
34.5106
-7.4907e-05
34.5072
-5.93762e-05
34.5034
-4.6071e-05
34.4994
-3.49936e-05
34.495
-2.60225e-05
34.4904
-1.89486e-05
34.4856
-1.35136e-05
34.4806
-9.43989e-06
34.4754
-6.45906e-06
34.4702
-4.32788e-06
34.4648
-2.83547e-06
34.4595
-1.80872e-06
34.4542
-1.12856e-06
34.449
-7.1328e-07
34.4438
-3.45389e-07
34.4389
-1.57977e-07
34.4341
-4.03916e-08
34.4295
4.30164e-08
34.4252
1.00576e-07
34.4211
1.40837e-07
34.4173
1.70993e-07
34.4138
1.92482e-07
34.4106
2.10761e-07
34.4077
2.23478e-07
34.4052
2.34602e-07
34.4029
2.42138e-07
34.4009
2.47122e-07
34.3991
2.50606e-07
34.3977
2.50657e-07
34.3964
2.48751e-07
34.3954
2.4538e-07
34.3946
2.39628e-07
34.3939
2.31727e-07
34.3933
2.22389e-07
34.3929
2.1177e-07
34.3926
1.9961e-07
34.3924
1.86209e-07
34.3922
1.72392e-07
34.392
1.57486e-07
34.3918
1.41855e-07
34.3917
1.26354e-07
34.3915
1.10404e-07
34.3913
9.46093e-08
34.3911
7.8946e-08
34.3909
6.36801e-08
34.3907
4.87016e-08
34.3904
3.44871e-08
34.39
2.09329e-08
34.3897
7.98718e-09
34.3893
-4.19277e-09
34.3889
-1.53123e-08
34.3885
-2.55814e-08
34.3881
-3.52111e-08
34.3877
-4.37367e-08
34.3873
-5.1552e-08
34.3869
-5.85842e-08
34.3865
-6.47433e-08
34.3861
-7.0364e-08
34.3858
-7.52998e-08
34.3855
-7.97854e-08
34.3852
-8.36417e-08
34.385
-8.6513e-08
34.3847
-8.86039e-08
34.3846
-9.01837e-08
34.3844
-9.17735e-08
34.3843
-9.3476e-08
34.3843
-9.50658e-08
34.3842
-9.65192e-08
34.3842
-9.73941e-08
34.3843
-9.82654e-08
34.3844
-9.86847e-08
34.3845
-9.90449e-08
34.3846
-9.93005e-08
34.3848
-9.95633e-08
34.3849
-9.9817e-08
34.3851
-1.00047e-07
34.3853
-1.00313e-07
34.3856
-1.00556e-07
34.3858
-1.00818e-07
34.386
-1.01109e-07
34.3863
-1.01416e-07
34.3866
-1.01768e-07
34.3868
-1.02176e-07
34.3871
-1.02631e-07
34.3874
-1.03057e-07
34.3876
-1.03538e-07
34.3879
-1.04063e-07
34.3881
-1.04586e-07
34.3884
-1.05144e-07
34.3886
-1.05706e-07
34.3889
-1.06267e-07
34.3891
-1.06806e-07
34.3893
-1.07384e-07
34.3895
-1.07857e-07
34.3897
-1.08277e-07
34.3899
-1.08867e-07
34.3901
-1.09576e-07
34.3903
-1.09933e-07
34.3905
-1.11361e-07
34.3907
-1.09739e-07
34.3908
-1.11243e-07
34.391
-1.11848e-07
34.3912
-1.12349e-07
34.3914
-1.11828e-07
34.3915
-1.11478e-07
34.3917
-1.11761e-07
34.3918
-1.12807e-07
34.392
-1.13662e-07
34.3922
-1.14038e-07
34.3923
-1.14122e-07
34.3925
-1.14028e-07
34.3926
-1.13963e-07
34.3928
-1.13973e-07
34.3929
-1.14075e-07
34.3931
-1.14226e-07
34.3932
-1.14373e-07
34.3933
-1.14524e-07
34.3934
-1.14701e-07
34.3936
-1.14845e-07
34.3936
-1.15094e-07
34.3937
-1.1564e-07
34.3938
-1.15568e-07
34.3938
-1.1575e-07
34.3938
-1.16104e-07
34.3937
-1.1688e-07
34.3937
-1.17547e-07
34.3935
-1.18371e-07
34.3934
-1.19321e-07
34.3931
-1.20472e-07
34.3928
-1.21776e-07
34.3924
-1.23336e-07
34.392
-1.25106e-07
34.3914
-1.27133e-07
34.3908
-1.29447e-07
34.39
-1.32017e-07
34.3892
-1.34943e-07
34.3882
-1.38172e-07
34.3871
-1.41746e-07
34.3858
-1.45748e-07
34.3844
-1.50078e-07
34.3829
-1.54818e-07
34.3812
-1.60054e-07
34.3793
-1.6558e-07
34.3773
-1.71614e-07
34.3751
-1.78032e-07
34.3728
-1.84775e-07
34.3702
-1.92096e-07
34.3676
-1.99377e-07
34.3647
-2.07239e-07
34.3617
-2.14929e-07
34.3586
-2.22999e-07
34.3554
-2.30717e-07
34.3521
-2.38568e-07
34.3486
-2.46256e-07
34.3452
-2.53528e-07
34.3417
-2.59445e-07
34.3382
-2.63499e-07
34.3347
-2.54755e-07
34.3314
-1.94465e-07
34.3281
1.18448e-07
34.325
1.64222e-06
34.322
9.00388e-06
34.3194
4.45743e-05
34.3173
0.000216596
34.3169
0.0010511
34.3239
0.00513521
34.3654
0.0256347
34.5687
0.134781
35.3631
0.942618
3.02544
38.2424
7.81526
-0.000460476
7.8156
-0.00032928
7.81595
-0.000314076
7.81631
-0.000318505
7.81668
-0.000318935
7.81704
-0.000318746
7.8174
-0.00031885
7.81776
-0.000318931
7.81812
-0.000318883
7.81848
-0.000318947
7.81882
-0.000318938
7.81916
-0.000318869
7.8195
-0.000318679
7.81982
-0.00031826
7.82014
-0.000317443
7.82043
-0.000315984
7.82069
-0.000313557
7.82092
-0.000309764
7.8211
-0.000304173
7.82123
-0.00029635
7.82131
-0.000285939
7.82133
-0.00027268
7.82128
-0.000256586
7.82116
-0.000237805
7.82097
-0.000216765
7.82069
-0.00019408
7.82034
-0.000170506
7.8199
-0.000146861
7.81937
-0.000123937
7.81876
-0.00010243
7.81807
-8.28819e-05
7.81729
-6.56489e-05
7.81644
-5.0899e-05
7.81552
-3.86302e-05
7.81454
-2.87033e-05
7.81349
-2.08834e-05
7.8124
-1.48807e-05
7.81126
-1.0386e-05
7.81009
-7.10012e-06
7.8089
-4.75319e-06
7.8077
-3.11123e-06
7.80649
-1.98217e-06
7.80529
-1.23492e-06
7.8041
-7.83044e-07
7.80294
-3.73075e-07
7.80182
-1.70732e-07
7.80073
-4.18822e-08
7.79969
4.99713e-08
7.79871
1.1321e-07
7.79779
1.57463e-07
7.79693
1.90796e-07
7.79614
2.1445e-07
7.79542
2.34808e-07
7.79476
2.48805e-07
7.79418
2.61263e-07
7.79366