/*--------------------------------*- C++ -*----------------------------------*\
| =========                 |                                                 |
| \\      /  F ield         | OpenFOAM: The Open Source CFD Toolbox           |
|  \\    /   O peration     | Version:  3.0.x                                 |
|   \\  /    A nd           | Web:      www.OpenFOAM.org                      |
|    \\/     M anipulation  |                                                 |
\*---------------------------------------------------------------------------*/
FoamFile
{
    version     2.0;
    format      ascii;
    class       volVectorField;
    location    "0.03";
    object      U;
}
// * * * * * * * * * * * * * * * * * * * * * * * * * * * * * * * * * * * * * //

dimensions      [0 1 -1 0 0 0 0];

internalField   nonuniform List<vector> 
13800
(
(42.6962 0.000139292 0)
(42.6927 0.00011431 0)
(42.6894 0.000100084 0)
(42.6866 8.3185e-05 0)
(42.6844 6.3044e-05 0)
(42.6828 4.34861e-05 0)
(42.6818 2.73772e-05 0)
(42.6812 1.58054e-05 0)
(42.6809 8.42461e-06 0)
(42.6807 4.18445e-06 0)
(42.6806 1.96671e-06 0)
(42.6806 8.9925e-07 0)
(42.6805 4.23839e-07 0)
(42.6805 2.2644e-07 0)
(42.6805 1.49622e-07 0)
(42.6805 1.21467e-07 0)
(42.6805 1.11705e-07 0)
(42.6805 1.08496e-07 0)
(42.6805 1.07488e-07 0)
(42.6805 1.07184e-07 0)
(42.6804 1.07104e-07 0)
(42.6804 1.07087e-07 0)
(42.6804 1.0708e-07 0)
(42.6804 1.07077e-07 0)
(42.6804 1.07081e-07 0)
(42.6804 1.07078e-07 0)
(42.6804 1.07087e-07 0)
(42.6804 1.07085e-07 0)
(42.6804 1.07091e-07 0)
(42.6803 1.07092e-07 0)
(42.6803 1.07095e-07 0)
(42.6803 1.07092e-07 0)
(42.6803 1.07089e-07 0)
(42.6803 1.0709e-07 0)
(42.6803 1.071e-07 0)
(42.6803 1.07101e-07 0)
(42.6803 1.07104e-07 0)
(42.6803 1.07106e-07 0)
(42.6802 1.07113e-07 0)
(42.6802 1.07117e-07 0)
(42.6802 1.07115e-07 0)
(42.6802 1.07116e-07 0)
(42.6802 1.07121e-07 0)
(42.6802 1.07122e-07 0)
(42.6802 1.07124e-07 0)
(42.6802 1.0712e-07 0)
(42.6802 1.07126e-07 0)
(42.6801 1.07124e-07 0)
(42.6801 1.07129e-07 0)
(42.6801 1.07128e-07 0)
(42.6801 1.07136e-07 0)
(42.6801 1.07138e-07 0)
(42.6801 1.07139e-07 0)
(42.6801 1.0714e-07 0)
(42.6801 1.07143e-07 0)
(42.6801 1.07143e-07 0)
(42.6801 1.07142e-07 0)
(42.68 1.07142e-07 0)
(42.68 1.07144e-07 0)
(42.68 1.07144e-07 0)
(42.68 1.07145e-07 0)
(42.68 1.07154e-07 0)
(42.68 1.07159e-07 0)
(42.68 1.07161e-07 0)
(42.68 1.07162e-07 0)
(42.68 1.07166e-07 0)
(42.6799 1.07162e-07 0)
(42.6799 1.07164e-07 0)
(42.6799 1.07163e-07 0)
(42.6799 1.07168e-07 0)
(42.6799 1.0717e-07 0)
(42.6799 1.07171e-07 0)
(42.6799 1.07178e-07 0)
(42.6799 1.07174e-07 0)
(42.6799 1.07177e-07 0)
(42.6798 1.07179e-07 0)
(42.6798 1.07187e-07 0)
(42.6798 1.07186e-07 0)
(42.6798 1.07167e-07 0)
(42.6798 1.07176e-07 0)
(42.6798 1.0718e-07 0)
(42.6798 1.07188e-07 0)
(42.6798 1.07191e-07 0)
(42.6798 1.07192e-07 0)
(42.6798 1.07195e-07 0)
(42.6798 1.07192e-07 0)
(42.6798 1.07201e-07 0)
(42.6798 1.07208e-07 0)
(42.6798 1.07203e-07 0)
(42.6797 1.07205e-07 0)
(42.6797 1.07208e-07 0)
(42.6797 1.07216e-07 0)
(42.6797 1.0723e-07 0)
(42.6797 1.07235e-07 0)
(42.6796 1.07246e-07 0)
(42.6796 1.07257e-07 0)
(42.6795 1.07275e-07 0)
(42.6793 1.07307e-07 0)
(42.6791 1.07344e-07 0)
(42.6788 1.07409e-07 0)
(42.6783 1.0749e-07 0)
(42.6777 1.07597e-07 0)
(42.6768 1.0774e-07 0)
(42.6755 1.07924e-07 0)
(42.6738 1.0817e-07 0)
(42.6715 1.08467e-07 0)
(42.6683 1.08835e-07 0)
(42.6641 1.09264e-07 0)
(42.6587 1.09756e-07 0)
(42.6516 1.10333e-07 0)
(42.6428 1.10909e-07 0)
(42.6317 1.11468e-07 0)
(42.6181 1.1195e-07 0)
(42.6017 1.12274e-07 0)
(42.5823 1.12322e-07 0)
(42.5598 1.11953e-07 0)
(42.5341 1.10989e-07 0)
(42.5055 1.09247e-07 0)
(42.4743 1.06533e-07 0)
(42.4413 1.0266e-07 0)
(42.4072 9.74848e-08 0)
(42.3732 9.0923e-08 0)
(42.3406 8.29671e-08 0)
(42.3108 7.37669e-08 0)
(42.2853 6.36298e-08 0)
(42.2654 5.28659e-08 0)
(42.2524 4.14284e-08 0)
(42.2471 2.99464e-08 0)
(42.2497 1.80678e-08 0)
(42.2603 6.53075e-10 0)
(42.2788 -9.40697e-09 0)
(42.3043 -1.47927e-08 0)
(42.3356 -1.63256e-08 0)
(42.371 -1.70274e-08 0)
(42.4086 -1.3213e-08 0)
(42.4467 -7.31115e-09 0)
(42.4835 2.3988e-10 0)
(42.5174 1.03377e-08 0)
(42.5475 2.00036e-08 0)
(42.5729 3.11898e-08 0)
(42.5933 4.22528e-08 0)
(42.6087 5.18991e-08 0)
(42.6195 6.16514e-08 0)
(42.6263 6.92446e-08 0)
(42.6297 7.56205e-08 0)
(42.6306 8.06089e-08 0)
(42.6298 8.38564e-08 0)
(42.6277 8.68644e-08 0)
(42.6248 8.87375e-08 0)
(42.6217 8.95002e-08 0)
(42.6184 9.01833e-08 0)
(42.6154 9.00236e-08 0)
(42.6126 8.99756e-08 0)
(42.6101 8.98872e-08 0)
(42.6078 8.943e-08 0)
(42.6059 8.93597e-08 0)
(42.6042 8.9008e-08 0)
(42.6027 8.87038e-08 0)
(42.6015 8.87005e-08 0)
(42.6004 8.82516e-08 0)
(42.5994 8.82348e-08 0)
(42.5986 8.8162e-08 0)
(42.5979 8.79988e-08 0)
(42.5973 8.8038e-08 0)
(42.5968 8.78436e-08 0)
(42.5963 8.77798e-08 0)
(42.596 8.77739e-08 0)
(42.5958 8.76723e-08 0)
(42.5956 8.77808e-08 0)
(42.5955 8.76973e-08 0)
(42.5955 8.77023e-08 0)
(42.5956 8.77761e-08 0)
(42.5957 8.77294e-08 0)
(42.5958 8.77821e-08 0)
(42.596 8.78105e-08 0)
(42.5963 8.78608e-08 0)
(42.5966 8.7996e-08 0)
(42.597 8.80119e-08 0)
(42.5973 8.80886e-08 0)
(42.5977 8.81938e-08 0)
(42.5982 8.82526e-08 0)
(42.5986 8.8374e-08 0)
(42.5991 8.84612e-08 0)
(42.5995 8.8547e-08 0)
(42.6 8.86816e-08 0)
(42.6004 8.87715e-08 0)
(42.6009 8.89709e-08 0)
(42.6013 8.96549e-08 0)
(42.6017 9.7019e-08 0)
(42.6021 1.01687e-07 0)
(42.6025 1.69441e-07 0)
(42.6028 4.63759e-07 0)
(42.6031 2.03976e-06 0)
(42.6031 9.47716e-06 0)
(42.6021 4.59188e-05 0)
(42.5961 0.000223086 0)
(42.5669 0.00105959 0)
(42.4278 0.00499503 0)
(41.9694 0.0258745 0)
(37.6658 0.10325 0)
(42.7001 0.000219083 0)
(42.7003 0.000150754 0)
(42.7005 0.000123732 0)
(42.7006 0.000100338 0)
(42.7007 7.44524e-05 0)
(42.7008 5.04787e-05 0)
(42.7008 3.13571e-05 0)
(42.7008 1.79071e-05 0)
(42.7008 9.45979e-06 0)
(42.7008 4.66498e-06 0)
(42.7008 2.18211e-06 0)
(42.7008 9.96089e-07 0)
(42.7008 4.71463e-07 0)
(42.7008 2.54766e-07 0)
(42.7008 1.7076e-07 0)
(42.7007 1.40054e-07 0)
(42.7007 1.29436e-07 0)
(42.7007 1.25951e-07 0)
(42.7007 1.24865e-07 0)
(42.7007 1.24538e-07 0)
(42.7007 1.24449e-07 0)
(42.7007 1.24422e-07 0)
(42.7007 1.24413e-07 0)
(42.7007 1.24418e-07 0)
(42.7007 1.24419e-07 0)
(42.7006 1.24422e-07 0)
(42.7006 1.24422e-07 0)
(42.7006 1.24423e-07 0)
(42.7006 1.24422e-07 0)
(42.7006 1.24426e-07 0)
(42.7006 1.24427e-07 0)
(42.7006 1.24433e-07 0)
(42.7006 1.24436e-07 0)
(42.7006 1.24442e-07 0)
(42.7005 1.24439e-07 0)
(42.7005 1.24445e-07 0)
(42.7005 1.24443e-07 0)
(42.7005 1.24444e-07 0)
(42.7005 1.24441e-07 0)
(42.7005 1.24446e-07 0)
(42.7005 1.24449e-07 0)
(42.7005 1.24447e-07 0)
(42.7005 1.24446e-07 0)
(42.7004 1.2445e-07 0)
(42.7004 1.24453e-07 0)
(42.7004 1.24458e-07 0)
(42.7004 1.24458e-07 0)
(42.7004 1.24465e-07 0)
(42.7004 1.2446e-07 0)
(42.7004 1.24463e-07 0)
(42.7004 1.24469e-07 0)
(42.7004 1.24465e-07 0)
(42.7003 1.24469e-07 0)
(42.7003 1.2447e-07 0)
(42.7003 1.24471e-07 0)
(42.7003 1.24473e-07 0)
(42.7003 1.24476e-07 0)
(42.7003 1.24479e-07 0)
(42.7003 1.24481e-07 0)
(42.7003 1.24488e-07 0)
(42.7003 1.24488e-07 0)
(42.7002 1.24486e-07 0)
(42.7002 1.24482e-07 0)
(42.7002 1.24485e-07 0)
(42.7002 1.24491e-07 0)
(42.7002 1.24489e-07 0)
(42.7002 1.24496e-07 0)
(42.7002 1.24497e-07 0)
(42.7002 1.24504e-07 0)
(42.7002 1.24504e-07 0)
(42.7002 1.24503e-07 0)
(42.7001 1.24507e-07 0)
(42.7001 1.24509e-07 0)
(42.7001 1.24513e-07 0)
(42.7001 1.24509e-07 0)
(42.7001 1.24512e-07 0)
(42.7001 1.24517e-07 0)
(42.7001 1.24512e-07 0)
(42.7001 1.24522e-07 0)
(42.7001 1.24529e-07 0)
(42.7001 1.24536e-07 0)
(42.7001 1.2453e-07 0)
(42.7 1.24535e-07 0)
(42.7 1.24537e-07 0)
(42.7 1.24536e-07 0)
(42.7 1.24535e-07 0)
(42.7 1.2454e-07 0)
(42.7 1.24545e-07 0)
(42.7 1.2455e-07 0)
(42.7 1.24549e-07 0)
(42.7 1.24559e-07 0)
(42.7 1.24566e-07 0)
(42.7 1.24575e-07 0)
(42.6999 1.2459e-07 0)
(42.6999 1.24616e-07 0)
(42.6998 1.24662e-07 0)
(42.6997 1.24721e-07 0)
(42.6996 1.24802e-07 0)
(42.6994 1.24921e-07 0)
(42.6991 1.25082e-07 0)
(42.6986 1.25317e-07 0)
(42.698 1.2563e-07 0)
(42.6971 1.26055e-07 0)
(42.6958 1.26624e-07 0)
(42.6941 1.27369e-07 0)
(42.6917 1.28323e-07 0)
(42.6885 1.2953e-07 0)
(42.6844 1.3103e-07 0)
(42.6789 1.32845e-07 0)
(42.6719 1.34989e-07 0)
(42.663 1.37469e-07 0)
(42.652 1.40244e-07 0)
(42.6384 1.43237e-07 0)
(42.622 1.46308e-07 0)
(42.6026 1.49259e-07 0)
(42.58 1.51836e-07 0)
(42.5544 1.53705e-07 0)
(42.5258 1.54477e-07 0)
(42.4946 1.5373e-07 0)
(42.4615 1.51027e-07 0)
(42.4275 1.4596e-07 0)
(42.3935 1.38215e-07 0)
(42.3608 1.27635e-07 0)
(42.331 1.14235e-07 0)
(42.3055 9.83162e-08 0)
(42.2856 8.02786e-08 0)
(42.2726 6.02931e-08 0)
(42.2673 4.05546e-08 0)
(42.2699 2.08926e-08 0)
(42.2805 -8.02595e-09 0)
(42.299 -2.55561e-08 0)
(42.3245 -3.70576e-08 0)
(42.3558 -4.28979e-08 0)
(42.3912 -4.67015e-08 0)
(42.4288 -4.26005e-08 0)
(42.4669 -3.49187e-08 0)
(42.5037 -2.33027e-08 0)
(42.5377 -5.17308e-09 0)
(42.5677 1.06327e-08 0)
(42.5931 2.76694e-08 0)
(42.6135 4.48517e-08 0)
(42.6289 5.9415e-08 0)
(42.6397 7.41678e-08 0)
(42.6465 8.60738e-08 0)
(42.6499 9.56418e-08 0)
(42.6508 1.02769e-07 0)
(42.65 1.07728e-07 0)
(42.6479 1.12103e-07 0)
(42.645 1.1434e-07 0)
(42.6419 1.14937e-07 0)
(42.6386 1.15468e-07 0)
(42.6356 1.14499e-07 0)
(42.6328 1.13709e-07 0)
(42.6303 1.12963e-07 0)
(42.628 1.11703e-07 0)
(42.6261 1.11026e-07 0)
(42.6244 1.09953e-07 0)
(42.6229 1.09084e-07 0)
(42.6217 1.08641e-07 0)
(42.6206 1.07514e-07 0)
(42.6196 1.07152e-07 0)
(42.6188 1.06687e-07 0)
(42.6181 1.06092e-07 0)
(42.6175 1.05806e-07 0)
(42.6169 1.05176e-07 0)
(42.6165 1.04828e-07 0)
(42.6162 1.04533e-07 0)
(42.616 1.04097e-07 0)
(42.6158 1.04061e-07 0)
(42.6157 1.03691e-07 0)
(42.6157 1.0346e-07 0)
(42.6158 1.03296e-07 0)
(42.6159 1.02988e-07 0)
(42.616 1.02876e-07 0)
(42.6162 1.02697e-07 0)
(42.6165 1.02574e-07 0)
(42.6168 1.02622e-07 0)
(42.6171 1.02475e-07 0)
(42.6175 1.02422e-07 0)
(42.6179 1.02419e-07 0)
(42.6183 1.02362e-07 0)
(42.6188 1.02451e-07 0)
(42.6192 1.02475e-07 0)
(42.6197 1.02492e-07 0)
(42.6201 1.02635e-07 0)
(42.6206 1.02756e-07 0)
(42.621 1.03254e-07 0)
(42.6215 1.05449e-07 0)
(42.6219 1.22871e-07 0)
(42.6223 1.52047e-07 0)
(42.6227 3.77627e-07 0)
(42.623 1.41182e-06 0)
(42.6233 6.71551e-06 0)
(42.6233 3.21113e-05 0)
(42.6223 0.000156277 0)
(42.6163 0.000759935 0)
(42.5873 0.00361023 0)
(42.449 0.0170021 0)
(41.9935 0.0865083 0)
(37.9278 0.327882 0)
(42.7001 0.000161412 0)
(42.7003 0.00010486 0)
(42.7005 8.80519e-05 0)
(42.7006 7.46584e-05 0)
(42.7007 5.67069e-05 0)
(42.7008 3.90542e-05 0)
(42.7008 2.46082e-05 0)
(42.7008 1.42399e-05 0)
(42.7008 7.61616e-06 0)
(42.7008 3.79915e-06 0)
(42.7008 1.79443e-06 0)
(42.7008 8.23728e-07 0)
(42.7008 3.88657e-07 0)
(42.7008 2.06616e-07 0)
(42.7008 1.35155e-07 0)
(42.7007 1.08717e-07 0)
(42.7007 9.94615e-08 0)
(42.7007 9.63848e-08 0)
(42.7007 9.54049e-08 0)
(42.7007 9.5115e-08 0)
(42.7007 9.50308e-08 0)
(42.7007 9.50111e-08 0)
(42.7007 9.50025e-08 0)
(42.7007 9.50029e-08 0)
(42.7007 9.50038e-08 0)
(42.7006 9.5003e-08 0)
(42.7006 9.50079e-08 0)
(42.7006 9.50064e-08 0)
(42.7006 9.50108e-08 0)
(42.7006 9.5016e-08 0)
(42.7006 9.50158e-08 0)
(42.7006 9.50156e-08 0)
(42.7006 9.50149e-08 0)
(42.7006 9.50193e-08 0)
(42.7005 9.50185e-08 0)
(42.7005 9.50213e-08 0)
(42.7005 9.50249e-08 0)
(42.7005 9.50279e-08 0)
(42.7005 9.50313e-08 0)
(42.7005 9.50285e-08 0)
(42.7005 9.50278e-08 0)
(42.7005 9.50363e-08 0)
(42.7005 9.5037e-08 0)
(42.7004 9.50381e-08 0)
(42.7004 9.50429e-08 0)
(42.7004 9.504e-08 0)
(42.7004 9.50414e-08 0)
(42.7004 9.5039e-08 0)
(42.7004 9.50456e-08 0)
(42.7004 9.50483e-08 0)
(42.7004 9.50501e-08 0)
(42.7004 9.50538e-08 0)
(42.7003 9.50529e-08 0)
(42.7003 9.50559e-08 0)
(42.7003 9.50563e-08 0)
(42.7003 9.50612e-08 0)
(42.7003 9.5058e-08 0)
(42.7003 9.50637e-08 0)
(42.7003 9.50615e-08 0)
(42.7003 9.5065e-08 0)
(42.7003 9.50613e-08 0)
(42.7003 9.50635e-08 0)
(42.7002 9.50654e-08 0)
(42.7002 9.50692e-08 0)
(42.7002 9.5072e-08 0)
(42.7002 9.50732e-08 0)
(42.7002 9.50746e-08 0)
(42.7002 9.50757e-08 0)
(42.7002 9.50762e-08 0)
(42.7002 9.50755e-08 0)
(42.7002 9.50788e-08 0)
(42.7001 9.50815e-08 0)
(42.7001 9.50821e-08 0)
(42.7001 9.50837e-08 0)
(42.7001 9.50855e-08 0)
(42.7001 9.50855e-08 0)
(42.7001 9.50909e-08 0)
(42.7001 9.50954e-08 0)
(42.7001 9.50954e-08 0)
(42.7001 9.50944e-08 0)
(42.7001 9.50969e-08 0)
(42.7001 9.50978e-08 0)
(42.7 9.50984e-08 0)
(42.7 9.51053e-08 0)
(42.7 9.5107e-08 0)
(42.7 9.51049e-08 0)
(42.7 9.51096e-08 0)
(42.7 9.51131e-08 0)
(42.7 9.51156e-08 0)
(42.7 9.51217e-08 0)
(42.7 9.51253e-08 0)
(42.7 9.51381e-08 0)
(42.7 9.51457e-08 0)
(42.6999 9.5163e-08 0)
(42.6999 9.51825e-08 0)
(42.6998 9.52211e-08 0)
(42.6997 9.5266e-08 0)
(42.6996 9.53361e-08 0)
(42.6994 9.54315e-08 0)
(42.6991 9.55671e-08 0)
(42.6986 9.57587e-08 0)
(42.698 9.60128e-08 0)
(42.6971 9.63648e-08 0)
(42.6958 9.68207e-08 0)
(42.6941 9.74168e-08 0)
(42.6917 9.81775e-08 0)
(42.6885 9.91279e-08 0)
(42.6844 1.00289e-07 0)
(42.6789 1.0167e-07 0)
(42.6719 1.03283e-07 0)
(42.663 1.0509e-07 0)
(42.652 1.07042e-07 0)
(42.6384 1.0904e-07 0)
(42.622 1.10953e-07 0)
(42.6026 1.12591e-07 0)
(42.58 1.13712e-07 0)
(42.5544 1.14029e-07 0)
(42.5258 1.13216e-07 0)
(42.4946 1.10927e-07 0)
(42.4615 1.06838e-07 0)
(42.4275 1.0067e-07 0)
(42.3935 9.22415e-08 0)
(42.3608 8.14775e-08 0)
(42.331 6.85225e-08 0)
(42.3055 5.36748e-08 0)
(42.2856 3.74707e-08 0)
(42.2726 2.07156e-08 0)
(42.2673 6.6008e-09 0)
(42.2699 -4.51051e-09 0)
(42.2805 -1.99086e-08 0)
(42.299 -3.03262e-08 0)
(42.3246 -3.71409e-08 0)
(42.3558 -3.93845e-08 0)
(42.3912 -3.92698e-08 0)
(42.4288 -3.24841e-08 0)
(42.4669 -2.29366e-08 0)
(42.5037 -1.04205e-08 0)
(42.5377 5.25483e-09 0)
(42.5677 1.8822e-08 0)
(42.5931 3.36128e-08 0)
(42.6135 4.80849e-08 0)
(42.6289 6.04175e-08 0)
(42.6397 7.19611e-08 0)
(42.6465 8.06449e-08 0)
(42.6499 8.73715e-08 0)
(42.6508 9.18158e-08 0)
(42.65 9.44247e-08 0)
(42.6479 9.6589e-08 0)
(42.645 9.70994e-08 0)
(42.6419 9.63231e-08 0)
(42.6386 9.54497e-08 0)
(42.6356 9.3692e-08 0)
(42.6328 9.21627e-08 0)
(42.6303 9.06952e-08 0)
(42.628 8.90116e-08 0)
(42.6261 8.78193e-08 0)
(42.6244 8.64214e-08 0)
(42.6229 8.5251e-08 0)
(42.6217 8.44434e-08 0)
(42.6206 8.32463e-08 0)
(42.6196 8.26255e-08 0)
(42.6188 8.19793e-08 0)
(42.6181 8.13197e-08 0)
(42.6175 8.08995e-08 0)
(42.6169 8.02573e-08 0)
(42.6165 7.98335e-08 0)
(42.6162 7.9482e-08 0)
(42.616 7.90711e-08 0)
(42.6158 7.89533e-08 0)
(42.6157 7.85954e-08 0)
(42.6157 7.83852e-08 0)
(42.6158 7.82434e-08 0)
(42.6159 7.79879e-08 0)
(42.616 7.78793e-08 0)
(42.6162 7.77449e-08 0)
(42.6165 7.76691e-08 0)
(42.6168 7.7705e-08 0)
(42.6171 7.75973e-08 0)
(42.6175 7.7577e-08 0)
(42.6179 7.75942e-08 0)
(42.6183 7.75783e-08 0)
(42.6188 7.76578e-08 0)
(42.6192 7.76941e-08 0)
(42.6197 7.77377e-08 0)
(42.6202 7.78829e-08 0)
(42.6206 7.80796e-08 0)
(42.621 7.89335e-08 0)
(42.6215 8.30873e-08 0)
(42.6219 1.0765e-07 0)
(42.6223 1.82246e-07 0)
(42.6227 6.20083e-07 0)
(42.623 2.71246e-06 0)
(42.6233 1.31472e-05 0)
(42.6233 6.36654e-05 0)
(42.6224 0.000310291 0)
(42.6165 0.00150951 0)
(42.588 0.00717609 0)
(42.4528 0.0338036 0)
(42.0078 0.171229 0)
(38.1503 0.634621 0)
(42.7001 0.000117277 0)
(42.7003 9.51193e-05 0)
(42.7005 8.19923e-05 0)
(42.7006 7.04684e-05 0)
(42.7007 5.42689e-05 0)
(42.7008 3.77356e-05 0)
(42.7008 2.39797e-05 0)
(42.7008 1.39872e-05 0)
(42.7008 7.53509e-06 0)
(42.7008 3.78224e-06 0)
(42.7008 1.79436e-06 0)
(42.7008 8.25216e-07 0)
(42.7008 3.87803e-07 0)
(42.7008 2.03657e-07 0)
(42.7008 1.30968e-07 0)
(42.7007 1.03931e-07 0)
(42.7007 9.44175e-08 0)
(42.7007 9.12352e-08 0)
(42.7007 9.02267e-08 0)
(42.7007 8.99161e-08 0)
(42.7007 8.98308e-08 0)
(42.7007 8.98097e-08 0)
(42.7007 8.98003e-08 0)
(42.7007 8.98012e-08 0)
(42.7007 8.98015e-08 0)
(42.7006 8.98034e-08 0)
(42.7006 8.98041e-08 0)
(42.7006 8.98051e-08 0)
(42.7006 8.98062e-08 0)
(42.7006 8.98089e-08 0)
(42.7006 8.9807e-08 0)
(42.7006 8.98074e-08 0)
(42.7006 8.98104e-08 0)
(42.7006 8.98134e-08 0)
(42.7005 8.98128e-08 0)
(42.7005 8.98143e-08 0)
(42.7005 8.98167e-08 0)
(42.7005 8.98169e-08 0)
(42.7005 8.98152e-08 0)
(42.7005 8.98198e-08 0)
(42.7005 8.98203e-08 0)
(42.7005 8.98223e-08 0)
(42.7005 8.98232e-08 0)
(42.7004 8.98262e-08 0)
(42.7004 8.98282e-08 0)
(42.7004 8.98267e-08 0)
(42.7004 8.98286e-08 0)
(42.7004 8.98303e-08 0)
(42.7004 8.98334e-08 0)
(42.7004 8.98307e-08 0)
(42.7004 8.98352e-08 0)
(42.7004 8.98346e-08 0)
(42.7003 8.98352e-08 0)
(42.7003 8.98338e-08 0)
(42.7003 8.98378e-08 0)
(42.7003 8.98363e-08 0)
(42.7003 8.98385e-08 0)
(42.7003 8.98399e-08 0)
(42.7003 8.98407e-08 0)
(42.7003 8.98427e-08 0)
(42.7003 8.98407e-08 0)
(42.7003 8.98415e-08 0)
(42.7002 8.98417e-08 0)
(42.7002 8.98437e-08 0)
(42.7002 8.9845e-08 0)
(42.7002 8.9845e-08 0)
(42.7002 8.98464e-08 0)
(42.7002 8.98479e-08 0)
(42.7002 8.98508e-08 0)
(42.7002 8.98539e-08 0)
(42.7002 8.98562e-08 0)
(42.7001 8.98558e-08 0)
(42.7001 8.9857e-08 0)
(42.7001 8.98603e-08 0)
(42.7001 8.98565e-08 0)
(42.7001 8.98596e-08 0)
(42.7001 8.98638e-08 0)
(42.7001 8.98635e-08 0)
(42.7001 8.98624e-08 0)
(42.7001 8.98679e-08 0)
(42.7001 8.98714e-08 0)
(42.7001 8.98714e-08 0)
(42.7 8.98739e-08 0)
(42.7 8.98745e-08 0)
(42.7 8.98728e-08 0)
(42.7 8.98729e-08 0)
(42.7 8.98756e-08 0)
(42.7 8.98788e-08 0)
(42.7 8.98825e-08 0)
(42.7 8.98851e-08 0)
(42.7 8.98889e-08 0)
(42.7 8.98965e-08 0)
(42.7 8.9902e-08 0)
(42.6999 8.99126e-08 0)
(42.6999 8.99256e-08 0)
(42.6998 8.99515e-08 0)
(42.6997 8.99849e-08 0)
(42.6996 9.0035e-08 0)
(42.6994 9.01076e-08 0)
(42.6991 9.02038e-08 0)
(42.6986 9.03405e-08 0)
(42.698 9.05232e-08 0)
(42.6971 9.07737e-08 0)
(42.6958 9.11032e-08 0)
(42.6941 9.15356e-08 0)
(42.6917 9.20852e-08 0)
(42.6885 9.27703e-08 0)
(42.6844 9.36129e-08 0)
(42.6789 9.46171e-08 0)
(42.6719 9.57905e-08 0)
(42.663 9.71128e-08 0)
(42.652 9.85502e-08 0)
(42.6384 1.00043e-07 0)
(42.622 1.015e-07 0)
(42.6026 1.0279e-07 0)
(42.58 1.0375e-07 0)
(42.5544 1.04179e-07 0)
(42.5258 1.03857e-07 0)
(42.4946 1.02553e-07 0)
(42.4615 1.00035e-07 0)
(42.4275 9.61196e-08 0)
(42.3935 9.06674e-08 0)
(42.3608 8.36446e-08 0)
(42.331 7.51367e-08 0)
(42.3055 6.53586e-08 0)
(42.2856 5.46923e-08 0)
(42.2726 4.37248e-08 0)
(42.2673 3.44722e-08 0)
(42.2699 2.67453e-08 0)
(42.2805 1.52981e-08 0)
(42.299 6.34552e-09 0)
(42.3246 7.35773e-10 0)
(42.3558 -1.49049e-09 0)
(42.3912 -2.35308e-09 0)
(42.4288 1.04558e-09 0)
(42.4669 6.44449e-09 0)
(42.5037 1.3356e-08 0)
(42.5377 2.04115e-08 0)
(42.5677 2.79853e-08 0)
(42.5931 3.8002e-08 0)
(42.6135 4.78715e-08 0)
(42.6289 5.66692e-08 0)
(42.6397 6.48348e-08 0)
(42.6465 7.08573e-08 0)
(42.6499 7.57538e-08 0)
(42.6508 7.90791e-08 0)
(42.65 8.0926e-08 0)
(42.6479 8.26761e-08 0)
(42.645 8.33521e-08 0)
(42.6419 8.31071e-08 0)
(42.6386 8.27519e-08 0)
(42.6356 8.19156e-08 0)
(42.6328 8.12116e-08 0)
(42.6303 8.05444e-08 0)
(42.628 7.973e-08 0)
(42.6261 7.92416e-08 0)
(42.6244 7.86382e-08 0)
(42.6229 7.81193e-08 0)
(42.6217 7.78657e-08 0)
(42.6206 7.73681e-08 0)
(42.6196 7.71763e-08 0)
(42.6188 7.70196e-08 0)
(42.6181 7.68363e-08 0)
(42.6175 7.68137e-08 0)
(42.6169 7.66279e-08 0)
(42.6165 7.65357e-08 0)
(42.6162 7.65372e-08 0)
(42.616 7.64878e-08 0)
(42.6158 7.65935e-08 0)
(42.6157 7.65646e-08 0)
(42.6157 7.66265e-08 0)
(42.6158 7.67344e-08 0)
(42.6159 7.67517e-08 0)
(42.616 7.68269e-08 0)
(42.6162 7.69115e-08 0)
(42.6165 7.70099e-08 0)
(42.6168 7.71626e-08 0)
(42.6171 7.72375e-08 0)
(42.6175 7.73405e-08 0)
(42.6179 7.74753e-08 0)
(42.6183 7.75763e-08 0)
(42.6188 7.77108e-08 0)
(42.6192 7.78302e-08 0)
(42.6197 7.79432e-08 0)
(42.6202 7.81548e-08 0)
(42.6206 7.86416e-08 0)
(42.621 8.07014e-08 0)
(42.6215 9.06173e-08 0)
(42.6219 1.41071e-07 0)
(42.6223 3.52065e-07 0)
(42.6227 1.44987e-06 0)
(42.623 6.80039e-06 0)
(42.6233 3.30959e-05 0)
(42.6234 0.000161112 0)
(42.6225 0.000785639 0)
(42.6174 0.0038196 0)
(42.5921 0.0181507 0)
(42.4741 0.0843862 0)
(42.0878 0.393075 0)
(39.1756 1.42685 0)
(42.7001 3.56561e-05 0)
(42.7003 2.6691e-05 0)
(42.7005 1.75639e-05 0)
(42.7006 1.29298e-05 0)
(42.7007 8.93371e-06 0)
(42.7007 5.63963e-06 0)
(42.7008 3.32368e-06 0)
(42.7008 1.82937e-06 0)
(42.7008 9.41682e-07 0)
(42.7008 4.56479e-07 0)
(42.7008 2.11567e-07 0)
(42.7008 9.64442e-08 0)
(42.7008 4.58641e-08 0)
(42.7008 2.49251e-08 0)
(42.7008 1.67135e-08 0)
(42.7007 1.36539e-08 0)
(42.7007 1.25669e-08 0)
(42.7007 1.21991e-08 0)
(42.7007 1.20777e-08 0)
(42.7007 1.20398e-08 0)
(42.7007 1.20316e-08 0)
(42.7007 1.20262e-08 0)
(42.7007 1.20239e-08 0)
(42.7007 1.20261e-08 0)
(42.7007 1.20263e-08 0)
(42.7006 1.20278e-08 0)
(42.7006 1.20293e-08 0)
(42.7006 1.20285e-08 0)
(42.7006 1.20298e-08 0)
(42.7006 1.20298e-08 0)
(42.7006 1.20304e-08 0)
(42.7006 1.20289e-08 0)
(42.7006 1.20302e-08 0)
(42.7006 1.20321e-08 0)
(42.7005 1.20309e-08 0)
(42.7005 1.20319e-08 0)
(42.7005 1.20333e-08 0)
(42.7005 1.20337e-08 0)
(42.7005 1.20345e-08 0)
(42.7005 1.2035e-08 0)
(42.7005 1.20337e-08 0)
(42.7005 1.20357e-08 0)
(42.7005 1.2034e-08 0)
(42.7004 1.20338e-08 0)
(42.7004 1.2036e-08 0)
(42.7004 1.20361e-08 0)
(42.7004 1.20358e-08 0)
(42.7004 1.20352e-08 0)
(42.7004 1.20357e-08 0)
(42.7004 1.20359e-08 0)
(42.7004 1.20379e-08 0)
(42.7004 1.20404e-08 0)
(42.7003 1.20394e-08 0)
(42.7003 1.20401e-08 0)
(42.7003 1.20411e-08 0)
(42.7003 1.20434e-08 0)
(42.7003 1.20425e-08 0)
(42.7003 1.20423e-08 0)
(42.7003 1.20423e-08 0)
(42.7003 1.2044e-08 0)
(42.7003 1.20435e-08 0)
(42.7003 1.20441e-08 0)
(42.7002 1.20435e-08 0)
(42.7002 1.20432e-08 0)
(42.7002 1.20467e-08 0)
(42.7002 1.20462e-08 0)
(42.7002 1.20473e-08 0)
(42.7002 1.20475e-08 0)
(42.7002 1.20471e-08 0)
(42.7002 1.20457e-08 0)
(42.7002 1.20477e-08 0)
(42.7001 1.20476e-08 0)
(42.7001 1.20477e-08 0)
(42.7001 1.20495e-08 0)
(42.7001 1.20494e-08 0)
(42.7001 1.20492e-08 0)
(42.7001 1.20509e-08 0)
(42.7001 1.20502e-08 0)
(42.7001 1.20505e-08 0)
(42.7001 1.205e-08 0)
(42.7001 1.20522e-08 0)
(42.7001 1.20506e-08 0)
(42.7 1.205e-08 0)
(42.7 1.20518e-08 0)
(42.7 1.20529e-08 0)
(42.7 1.20527e-08 0)
(42.7 1.20513e-08 0)
(42.7 1.20547e-08 0)
(42.7 1.20547e-08 0)
(42.7 1.20552e-08 0)
(42.7 1.20571e-08 0)
(42.7 1.20587e-08 0)
(42.7 1.20604e-08 0)
(42.6999 1.20671e-08 0)
(42.6999 1.20703e-08 0)
(42.6998 1.20792e-08 0)
(42.6997 1.20924e-08 0)
(42.6996 1.21102e-08 0)
(42.6994 1.21297e-08 0)
(42.6991 1.21627e-08 0)
(42.6986 1.22068e-08 0)
(42.698 1.22692e-08 0)
(42.6971 1.23553e-08 0)
(42.6958 1.24658e-08 0)
(42.6941 1.26099e-08 0)
(42.6917 1.27914e-08 0)
(42.6885 1.3022e-08 0)
(42.6844 1.33035e-08 0)
(42.6789 1.36397e-08 0)
(42.6719 1.40337e-08 0)
(42.663 1.44773e-08 0)
(42.652 1.4959e-08 0)
(42.6384 1.54595e-08 0)
(42.622 1.59447e-08 0)
(42.6026 1.63725e-08 0)
(42.58 1.66885e-08 0)
(42.5544 1.68229e-08 0)
(42.5258 1.66997e-08 0)
(42.4946 1.62394e-08 0)
(42.4615 1.53633e-08 0)
(42.4275 1.40037e-08 0)
(42.3935 1.21092e-08 0)
(42.3608 9.65619e-09 0)
(42.331 6.6627e-09 0)
(42.3055 3.17962e-09 0)
(42.2856 -7.05464e-10 0)
(42.2726 -4.85992e-09 0)
(42.2673 -8.84743e-09 0)
(42.2699 -1.29778e-08 0)
(42.2805 -1.93615e-08 0)
(42.299 -2.333e-08 0)
(42.3246 -2.54521e-08 0)
(42.3558 -2.6349e-08 0)
(42.3912 -2.65602e-08 0)
(42.4288 -2.55772e-08 0)
(42.4669 -2.37869e-08 0)
(42.5037 -2.13137e-08 0)
(42.5377 -1.81994e-08 0)
(42.5677 -1.47744e-08 0)
(42.5931 -1.09083e-08 0)
(42.6135 -7.17633e-09 0)
(42.6289 -4.10734e-09 0)
(42.6397 -1.29562e-09 0)
(42.6465 1.09954e-09 0)
(42.6499 2.85226e-09 0)
(42.6508 3.97162e-09 0)
(42.65 4.84805e-09 0)
(42.6479 5.58132e-09 0)
(42.645 5.80257e-09 0)
(42.6419 5.81783e-09 0)
(42.6386 5.82663e-09 0)
(42.6356 5.60968e-09 0)
(42.6328 5.39145e-09 0)
(42.6303 5.2547e-09 0)
(42.628 5.0868e-09 0)
(42.6261 4.962e-09 0)
(42.6244 4.84012e-09 0)
(42.6229 4.76787e-09 0)
(42.6217 4.73449e-09 0)
(42.6206 4.62911e-09 0)
(42.6196 4.62002e-09 0)
(42.6188 4.62561e-09 0)
(42.6181 4.59373e-09 0)
(42.6175 4.58335e-09 0)
(42.6169 4.55364e-09 0)
(42.6165 4.56184e-09 0)
(42.6162 4.58216e-09 0)
(42.616 4.58168e-09 0)
(42.6158 4.63928e-09 0)
(42.6157 4.66681e-09 0)
(42.6157 4.6892e-09 0)
(42.6158 4.71021e-09 0)
(42.6159 4.72122e-09 0)
(42.616 4.76161e-09 0)
(42.6162 4.79677e-09 0)
(42.6165 4.83321e-09 0)
(42.6168 4.89239e-09 0)
(42.6171 4.93761e-09 0)
(42.6175 4.96667e-09 0)
(42.6179 5.00272e-09 0)
(42.6183 5.04511e-09 0)
(42.6188 5.10455e-09 0)
(42.6192 5.15894e-09 0)
(42.6197 5.22361e-09 0)
(42.6202 5.4164e-09 0)
(42.6206 6.15478e-09 0)
(42.621 9.48993e-09 0)
(42.6215 2.55176e-08 0)
(42.6219 1.03693e-07 0)
(42.6223 4.66899e-07 0)
(42.6227 2.28905e-06 0)
(42.623 1.12089e-05 0)
(42.6233 5.48834e-05 0)
(42.6235 0.000267944 0)
(42.6234 0.00130722 0)
(42.6216 0.00635394 0)
(42.6115 0.0304051 0)
(42.5608 0.141852 0)
(42.3895 0.642696 0)
(40.6348 2.31546 0)
(42.7001 -3.56561e-05 0)
(42.7003 -2.6691e-05 0)
(42.7005 -1.75639e-05 0)
(42.7006 -1.29298e-05 0)
(42.7007 -8.93371e-06 0)
(42.7007 -5.63963e-06 0)
(42.7008 -3.32368e-06 0)
(42.7008 -1.82937e-06 0)
(42.7008 -9.41679e-07 0)
(42.7008 -4.56478e-07 0)
(42.7008 -2.11567e-07 0)
(42.7008 -9.64432e-08 0)
(42.7008 -4.58623e-08 0)
(42.7008 -2.49243e-08 0)
(42.7008 -1.67124e-08 0)
(42.7007 -1.36546e-08 0)
(42.7007 -1.25694e-08 0)
(42.7007 -1.22008e-08 0)
(42.7007 -1.20795e-08 0)
(42.7007 -1.20434e-08 0)
(42.7007 -1.20308e-08 0)
(42.7007 -1.20256e-08 0)
(42.7007 -1.20255e-08 0)
(42.7007 -1.2026e-08 0)
(42.7007 -1.20253e-08 0)
(42.7006 -1.20275e-08 0)
(42.7006 -1.20285e-08 0)
(42.7006 -1.20299e-08 0)
(42.7006 -1.20304e-08 0)
(42.7006 -1.20307e-08 0)
(42.7006 -1.20302e-08 0)
(42.7006 -1.20322e-08 0)
(42.7006 -1.20307e-08 0)
(42.7006 -1.20307e-08 0)
(42.7005 -1.20318e-08 0)
(42.7005 -1.2034e-08 0)
(42.7005 -1.20335e-08 0)
(42.7005 -1.20351e-08 0)
(42.7005 -1.20368e-08 0)
(42.7005 -1.20339e-08 0)
(42.7005 -1.20342e-08 0)
(42.7005 -1.2036e-08 0)
(42.7005 -1.20338e-08 0)
(42.7004 -1.20338e-08 0)
(42.7004 -1.20338e-08 0)
(42.7004 -1.20355e-08 0)
(42.7004 -1.20374e-08 0)
(42.7004 -1.20377e-08 0)
(42.7004 -1.20362e-08 0)
(42.7004 -1.20383e-08 0)
(42.7004 -1.20368e-08 0)
(42.7004 -1.20387e-08 0)
(42.7003 -1.20397e-08 0)
(42.7003 -1.20405e-08 0)
(42.7003 -1.20415e-08 0)
(42.7003 -1.20424e-08 0)
(42.7003 -1.20416e-08 0)
(42.7003 -1.20415e-08 0)
(42.7003 -1.20437e-08 0)
(42.7003 -1.20433e-08 0)
(42.7003 -1.20429e-08 0)
(42.7003 -1.20433e-08 0)
(42.7002 -1.20431e-08 0)
(42.7002 -1.20421e-08 0)
(42.7002 -1.20444e-08 0)
(42.7002 -1.20443e-08 0)
(42.7002 -1.20453e-08 0)
(42.7002 -1.20454e-08 0)
(42.7002 -1.20461e-08 0)
(42.7002 -1.2046e-08 0)
(42.7002 -1.20457e-08 0)
(42.7001 -1.20465e-08 0)
(42.7001 -1.20473e-08 0)
(42.7001 -1.20447e-08 0)
(42.7001 -1.20481e-08 0)
(42.7001 -1.20477e-08 0)
(42.7001 -1.20472e-08 0)
(42.7001 -1.20494e-08 0)
(42.7001 -1.20507e-08 0)
(42.7001 -1.205e-08 0)
(42.7001 -1.20491e-08 0)
(42.7001 -1.20505e-08 0)
(42.7 -1.20499e-08 0)
(42.7 -1.20519e-08 0)
(42.7 -1.20535e-08 0)
(42.7 -1.20544e-08 0)
(42.7 -1.20535e-08 0)
(42.7 -1.20526e-08 0)
(42.7 -1.20538e-08 0)
(42.7 -1.20542e-08 0)
(42.7 -1.20554e-08 0)
(42.7 -1.20571e-08 0)
(42.7 -1.20615e-08 0)
(42.6999 -1.20651e-08 0)
(42.6999 -1.20731e-08 0)
(42.6998 -1.20797e-08 0)
(42.6997 -1.20911e-08 0)
(42.6996 -1.21078e-08 0)
(42.6994 -1.2132e-08 0)
(42.6991 -1.21654e-08 0)
(42.6986 -1.22107e-08 0)
(42.698 -1.22722e-08 0)
(42.6971 -1.23552e-08 0)
(42.6958 -1.24674e-08 0)
(42.6941 -1.26106e-08 0)
(42.6917 -1.27936e-08 0)
(42.6885 -1.30226e-08 0)
(42.6844 -1.3303e-08 0)
(42.6789 -1.36404e-08 0)
(42.6719 -1.40341e-08 0)
(42.663 -1.44779e-08 0)
(42.652 -1.496e-08 0)
(42.6384 -1.54584e-08 0)
(42.622 -1.59444e-08 0)
(42.6026 -1.63729e-08 0)
(42.58 -1.66874e-08 0)
(42.5544 -1.68214e-08 0)
(42.5258 -1.66987e-08 0)
(42.4946 -1.62386e-08 0)
(42.4615 -1.53626e-08 0)
(42.4275 -1.40029e-08 0)
(42.3935 -1.2107e-08 0)
(42.3608 -9.65746e-09 0)
(42.331 -6.6635e-09 0)
(42.3055 -3.18046e-09 0)
(42.2856 7.03583e-10 0)
(42.2726 4.86042e-09 0)
(42.2673 8.84963e-09 0)
(42.2699 1.29803e-08 0)
(42.2805 1.93626e-08 0)
(42.299 2.33313e-08 0)
(42.3246 2.54522e-08 0)
(42.3558 2.6348e-08 0)
(42.3912 2.65589e-08 0)
(42.4288 2.55759e-08 0)
(42.4669 2.37871e-08 0)
(42.5037 2.13137e-08 0)
(42.5377 1.81992e-08 0)
(42.5677 1.47738e-08 0)
(42.5931 1.0911e-08 0)
(42.6135 7.17898e-09 0)
(42.6289 4.10785e-09 0)
(42.6397 1.29379e-09 0)
(42.6465 -1.10192e-09 0)
(42.6499 -2.85158e-09 0)
(42.6508 -3.97185e-09 0)
(42.65 -4.84798e-09 0)
(42.6479 -5.58223e-09 0)
(42.645 -5.80141e-09 0)
(42.6419 -5.8174e-09 0)
(42.6386 -5.82486e-09 0)
(42.6356 -5.61125e-09 0)
(42.6328 -5.39222e-09 0)
(42.6303 -5.25336e-09 0)
(42.628 -5.08447e-09 0)
(42.6261 -4.96042e-09 0)
(42.6244 -4.83749e-09 0)
(42.6229 -4.76592e-09 0)
(42.6217 -4.73457e-09 0)
(42.6206 -4.63046e-09 0)
(42.6196 -4.62184e-09 0)
(42.6188 -4.62645e-09 0)
(42.6181 -4.59382e-09 0)
(42.6175 -4.58317e-09 0)
(42.6169 -4.55397e-09 0)
(42.6165 -4.56428e-09 0)
(42.6162 -4.58306e-09 0)
(42.616 -4.58097e-09 0)
(42.6158 -4.63972e-09 0)
(42.6157 -4.66705e-09 0)
(42.6157 -4.69117e-09 0)
(42.6158 -4.71076e-09 0)
(42.6159 -4.72213e-09 0)
(42.616 -4.76266e-09 0)
(42.6162 -4.79837e-09 0)
(42.6165 -4.83243e-09 0)
(42.6168 -4.89248e-09 0)
(42.6171 -4.9359e-09 0)
(42.6175 -4.96482e-09 0)
(42.6179 -5.00243e-09 0)
(42.6183 -5.04471e-09 0)
(42.6188 -5.10105e-09 0)
(42.6192 -5.14598e-09 0)
(42.6197 -5.15384e-09 0)
(42.6202 -5.07483e-09 0)
(42.6206 -4.46487e-09 0)
(42.621 -1.20838e-09 0)
(42.6215 1.50404e-08 0)
(42.6219 9.31697e-08 0)
(42.6223 4.60549e-07 0)
(42.6227 2.28196e-06 0)
(42.623 1.12092e-05 0)
(42.6234 5.49155e-05 0)
(42.6238 0.000268652 0)
(42.6245 0.00131425 0)
(42.6268 0.00642616 0)
(42.6361 0.0313375 0)
(42.6739 0.150844 0)
(42.8063 0.726427 0)
(43.3447 2.59406 0)
(42.7001 -0.000117277 0)
(42.7003 -9.51193e-05 0)
(42.7005 -8.19923e-05 0)
(42.7006 -7.04684e-05 0)
(42.7007 -5.42689e-05 0)
(42.7008 -3.77356e-05 0)
(42.7008 -2.39797e-05 0)
(42.7008 -1.39872e-05 0)
(42.7008 -7.53508e-06 0)
(42.7008 -3.78223e-06 0)
(42.7008 -1.79436e-06 0)
(42.7008 -8.25211e-07 0)
(42.7008 -3.87796e-07 0)
(42.7008 -2.03652e-07 0)
(42.7008 -1.30963e-07 0)
(42.7007 -1.03928e-07 0)
(42.7007 -9.44173e-08 0)
(42.7007 -9.12364e-08 0)
(42.7007 -9.02264e-08 0)
(42.7007 -8.99217e-08 0)
(42.7007 -8.98303e-08 0)
(42.7007 -8.98069e-08 0)
(42.7007 -8.98042e-08 0)