/*--------------------------------*- C++ -*----------------------------------*\
| =========                 |                                                 |
| \\      /  F ield         | OpenFOAM: The Open Source CFD Toolbox           |
|  \\    /   O peration     | Version:  3.0.x                                 |
|   \\  /    A nd           | Web:      www.OpenFOAM.org                      |
|    \\/     M anipulation  |                                                 |
\*---------------------------------------------------------------------------*/
FoamFile
{
    version     2.0;
    format      ascii;
    class       volVectorField;
    location    "0.01";
    object      U;
}
// * * * * * * * * * * * * * * * * * * * * * * * * * * * * * * * * * * * * * //

dimensions      [0 1 -1 0 0 0 0];

internalField   nonuniform List<vector> 
6900
(
(42.6986 6.9684e-05 0)
(42.6978 3.59394e-05 0)
(42.6973 1.57339e-05 0)
(42.6972 6.22719e-06 0)
(42.6971 2.14532e-06 0)
(42.6971 6.69621e-07 0)
(42.697 2.25009e-07 0)
(42.697 1.07372e-07 0)
(42.697 7.90326e-08 0)
(42.697 7.28024e-08 0)
(42.697 7.15715e-08 0)
(42.697 7.13429e-08 0)
(42.697 7.13037e-08 0)
(42.697 7.12975e-08 0)
(42.697 7.12966e-08 0)
(42.697 7.12958e-08 0)
(42.697 7.12992e-08 0)
(42.697 7.13009e-08 0)
(42.697 7.13024e-08 0)
(42.6969 7.13042e-08 0)
(42.6969 7.13075e-08 0)
(42.6969 7.13052e-08 0)
(42.6969 7.13043e-08 0)
(42.6969 7.13061e-08 0)
(42.6969 7.1309e-08 0)
(42.6969 7.13095e-08 0)
(42.6969 7.13075e-08 0)
(42.6969 7.13085e-08 0)
(42.6969 7.13106e-08 0)
(42.6969 7.13088e-08 0)
(42.6969 7.1311e-08 0)
(42.6969 7.13107e-08 0)
(42.6969 7.13107e-08 0)
(42.6969 7.13117e-08 0)
(42.6969 7.13125e-08 0)
(42.6969 7.13124e-08 0)
(42.6969 7.1311e-08 0)
(42.6969 7.13117e-08 0)
(42.6969 7.13104e-08 0)
(42.6969 7.13111e-08 0)
(42.6969 7.13119e-08 0)
(42.6969 7.13138e-08 0)
(42.6969 7.13133e-08 0)
(42.6969 7.13135e-08 0)
(42.6969 7.13142e-08 0)
(42.6969 7.13114e-08 0)
(42.6969 7.13135e-08 0)
(42.6969 7.13128e-08 0)
(42.6969 7.13122e-08 0)
(42.6969 7.13094e-08 0)
(42.6969 7.13113e-08 0)
(42.6969 7.13124e-08 0)
(42.6969 7.13124e-08 0)
(42.6969 7.13142e-08 0)
(42.6969 7.1312e-08 0)
(42.6969 7.13135e-08 0)
(42.6969 7.13103e-08 0)
(42.6969 7.13136e-08 0)
(42.6969 7.13115e-08 0)
(42.6969 7.13111e-08 0)
(42.6969 7.13115e-08 0)
(42.6969 7.13118e-08 0)
(42.6969 7.13124e-08 0)
(42.6969 7.1311e-08 0)
(42.6969 7.13102e-08 0)
(42.6969 7.13118e-08 0)
(42.6969 7.13122e-08 0)
(42.6969 7.1311e-08 0)
(42.6969 7.13108e-08 0)
(42.6969 7.13114e-08 0)
(42.6969 7.1312e-08 0)
(42.6969 7.1311e-08 0)
(42.6969 7.13132e-08 0)
(42.6969 7.131e-08 0)
(42.6969 7.13137e-08 0)
(42.6969 7.13143e-08 0)
(42.6969 7.13139e-08 0)
(42.6969 7.13141e-08 0)
(42.6969 7.13017e-08 0)
(42.6969 7.13063e-08 0)
(42.6969 7.13118e-08 0)
(42.6969 7.13104e-08 0)
(42.6969 7.13115e-08 0)
(42.6969 7.13129e-08 0)
(42.6969 7.13119e-08 0)
(42.6969 7.13105e-08 0)
(42.6969 7.13135e-08 0)
(42.6969 7.1311e-08 0)
(42.6969 7.13113e-08 0)
(42.6969 7.13138e-08 0)
(42.6969 7.13125e-08 0)
(42.6969 7.13128e-08 0)
(42.6969 7.13136e-08 0)
(42.6969 7.13128e-08 0)
(42.6969 7.13132e-08 0)
(42.6969 7.13111e-08 0)
(42.6969 7.13108e-08 0)
(42.6969 7.13123e-08 0)
(42.6969 7.13121e-08 0)
(42.6969 7.13118e-08 0)
(42.6969 7.13123e-08 0)
(42.6969 7.13122e-08 0)
(42.6969 7.13108e-08 0)
(42.6969 7.13129e-08 0)
(42.6969 7.13129e-08 0)
(42.6969 7.13124e-08 0)
(42.6969 7.13118e-08 0)
(42.6969 7.13107e-08 0)
(42.6969 7.13134e-08 0)
(42.6969 7.13247e-08 0)
(42.6969 7.1314e-08 0)
(42.6969 7.13128e-08 0)
(42.6969 7.13133e-08 0)
(42.6969 7.13124e-08 0)
(42.6969 7.13139e-08 0)
(42.6969 7.13107e-08 0)
(42.6969 7.13107e-08 0)
(42.6969 7.13118e-08 0)
(42.6969 7.13125e-08 0)
(42.6969 7.13125e-08 0)
(42.6969 7.13134e-08 0)
(42.6969 7.13111e-08 0)
(42.6969 7.13092e-08 0)
(42.6969 7.13117e-08 0)
(42.6969 7.13112e-08 0)
(42.6969 7.13109e-08 0)
(42.6969 7.13122e-08 0)
(42.6969 7.13109e-08 0)
(42.6969 7.13113e-08 0)
(42.6969 7.13124e-08 0)
(42.6969 7.13108e-08 0)
(42.6969 7.13129e-08 0)
(42.6969 7.13134e-08 0)
(42.6969 7.13125e-08 0)
(42.6969 7.13137e-08 0)
(42.6969 7.13128e-08 0)
(42.6969 7.13128e-08 0)
(42.6969 7.13114e-08 0)
(42.6969 7.13128e-08 0)
(42.6969 7.13123e-08 0)
(42.6969 7.13129e-08 0)
(42.6969 7.13113e-08 0)
(42.6969 7.13126e-08 0)
(42.6969 7.13137e-08 0)
(42.6969 7.13128e-08 0)
(42.6969 7.13136e-08 0)
(42.6969 7.13115e-08 0)
(42.6969 7.13134e-08 0)
(42.6969 7.13118e-08 0)
(42.6969 7.13135e-08 0)
(42.6969 7.13137e-08 0)
(42.6969 7.13141e-08 0)
(42.6969 7.13132e-08 0)
(42.6968 7.13117e-08 0)
(42.6968 7.13107e-08 0)
(42.6967 7.1312e-08 0)
(42.6966 7.13136e-08 0)
(42.6963 7.13156e-08 0)
(42.6958 7.13168e-08 0)
(42.695 7.13102e-08 0)
(42.6935 7.12985e-08 0)
(42.691 7.12597e-08 0)
(42.6868 7.11826e-08 0)
(42.6801 7.10283e-08 0)
(42.6697 7.07278e-08 0)
(42.6538 7.01758e-08 0)
(42.6304 6.92201e-08 0)
(42.5972 6.76312e-08 0)
(42.5519 6.51037e-08 0)
(42.4925 6.12704e-08 0)
(42.4181 5.56982e-08 0)
(42.3296 4.80009e-08 0)
(42.2305 3.78965e-08 0)
(42.1271 2.53768e-08 0)
(42.0286 1.08649e-08 0)
(41.9459 -4.46496e-09 0)
(41.89 -2.03343e-08 0)
(41.8692 -3.20607e-08 0)
(41.8864 -4.10363e-08 0)
(41.941 -4.93604e-08 0)
(42.0269 -4.82494e-08 0)
(42.1322 -4.30775e-08 0)
(42.2425 -3.14045e-08 0)
(42.3429 -1.63433e-08 0)
(42.4224 -1.99899e-09 0)
(42.4746 1.2764e-08 0)
(42.4984 2.42266e-08 0)
(42.4986 3.00672e-08 0)
(42.4821 3.61188e-08 0)
(42.4553 3.7083e-08 0)
(42.4247 3.51456e-08 0)
(42.3944 3.37575e-08 0)
(42.3662 4.8037e-09 0)
(42.3408 -1.36416e-07 0)
(42.3179 -4.49092e-07 0)
(42.2972 2.63673e-06 0)
(42.2774 5.74978e-05 0)
(42.2549 0.000372103 0)
(42.0891 -0.00224991 0)
(41.2462 0.0410215 0)
(42.7001 9.44721e-05 0)
(42.7002 4.30583e-05 0)
(42.7002 1.65752e-05 0)
(42.7002 6.71281e-06 0)
(42.7002 2.42494e-06 0)
(42.7002 7.66864e-07 0)
(42.7002 2.58487e-07 0)
(42.7002 1.22617e-07 0)
(42.7001 8.8137e-08 0)
(42.7001 7.99696e-08 0)
(42.7001 7.82038e-08 0)
(42.7001 7.78434e-08 0)
(42.7001 7.77693e-08 0)
(42.7001 7.77554e-08 0)
(42.7001 7.77523e-08 0)
(42.7001 7.77518e-08 0)
(42.7001 7.77543e-08 0)
(42.7001 7.77525e-08 0)
(42.7001 7.77536e-08 0)
(42.7001 7.77544e-08 0)
(42.7001 7.77543e-08 0)
(42.7 7.7756e-08 0)
(42.7 7.77569e-08 0)
(42.7 7.77582e-08 0)
(42.7 7.77592e-08 0)
(42.7 7.77581e-08 0)
(42.7 7.77592e-08 0)
(42.7 7.77627e-08 0)
(42.7 7.77614e-08 0)
(42.7 7.7764e-08 0)
(42.7 7.77628e-08 0)
(42.7 7.77626e-08 0)
(42.7 7.77649e-08 0)
(42.7 7.77651e-08 0)
(42.7 7.77629e-08 0)
(42.7 7.77643e-08 0)
(42.7 7.77633e-08 0)
(42.7 7.77646e-08 0)
(42.7 7.77658e-08 0)
(42.7 7.77643e-08 0)
(42.7 7.77645e-08 0)
(42.7 7.77648e-08 0)
(42.7 7.77656e-08 0)
(42.7 7.77651e-08 0)
(42.7 7.77635e-08 0)
(42.7 7.77652e-08 0)
(42.7 7.77639e-08 0)
(42.7 7.77635e-08 0)
(42.7 7.77664e-08 0)
(42.7 7.77664e-08 0)
(42.7 7.77663e-08 0)
(42.7 7.77648e-08 0)
(42.7 7.77639e-08 0)
(42.7 7.7762e-08 0)
(42.7 7.77646e-08 0)
(42.7 7.77632e-08 0)
(42.7 7.77668e-08 0)
(42.7 7.77644e-08 0)
(42.7 7.77655e-08 0)
(42.7 7.77658e-08 0)
(42.7 7.77648e-08 0)
(42.7 7.77645e-08 0)
(42.7 7.7765e-08 0)
(42.7 7.77642e-08 0)
(42.7 7.77654e-08 0)
(42.7 7.77666e-08 0)
(42.7 7.77656e-08 0)
(42.7 7.77659e-08 0)
(42.7 7.77642e-08 0)
(42.7 7.77652e-08 0)
(42.7 7.77653e-08 0)
(42.7 7.7766e-08 0)
(42.7 7.77646e-08 0)
(42.7 7.77662e-08 0)
(42.7 7.77641e-08 0)
(42.7 7.77645e-08 0)
(42.7 7.77642e-08 0)
(42.7 7.77638e-08 0)
(42.7 7.77675e-08 0)
(42.7 7.77699e-08 0)
(42.7 7.77677e-08 0)
(42.7 7.77664e-08 0)
(42.7 7.77657e-08 0)
(42.7 7.77635e-08 0)
(42.7 7.77657e-08 0)
(42.7 7.77653e-08 0)
(42.7 7.7765e-08 0)
(42.7 7.7767e-08 0)
(42.7 7.77647e-08 0)
(42.7 7.77648e-08 0)
(42.7 7.77645e-08 0)
(42.7 7.77645e-08 0)
(42.7 7.77644e-08 0)
(42.7 7.77645e-08 0)
(42.7 7.7764e-08 0)
(42.7 7.7766e-08 0)
(42.7 7.77663e-08 0)
(42.7 7.77649e-08 0)
(42.7 7.77655e-08 0)
(42.7 7.77661e-08 0)
(42.7 7.77655e-08 0)
(42.7 7.77653e-08 0)
(42.7 7.77662e-08 0)
(42.7 7.77649e-08 0)
(42.7 7.77647e-08 0)
(42.7 7.77663e-08 0)
(42.7 7.7765e-08 0)
(42.7 7.7767e-08 0)
(42.7 7.7764e-08 0)
(42.7 7.77602e-08 0)
(42.7 7.7763e-08 0)
(42.7 7.77641e-08 0)
(42.7 7.77632e-08 0)
(42.7 7.7765e-08 0)
(42.7 7.7763e-08 0)
(42.7 7.77657e-08 0)
(42.7 7.77663e-08 0)
(42.7 7.77664e-08 0)
(42.7 7.77662e-08 0)
(42.7 7.77667e-08 0)
(42.7 7.77652e-08 0)
(42.7 7.77662e-08 0)
(42.7 7.77663e-08 0)
(42.7 7.77671e-08 0)
(42.7 7.77647e-08 0)
(42.7 7.7764e-08 0)
(42.7 7.77644e-08 0)
(42.7 7.7766e-08 0)
(42.7 7.77644e-08 0)
(42.7 7.77674e-08 0)
(42.7 7.7767e-08 0)
(42.7 7.77649e-08 0)
(42.7 7.77649e-08 0)
(42.7 7.77646e-08 0)
(42.7 7.7764e-08 0)
(42.7 7.77666e-08 0)
(42.7 7.77659e-08 0)
(42.7 7.77663e-08 0)
(42.7 7.77661e-08 0)
(42.7 7.77643e-08 0)
(42.7 7.77658e-08 0)
(42.7 7.77662e-08 0)
(42.7 7.77661e-08 0)
(42.7 7.77657e-08 0)
(42.7 7.77648e-08 0)
(42.7 7.77646e-08 0)
(42.7 7.77642e-08 0)
(42.7 7.77636e-08 0)
(42.7 7.77648e-08 0)
(42.7 7.77633e-08 0)
(42.7 7.7766e-08 0)
(42.7 7.77655e-08 0)
(42.7 7.77674e-08 0)
(42.7 7.77695e-08 0)
(42.6999 7.77776e-08 0)
(42.6998 7.77887e-08 0)
(42.6997 7.78056e-08 0)
(42.6994 7.78373e-08 0)
(42.6989 7.78883e-08 0)
(42.6981 7.79789e-08 0)
(42.6966 7.81209e-08 0)
(42.6941 7.83389e-08 0)
(42.6899 7.86609e-08 0)
(42.6832 7.91091e-08 0)
(42.6728 7.96961e-08 0)
(42.6569 8.03984e-08 0)
(42.6335 8.11279e-08 0)
(42.6004 8.1682e-08 0)
(42.555 8.17072e-08 0)
(42.4956 8.06368e-08 0)
(42.4212 7.7687e-08 0)
(42.3327 7.18796e-08 0)
(42.2336 6.21691e-08 0)
(42.1302 4.76138e-08 0)
(42.0317 2.75762e-08 0)
(41.949 2.33221e-09 0)
(41.8931 -2.24073e-08 0)
(41.8723 -4.05611e-08 0)
(41.8895 -5.67089e-08 0)
(41.9441 -7.49321e-08 0)
(42.03 -7.89809e-08 0)
(42.1353 -7.62264e-08 0)
(42.2456 -6.17239e-08 0)
(42.346 -3.88921e-08 0)
(42.4255 -1.28587e-08 0)
(42.4777 1.38566e-08 0)
(42.5015 3.15921e-08 0)
(42.5017 4.1016e-08 0)
(42.4852 5.15113e-08 0)
(42.4584 5.32997e-08 0)
(42.4277 4.40436e-08 0)
(42.3974 -1.64706e-09 0)
(42.3693 -2.62188e-07 0)
(42.3439 -1.86512e-06 0)
(42.321 -1.07986e-05 0)
(42.3003 -5.13525e-05 0)
(42.2806 -0.000136335 0)
(42.2578 0.000369608 0)
(42.0951 0.00293222 0)
(41.2944 0.192338 0)
(42.7 6.69667e-13 0)
(42.7001 -1.87449e-12 0)
(42.7002 6.16227e-13 0)
(42.7002 -2.03811e-12 0)
(42.7002 -5.06328e-13 0)
(42.7002 -9.61113e-13 0)
(42.7002 2.20166e-12 0)
(42.7002 3.30795e-12 0)
(42.7001 1.03094e-12 0)
(42.7001 -4.22319e-12 0)
(42.7001 -5.86754e-12 0)
(42.7001 -3.93342e-12 0)
(42.7001 -3.22183e-12 0)
(42.7001 -3.00775e-12 0)
(42.7001 -2.29456e-12 0)
(42.7001 -1.00622e-12 0)
(42.7001 -1.14738e-12 0)
(42.7001 -1.11883e-12 0)
(42.7001 1.28917e-12 0)
(42.7001 2.50624e-12 0)
(42.7001 4.5939e-12 0)
(42.7 3.19112e-12 0)
(42.7 1.65123e-13 0)
(42.7 -5.07048e-13 0)
(42.7 -4.06191e-14 0)
(42.7 1.67399e-12 0)
(42.7 2.99537e-12 0)
(42.7 5.4275e-13 0)
(42.7 -2.9631e-13 0)
(42.7 -3.27412e-13 0)
(42.7 2.40104e-12 0)
(42.7 2.76259e-12 0)
(42.7 1.9358e-12 0)
(42.7 2.01135e-12 0)
(42.7 3.68721e-12 0)
(42.7 3.01836e-12 0)
(42.7 1.82383e-12 0)
(42.7 3.1048e-12 0)
(42.7 2.39227e-12 0)
(42.7 1.8986e-12 0)
(42.7 8.28045e-13 0)
(42.7 7.01253e-13 0)
(42.7 3.00397e-12 0)
(42.7 3.67087e-12 0)
(42.7 2.69396e-12 0)
(42.7 1.61766e-12 0)
(42.7 1.20423e-12 0)
(42.7 -3.94543e-13 0)
(42.7 -1.96921e-12 0)
(42.7 -3.59906e-13 0)
(42.7 3.32536e-14 0)
(42.7 7.77086e-13 0)
(42.7 2.11719e-12 0)
(42.7 1.65717e-12 0)
(42.7 1.06163e-12 0)
(42.7 4.02194e-13 0)
(42.7 -9.37755e-13 0)
(42.7 -8.77702e-13 0)
(42.7 -1.79054e-13 0)
(42.7 1.37696e-13 0)
(42.7 5.44691e-13 0)
(42.7 4.26465e-13 0)
(42.7 5.0496e-13 0)
(42.7 1.41992e-12 0)
(42.7 1.53288e-12 0)
(42.7 -1.17533e-13 0)
(42.7 -1.74882e-12 0)
(42.7 -7.99928e-13 0)
(42.7 1.40989e-14 0)
(42.7 1.09973e-12 0)
(42.7 4.27665e-13 0)
(42.7 -8.15954e-13 0)
(42.7 -1.94297e-13 0)
(42.7 1.67155e-14 0)
(42.7 8.09732e-13 0)
(42.7 5.23507e-13 0)
(42.7 -2.95452e-13 0)
(42.7 -1.93121e-12 0)
(42.7 -5.96647e-12 0)
(42.7 -8.16692e-12 0)
(42.7 -6.55521e-12 0)
(42.7 -3.15313e-12 0)
(42.7 -2.31436e-13 0)
(42.7 2.71411e-12 0)
(42.7 3.45219e-12 0)
(42.7 3.03294e-12 0)
(42.7 1.50133e-12 0)
(42.7 9.69043e-13 0)
(42.7 1.31967e-12 0)
(42.7 1.16912e-12 0)
(42.7 8.98682e-13 0)
(42.7 -2.42001e-13 0)
(42.7 -9.5485e-13 0)
(42.7 -4.11436e-13 0)
(42.7 1.06859e-12 0)
(42.7 1.66889e-13 0)
(42.7 -1.4094e-13 0)
(42.7 1.57263e-13 0)
(42.7 -1.4376e-12 0)
(42.7 -2.09886e-12 0)
(42.7 -9.39371e-13 0)
(42.7 -2.03014e-13 0)
(42.7 -7.34476e-13 0)
(42.7 -5.18295e-13 0)
(42.7 -1.21173e-12 0)
(42.7 -2.26467e-12 0)
(42.7 -1.77011e-12 0)
(42.7 -1.38635e-12 0)
(42.7 9.67977e-13 0)
(42.7 4.6056e-12 0)
(42.7 5.30572e-12 0)
(42.7 4.04246e-12 0)
(42.7 3.77378e-12 0)
(42.7 1.42548e-12 0)
(42.7 -1.11134e-12 0)
(42.7 -1.52868e-12 0)
(42.7 -1.40862e-12 0)
(42.7 -6.24551e-13 0)
(42.7 -9.87628e-13 0)
(42.7 -3.2372e-13 0)
(42.7 -6.51032e-13 0)
(42.7 -4.68723e-13 0)
(42.7 -1.09327e-12 0)
(42.7 -1.47187e-12 0)
(42.7 -5.85428e-13 0)
(42.7 -8.79587e-14 0)
(42.7 -1.08605e-12 0)
(42.7 -1.20158e-12 0)
(42.7 -9.26891e-13 0)
(42.7 -1.81966e-12 0)
(42.7 -2.07957e-12 0)
(42.7 -1.19365e-12 0)
(42.7 6.40348e-13 0)
(42.7 1.61621e-12 0)
(42.7 1.86495e-12 0)
(42.7 1.27334e-15 0)
(42.7 -1.15171e-12 0)
(42.7 -7.54045e-13 0)
(42.7 -4.84427e-13 0)
(42.7 1.08463e-13 0)
(42.7 8.806e-13 0)
(42.7 2.5794e-12 0)
(42.7 2.11613e-12 0)
(42.7 1.45346e-13 0)
(42.7 -1.57332e-12 0)
(42.7 -1.63601e-12 0)
(42.7 -9.32684e-13 0)
(42.7 7.08287e-13 0)
(42.7 1.88982e-12 0)
(42.7 1.79018e-12 0)
(42.7 3.50534e-13 0)
(42.7 3.32824e-13 0)
(42.7 1.50502e-12 0)
(42.7 1.52256e-12 0)
(42.6999 9.01015e-13 0)
(42.6998 -5.09611e-13 0)
(42.6997 -9.74447e-13 0)
(42.6994 -4.65311e-13 0)
(42.6989 1.89095e-12 0)
(42.6981 1.06134e-12 0)
(42.6966 -7.70162e-13 0)
(42.6941 -1.83038e-12 0)
(42.6899 -1.36359e-12 0)
(42.6832 -2.32365e-12 0)
(42.6728 -2.67024e-13 0)
(42.6569 4.83495e-14 0)
(42.6335 -8.05682e-13 0)
(42.6004 -1.65973e-12 0)
(42.555 -2.0487e-12 0)
(42.4956 -2.67757e-12 0)
(42.4212 -1.15859e-12 0)
(42.3327 -2.06459e-13 0)
(42.2336 -6.13297e-13 0)
(42.1302 -1.35947e-12 0)
(42.0317 -9.90316e-13 0)
(41.949 -1.26517e-13 0)
(41.8931 1.6567e-12 0)
(41.8723 1.97722e-12 0)
(41.8895 2.09846e-12 0)
(41.9441 5.08929e-13 0)
(42.03 -5.57851e-13 0)
(42.1353 8.98579e-13 0)
(42.2456 5.83203e-15 0)
(42.346 6.36686e-13 0)
(42.4255 1.87676e-13 0)
(42.4777 -3.23556e-12 0)
(42.5015 -1.49328e-11 0)
(42.5017 -6.33074e-11 0)
(42.4852 -3.68589e-10 0)
(42.4584 -2.24667e-09 0)
(42.4277 -1.31463e-08 0)
(42.3974 -7.33004e-08 0)
(42.3693 -3.5698e-07 0)
(42.3439 -1.71238e-06 0)
(42.321 -7.30799e-06 0)
(42.3001 -1.28172e-05 0)
(42.2806 0.000252428 0)
(42.2612 0.00438168 0)
(42.197 0.044803 0)
(42.0781 0.447251 0)
(42.7001 -9.44721e-05 0)
(42.7002 -4.30583e-05 0)
(42.7002 -1.65752e-05 0)
(42.7002 -6.71281e-06 0)
(42.7002 -2.42494e-06 0)
(42.7002 -7.6686e-07 0)
(42.7002 -2.5849e-07 0)
(42.7002 -1.22621e-07 0)
(42.7001 -8.81388e-08 0)
(42.7001 -7.99657e-08 0)
(42.7001 -7.82008e-08 0)
(42.7001 -7.78396e-08 0)
(42.7001 -7.77674e-08 0)
(42.7001 -7.77535e-08 0)
(42.7001 -7.77495e-08 0)
(42.7001 -7.77526e-08 0)
(42.7001 -7.77516e-08 0)
(42.7001 -7.77539e-08 0)
(42.7001 -7.77543e-08 0)
(42.7001 -7.7756e-08 0)
(42.7001 -7.77575e-08 0)
(42.7 -7.77575e-08 0)
(42.7 -7.77559e-08 0)
(42.7 -7.77571e-08 0)
(42.7 -7.77572e-08 0)
(42.7 -7.77594e-08 0)
(42.7 -7.77609e-08 0)
(42.7 -7.77595e-08 0)
(42.7 -7.77617e-08 0)
(42.7 -7.77623e-08 0)
(42.7 -7.77661e-08 0)
(42.7 -7.77651e-08 0)
(42.7 -7.77654e-08 0)
(42.7 -7.77645e-08 0)
(42.7 -7.77644e-08 0)
(42.7 -7.77636e-08 0)
(42.7 -7.77639e-08 0)
(42.7 -7.77651e-08 0)
(42.7 -7.77646e-08 0)
(42.7 -7.77649e-08 0)
(42.7 -7.77655e-08 0)
(42.7 -7.77645e-08 0)
(42.7 -7.77662e-08 0)
(42.7 -7.77661e-08 0)
(42.7 -7.77658e-08 0)
(42.7 -7.7766e-08 0)
(42.7 -7.77646e-08 0)
(42.7 -7.7764e-08 0)
(42.7 -7.77636e-08 0)
(42.7 -7.77646e-08 0)
(42.7 -7.7764e-08 0)
(42.7 -7.77629e-08 0)
(42.7 -7.77649e-08 0)
(42.7 -7.77637e-08 0)
(42.7 -7.77658e-08 0)
(42.7 -7.77639e-08 0)
(42.7 -7.77645e-08 0)
(42.7 -7.77644e-08 0)
(42.7 -7.77633e-08 0)
(42.7 -7.77656e-08 0)
(42.7 -7.77673e-08 0)
(42.7 -7.77652e-08 0)
(42.7 -7.77635e-08 0)
(42.7 -7.77655e-08 0)
(42.7 -7.77654e-08 0)
(42.7 -7.77652e-08 0)
(42.7 -7.77632e-08 0)
(42.7 -7.77649e-08 0)
(42.7 -7.7767e-08 0)
(42.7 -7.7765e-08 0)
(42.7 -7.77654e-08 0)
(42.7 -7.77646e-08 0)
(42.7 -7.77662e-08 0)
(42.7 -7.77652e-08 0)
(42.7 -7.77653e-08 0)
(42.7 -7.77648e-08 0)
(42.7 -7.7765e-08 0)
(42.7 -7.77636e-08 0)
(42.7 -7.77648e-08 0)
(42.7 -7.77661e-08 0)
(42.7 -7.77639e-08 0)
(42.7 -7.77649e-08 0)
(42.7 -7.77658e-08 0)
(42.7 -7.77653e-08 0)
(42.7 -7.77676e-08 0)
(42.7 -7.77654e-08 0)
(42.7 -7.77651e-08 0)
(42.7 -7.77647e-08 0)
(42.7 -7.77645e-08 0)
(42.7 -7.77646e-08 0)
(42.7 -7.77667e-08 0)
(42.7 -7.77653e-08 0)
(42.7 -7.77657e-08 0)
(42.7 -7.77649e-08 0)
(42.7 -7.77663e-08 0)
(42.7 -7.77656e-08 0)
(42.7 -7.77642e-08 0)
(42.7 -7.77656e-08 0)
(42.7 -7.77647e-08 0)
(42.7 -7.7764e-08 0)
(42.7 -7.77648e-08 0)
(42.7 -7.77664e-08 0)
(42.7 -7.7766e-08 0)
(42.7 -7.77641e-08 0)
(42.7 -7.77638e-08 0)
(42.7 -7.77644e-08 0)
(42.7 -7.77643e-08 0)
(42.7 -7.77645e-08 0)
(42.7 -7.77656e-08 0)
(42.7 -7.77658e-08 0)
(42.7 -7.77658e-08 0)
(42.7 -7.77647e-08 0)
(42.7 -7.77668e-08 0)
(42.7 -7.77633e-08 0)
(42.7 -7.77643e-08 0)
(42.7 -7.77632e-08 0)
(42.7 -7.77642e-08 0)
(42.7 -7.77665e-08 0)
(42.7 -7.77654e-08 0)
(42.7 -7.77667e-08 0)
(42.7 -7.77634e-08 0)
(42.7 -7.77649e-08 0)
(42.7 -7.77657e-08 0)
(42.7 -7.77646e-08 0)
(42.7 -7.77658e-08 0)
(42.7 -7.77638e-08 0)
(42.7 -7.77646e-08 0)
(42.7 -7.77642e-08 0)
(42.7 -7.77652e-08 0)
(42.7 -7.77658e-08 0)
(42.7 -7.77645e-08 0)
(42.7 -7.77659e-08 0)
(42.7 -7.77652e-08 0)
(42.7 -7.77651e-08 0)
(42.7 -7.77668e-08 0)
(42.7 -7.77657e-08 0)
(42.7 -7.77643e-08 0)
(42.7 -7.77656e-08 0)
(42.7 -7.77663e-08 0)
(42.7 -7.77634e-08 0)
(42.7 -7.77649e-08 0)
(42.7 -7.77669e-08 0)
(42.7 -7.77654e-08 0)
(42.7 -7.77642e-08 0)
(42.7 -7.77657e-08 0)
(42.7 -7.77647e-08 0)
(42.7 -7.77657e-08 0)
(42.7 -7.77671e-08 0)
(42.7 -7.77649e-08 0)
(42.7 -7.77662e-08 0)
(42.7 -7.77654e-08 0)
(42.7 -7.77663e-08 0)
(42.7 -7.77692e-08 0)
(42.7 -7.77722e-08 0)
(42.6999 -7.77771e-08 0)
(42.6998 -7.77875e-08 0)
(42.6997 -7.78041e-08 0)
(42.6994 -7.78381e-08 0)
(42.6989 -7.78914e-08 0)
(42.6981 -7.79784e-08 0)
(42.6966 -7.81216e-08 0)
(42.6941 -7.83386e-08 0)
(42.6899 -7.86584e-08 0)
(42.6832 -7.91072e-08 0)
(42.6728 -7.96958e-08 0)
(42.6569 -8.03997e-08 0)
(42.6335 -8.11282e-08 0)
(42.6004 -8.1682e-08 0)
(42.555 -8.17065e-08 0)
(42.4956 -8.06352e-08 0)
(42.4212 -7.76855e-08 0)
(42.3327 -7.18793e-08 0)
(42.2336 -6.21706e-08 0)
(42.1302 -4.76139e-08 0)
(42.0317 -2.75739e-08 0)
(41.949 -2.33174e-09 0)
(41.8931 2.24056e-08 0)
(41.8723 4.05599e-08 0)
(41.8895 5.67113e-08 0)
(41.9441 7.4934e-08 0)
(42.03 7.89793e-08 0)
(42.1353 7.62264e-08 0)
(42.2456 6.17249e-08 0)
(42.346 3.88919e-08 0)
(42.4255 1.28571e-08 0)
(42.4777 -1.38567e-08 0)
(42.5015 -3.15999e-08 0)
(42.5017 -4.10723e-08 0)
(42.4852 -5.1883e-08 0)
(42.4584 -5.55454e-08 0)
(42.4277 -5.71607e-08 0)
(42.3974 -6.89735e-08 0)
(42.3693 -1.04379e-07 0)
(42.3439 7.53429e-08 0)
(42.321 3.84134e-06 0)
(42.3004 5.13769e-05 0)
(42.2836 0.000553361 0)
(42.2891 0.00543918 0)
(42.4072 0.0506223 0)
(44.4022 0.391883 0)
(42.6986 -6.9684e-05 0)
(42.6978 -3.59394e-05 0)
(42.6973 -1.57339e-05 0)
(42.6972 -6.22719e-06 0)
(42.6971 -2.14534e-06 0)
(42.6971 -6.69629e-07 0)
(42.697 -2.24995e-07 0)
(42.697 -1.07369e-07 0)
(42.697 -7.90296e-08 0)
(42.697 -7.28143e-08 0)
(42.697 -7.15742e-08 0)
(42.697 -7.13438e-08 0)
(42.697 -7.13046e-08 0)
(42.697 -7.12969e-08 0)
(42.697 -7.12986e-08 0)
(42.697 -7.12986e-08 0)
(42.697 -7.13003e-08 0)
(42.697 -7.13028e-08 0)
(42.697 -7.13033e-08 0)
(42.6969 -7.13008e-08 0)
(42.6969 -7.1301e-08 0)
(42.6969 -7.13037e-08 0)
(42.6969 -7.13072e-08 0)
(42.6969 -7.1308e-08 0)
(42.6969 -7.1309e-08 0)
(42.6969 -7.13104e-08 0)
(42.6969 -7.13091e-08 0)
(42.6969 -7.13115e-08 0)
(42.6969 -7.13091e-08 0)
(42.6969 -7.13109e-08 0)
(42.6969 -7.13081e-08 0)
(42.6969 -7.13102e-08 0)
(42.6969 -7.13106e-08 0)
(42.6969 -7.1312e-08 0)
(42.6969 -7.1312e-08 0)
(42.6969 -7.13121e-08 0)
(42.6969 -7.13129e-08 0)
(42.6969 -7.13116e-08 0)
(42.6969 -7.13125e-08 0)
(42.6969 -7.13132e-08 0)
(42.6969 -7.13131e-08 0)
(42.6969 -7.13115e-08 0)
(42.6969 -7.13109e-08 0)
(42.6969 -7.13128e-08 0)
(42.6969 -7.13123e-08 0)
(42.6969 -7.13116e-08 0)
(42.6969 -7.1314e-08 0)
(42.6969 -7.1312e-08 0)
(42.6969 -7.13111e-08 0)
(42.6969 -7.13122e-08 0)
(42.6969 -7.13162e-08 0)
(42.6969 -7.13135e-08 0)
(42.6969 -7.13119e-08 0)
(42.6969 -7.13132e-08 0)
(42.6969 -7.13137e-08 0)
(42.6969 -7.13146e-08 0)
(42.6969 -7.13152e-08 0)
(42.6969 -7.13152e-08 0)
(42.6969 -7.13145e-08 0)
(42.6969 -7.13116e-08 0)
(42.6969 -7.13122e-08 0)
(42.6969 -7.13142e-08 0)
(42.6969 -7.13154e-08 0)
(42.6969 -7.13126e-08 0)
(42.6969 -7.1313e-08 0)
(42.6969 -7.13113e-08 0)
(42.6969 -7.13118e-08 0)
(42.6969 -7.13125e-08 0)
(42.6969 -7.13113e-08 0)
(42.6969 -7.13114e-08 0)
(42.6969 -7.13119e-08 0)
(42.6969 -7.13125e-08 0)
(42.6969 -7.13114e-08 0)
(42.6969 -7.13099e-08 0)
(42.6969 -7.13141e-08 0)
(42.6969 -7.13147e-08 0)
(42.6969 -7.13118e-08 0)
(42.6969 -7.13127e-08 0)
(42.6969 -7.13113e-08 0)
(42.6969 -7.13122e-08 0)
(42.6969 -7.13135e-08 0)
(42.6969 -7.13137e-08 0)
(42.6969 -7.13114e-08 0)
(42.6969 -7.13126e-08 0)
(42.6969 -7.13096e-08 0)
(42.6969 -7.13099e-08 0)
(42.6969 -7.13138e-08 0)
(42.6969 -7.13131e-08 0)
(42.6969 -7.13143e-08 0)
(42.6969 -7.13126e-08 0)
(42.6969 -7.13114e-08 0)
(42.6969 -7.13124e-08 0)
(42.6969 -7.13113e-08 0)
(42.6969 -7.13113e-08 0)
(42.6969 -7.13096e-08 0)
(42.6969 -7.13117e-08 0)
(42.6969 -7.1314e-08 0)
(42.6969 -7.13116e-08 0)
(42.6969 -7.13141e-08 0)
(42.6969 -7.13153e-08 0)
(42.6969 -7.13127e-08 0)
(42.6969 -7.13113e-08 0)
(42.6969 -7.13129e-08 0)
(42.6969 -7.13126e-08 0)
(42.6969 -7.13137e-08 0)
(42.6969 -7.13121e-08 0)
(42.6969 -7.13143e-08 0)
(42.6969 -7.13121e-08 0)
(42.6969 -7.13128e-08 0)
(42.6969 -7.13123e-08 0)
(42.6969 -7.13114e-08 0)
(42.6969 -7.13132e-08 0)
(42.6969 -7.1312e-08 0)
(42.6969 -7.13151e-08 0)
(42.6969 -7.13124e-08 0)
(42.6969 -7.1314e-08 0)
(42.6969 -7.13124e-08 0)
(42.6969 -7.13134e-08 0)
(42.6969 -7.13137e-08 0)
(42.6969 -7.13135e-08 0)
(42.6969 -7.13148e-08 0)
(42.6969 -7.1312e-08 0)
(42.6969 -7.13121e-08 0)
(42.6969 -7.13129e-08 0)
(42.6969 -7.13132e-08 0)
(42.6969 -7.13133e-08 0)
(42.6969 -7.13129e-08 0)
(42.6969 -7.13155e-08 0)
(42.6969 -7.13124e-08 0)
(42.6969 -7.13129e-08 0)
(42.6969 -7.13148e-08 0)
(42.6969 -7.13105e-08 0)
(42.6969 -7.1312e-08 0)
(42.6969 -7.13103e-08 0)
(42.6969 -7.13089e-08 0)
(42.6969 -7.13121e-08 0)
(42.6969 -7.13122e-08 0)
(42.6969 -7.13126e-08 0)
(42.6969 -7.13109e-08 0)
(42.6969 -7.13121e-08 0)
(42.6969 -7.13104e-08 0)
(42.6969 -7.13105e-08 0)
(42.6969 -7.1312e-08 0)
(42.6969 -7.13127e-08 0)
(42.6969 -7.1312e-08 0)
(42.6969 -7.13121e-08 0)
(42.6969 -7.13092e-08 0)
(42.6969 -7.13134e-08 0)
(42.6969 -7.13125e-08 0)
(42.6969 -7.13131e-08 0)
(42.6969 -7.13126e-08 0)
(42.6969 -7.13119e-08 0)
(42.6969 -7.13113e-08 0)
(42.6968 -7.13108e-08 0)
(42.6968 -7.13126e-08 0)
(42.6967 -7.13155e-08 0)
(42.6966 -7.13154e-08 0)
(42.6963 -7.13133e-08 0)
(42.6958 -7.13127e-08 0)
(42.695 -7.13087e-08 0)
(42.6935 -7.12978e-08 0)
(42.691 -7.12612e-08 0)
(42.6868 -7.11852e-08 0)
(42.6801 -7.10301e-08 0)
(42.6697 -7.07273e-08 0)
(42.6538 -7.01768e-08 0)
(42.6304 -6.92211e-08 0)
(42.5972 -6.76314e-08 0)
(42.5519 -6.51077e-08 0)
(42.4925 -6.12698e-08 0)
(42.4181 -5.57024e-08 0)
(42.3296 -4.80036e-08 0)
(42.2305 -3.78983e-08 0)
(42.1271 -2.53776e-08 0)
(42.0286 -1.08638e-08 0)
(41.9459 4.4647e-09 0)
(41.89 2.03365e-08 0)
(41.8692 3.20615e-08 0)
(41.8864 4.10347e-08 0)
(41.941 4.93587e-08 0)
(42.0269 4.82488e-08 0)
(42.1322 4.30759e-08 0)
(42.2425 3.14041e-08 0)
(42.3429 1.63442e-08 0)
(42.4224 2.00249e-09 0)
(42.4746 -1.27652e-08 0)
(42.4984 -2.42277e-08 0)
(42.4986 -3.00669e-08 0)
(42.4821 -3.61245e-08 0)
(42.4553 -3.70807e-08 0)
(42.4247 -3.5111e-08 0)
(42.3944 -3.10762e-08 0)
(42.3662 -1.43905e-08 0)
(42.3408 5.90108e-08 0)
(42.3179 7.99684e-07 0)
(42.2974 1.0202e-05 0)
(42.2806 0.000106982 0)
(42.2869 0.00104923 0)
(42.4115 0.0103665 0)
(45.2744 0.0905766 0)
(40.4241 1.34824 -3.13113e-15)
(40.057 3.91554 6.2553e-15)
(40.425 7.0076 -1.16966e-14)
(40.6508 10.2587 2.41374e-14)
(40.2096 13.4654 -2.49505e-14)
(38.9959 16.4954 -1.56819e-15)
(37.1103 19.2564 1.01643e-19)
(34.757 21.6986 -2.22915e-14)
(32.137 23.8377 -1.03837e-13)
(29.4357 25.7303 1.0232e-13)
(26.7678 27.4491 -2.55533e-14)
(24.1874 29.061 -5.26581e-14)
(21.6884 30.6323 2.70781e-14)
(19.2475 32.2115 0)
(16.862 33.8845 2.53093e-14)
(14.4597 35.6987 2.51886e-14)
(11.9278 37.493 -2.50711e-14)
(9.16709 38.8298 2.50159e-14)
(6.28343 39.3723 1.95031e-16)
(3.60453 41.1893 -1.92246e-16)
(40.7956 1.909 0)
(40.6115 4.92198 0)
(40.6902 8.44516 -1.58847e-15)
(40.4047 12.138 -3.17468e-15)
(39.3621 15.7553 7.94479e-15)
(37.6045 19.0183 1.58908e-14)
(35.3663 21.8384 0)
(32.9312 24.2207 9.56192e-15)
(30.471 26.2584 1.5969e-14)
(28.0546 28.0807 -3.83819e-14)
(25.6669 29.8053 2.56239e-14)
(23.2743 31.5103 1.28289e-14)
(20.8576 33.2284 -1.28322e-14)
(18.3997 34.9529 1.28145e-14)
(15.8976 36.7562 0)
(13.2768 38.6923 -1.59121e-15)
(10.3301 40.6429 1.58638e-15)
(6.75212 42.1911 -5.55438e-15)
(2.84581 42.7408 -7.93927e-16)
(1.89219 43.5386 0)
(42.0235 1.23209 -4.09751e-17)
(42.0205 2.23421 -2.08173e-14)
(42.1195 3.38112 2.1141e-14)
(42.278 4.77698 -2.03185e-14)
(42.3504 6.65621 -2.22808e-14)
(42.152 9.15864 8.28678e-14)
(41.5347 12.2264 -4.19079e-14)
(40.4457 15.6352 4.05763e-14)
(38.9431 19.0954 -8.24304e-14)
(37.1651 22.3535 1.31174e-15)
(35.2764 25.2527 4.0543e-14)
(33.4118 27.7469 0)
(31.655 29.8698 -4.05498e-14)
(30.038 31.6992 4.05666e-14)
(28.5576 33.3115 -3.2717e-16)
(27.2337 34.764 0)
(26.0972 36.1326 3.27743e-16)
(25.1538 37.5365 0)
(24.2481 39.1011 0)
(23.1972 40.6781 0)
(44.793 2.33686 6.32318e-16)
(44.3571 5.37639 -6.32808e-15)
(43.065 8.87421 -1.26955e-15)
(41.4557 12.3741 2.54915e-15)
(39.8614 15.7436 -2.55574e-15)
(38.274 18.9819 -3.16724e-19)
(36.6044 22.0963 -1.02455e-14)
(34.7946 25.0812 0)
(32.8198 27.9237 0)
(30.649 30.6317 -5.10735e-15)
(28.2617 33.213 5.09765e-15)
(25.6623 35.6656 0)
(22.8659 37.9775 -5.07213e-15)
(19.888 40.1251 5.06001e-15)
(16.745 42.0765 -5.04614e-15)
(13.4515 43.7961 1.00636e-14)
(10.0203 45.2456 -5.02122e-15)
(6.47344 46.3891 0)
(2.8793 47.2125 -2.50118e-15)
(-0.506671 47.8267 0)
(46.3693 1.67129 -9.72675e-16)
(46.8339 4.25368 7.4564e-15)
(45.9162 7.28664 5.2031e-15)
(44.2766 10.3566 1.04583e-14)
(42.4691 13.3667 0)
(40.6254 16.3264 0)
(38.7317 19.2357 1.05948e-14)
(36.7825 22.0964 2.65464e-15)
(34.7841 24.9199 -5.31496e-15)
(32.7374 27.7178 2.65266e-15)
(30.6351 30.4855 2.11509e-14)
(28.4541 33.2115 -1.31636e-14)
(26.1593 35.8754 1.31022e-14)
(23.709 38.4422 -2.60667e-15)
(21.0658 40.8621 -1.03754e-14)
(18.2085 43.0691 -1.80779e-14)
(15.1388 44.984 -9.00545e-15)
(11.8856 46.507 -1.28365e-15)
(8.53516 47.4691 7.38215e-15)
(5.2854 47.6163 3.21066e-16)
(1.06445 47.4645 0)
(0.632837 48.3107 0)
(0.372042 46.8406 0)
(0.159743 45.2294 0)
(0.0506997 43.9867 0)
(0.0112553 43.1413 0)
(0.000661269 42.6753 0)
(-0.000920207 42.4801 0)
(-0.000593453 42.4203 0)
(-0.000244032 42.4112 0)
(-8.31785e-05 42.4191 0)
(-2.54745e-05 42.4335 0)
(-7.22397e-06 42.4508 0)
(-1.98595e-06 42.4699 0)
(-5.8662e-07 42.4902 0)
(-2.22845e-07 42.5108 0)
(-1.2719e-07 42.5307 0)
(-1.01031e-07 42.548 0)
(-9.21215e-08 42.5602 0)
(-8.72361e-08 42.5646 0)
(-8.32028e-08 42.558 0)
(-8.04644e-08 42.5376 0)
(-8.08083e-08 42.501 0)
(-8.24467e-08 42.4481 0)
(-8.6632e-08 42.3803 0)
(-9.35936e-08 42.3007 0)
(-1.03206e-07 42.2139 0)
(-1.14861e-07 42.1256 0)
(-1.27643e-07 42.0423 0)
(-1.40543e-07 41.9698 0)
(-1.52706e-07 41.9135 0)
(-1.63611e-07 41.8771 0)
(-1.724e-07 41.8624 0)
(-1.79327e-07 41.8696 0)
(-1.8362e-07 41.8974 0)
(-1.81845e-07 41.9431 0)
(-1.78631e-07 42.0026 0)
(-1.72815e-07 42.0714 0)
(-1.64962e-07 42.1451 0)
(-1.55715e-07 42.2198 0)
(-1.45717e-07 42.2923 0)
(-1.35538e-07 42.3601 0)
(-1.25662e-07 42.4216 0)
(-1.16452e-07 42.4756 0)
(-1.08139e-07 42.522 0)
(-1.00867e-07 42.5608 0)
(-9.46685e-08 42.5926 0)
(-8.95119e-08 42.6182 0)
(-8.53149e-08 42.6383 0)
(-8.19696e-08 42.6539 0)
(-7.93562e-08 42.6658 0)
(-7.73406e-08 42.6746 0)
(-7.58229e-08 42.6812 0)
(-7.46962e-08 42.6859 0)
(-7.38662e-08 42.6893 0)
(-7.32685e-08 42.6917 0)
(-7.28467e-08 42.6934 0)
(-7.25512e-08 42.6946 0)
(-7.2343e-08 42.6954 0)
(-7.22015e-08 42.6959 0)
(-7.21034e-08 42.6962 0)
(-7.20399e-08 42.6965 0)
(-7.20001e-08 42.6966 0)
(-7.19718e-08 42.6967 0)
(-7.19532e-08 42.6968 0)
(-7.19439e-08 42.6968 0)
(-7.19339e-08 42.6968 0)
(-7.19304e-08 42.6969 0)
(-7.19289e-08 42.6969 0)
(-7.19255e-08 42.6969 0)
(-7.19259e-08 42.6969 0)
(-7.19253e-08 42.6969 0)
(-7.19257e-08 42.6969 0)
(-7.1923e-08 42.6969 0)
(-7.19248e-08 42.6969 0)
(-7.19248e-08 42.6969 0)
(-7.19229e-08 42.6969 0)
(-7.19256e-08 42.6969 0)
(-7.19253e-08 42.6969 0)
(-7.19256e-08 42.6969 0)
(-7.19231e-08 42.6969 0)
(-7.19219e-08 42.6969 0)
(-7.1923e-08 42.6969 0)
(-7.1924e-08 42.6969 0)
(-7.19252e-08 42.6969 0)
(-7.1921e-08 42.6969 0)
(-7.19217e-08 42.6969 0)
(-7.19256e-08 42.6969 0)
(-7.1927e-08 42.6969 0)
(-7.19253e-08 42.6969 0)
(-7.19234e-08 42.6969 0)
(-7.19238e-08 42.6969 0)
(-7.19267e-08 42.6969 0)
(-7.19272e-08 42.6969 0)
(-7.19265e-08 42.6969 0)
(-7.19232e-08 42.6969 0)
(-7.1923e-08 42.6969 0)
(-7.19219e-08 42.6969 0)
(-7.19236e-08 42.6969 0)
(-7.19244e-08 42.6969 0)
(-7.19235e-08 42.6969 0)
(-7.19266e-08 42.6969 0)
(-7.19248e-08 42.6969 0)
(-7.19238e-08 42.6969 0)
(-7.19244e-08 42.6969 0)
(-7.19264e-08 42.6969 0)
(-7.19232e-08 42.6969 0)
(-7.1927e-08 42.6969 0)
(-7.19266e-08 42.6969 0)
(-7.19232e-08 42.6969 0)
(-7.19218e-08 42.6969 0)
(-7.19242e-08 42.6969 0)
(-7.1923e-08 42.6969 0)
(-7.19226e-08 42.6969 0)
(-7.19268e-08 42.6969 0)
(-7.19254e-08 42.6969 0)
(-7.19247e-08 42.6969 0)
(-7.19249e-08 42.6969 0)
(-7.19256e-08 42.6969 0)
(-7.19266e-08 42.6969 0)
(-7.19232e-08 42.6969 0)
(-7.19217e-08 42.6969 0)
(-7.1923e-08 42.6969 0)
(-7.19226e-08 42.6969 0)
(-7.19233e-08 42.6969 0)
(-7.19222e-08 42.6969 0)
(-7.19238e-08 42.6969 0)
(-7.19214e-08 42.6969 0)
(-7.19209e-08 42.6969 0)