/*--------------------------------*- C++ -*----------------------------------*\
| =========                 |                                                 |
| \\      /  F ield         | OpenFOAM: The Open Source CFD Toolbox           |
|  \\    /   O peration     | Version:  3.0.x                                 |
|   \\  /    A nd           | Web:      www.OpenFOAM.org                      |
|    \\/     M anipulation  |                                                 |
\*---------------------------------------------------------------------------*/
FoamFile
{
    version     2.0;
    format      ascii;
    class       surfaceScalarField;
    location    "0.32";
    object      phi;
}
// * * * * * * * * * * * * * * * * * * * * * * * * * * * * * * * * * * * * * //

dimensions      [1 0 -1 0 0 0 0];

internalField   nonuniform List<scalar> 
26210
(
3.90823
0.000503901
3.90788
0.000345992
3.90754
0.000339697
3.9072
0.000341348
3.90686
0.000341388
3.90652
0.00034129
3.90618
0.000341267
3.90583
0.00034125
3.90549
0.000341217
3.90515
0.000341203
3.90481
0.000341181
3.90446
0.000341161
3.90412
0.000341151
3.90378
0.000341107
3.90344
0.000341145
3.90311
0.000341175
3.90277
0.000341144
3.90243
0.000341145
3.90209
0.000341142
3.90175
0.000341101
3.90141
0.000341113
3.90106
0.000341175
3.90072
0.000341112
3.90038
0.000341091
3.90004
0.000341043
3.8997
0.000341206
3.89936
0.00034104
3.89901
0.000341081
3.89867
0.000341051
3.89833
0.000341215
3.898
0.000340877
3.89766
0.000340951
3.89732
0.000340839
3.89698
0.000340651
3.89664
0.000340352
3.8963
0.000339872
3.89596
0.000339167
3.89562
0.000338254
3.89528
0.000336779
3.89495
0.000334791
3.89462
0.000332172
3.89429
0.000328783
3.89397
0.000324235
3.89365
0.000318664
3.89334
0.000311786
3.89304
0.000303506
3.89275
0.000293751
3.89247
0.00028249
3.8922
0.000269748
3.89194
0.000255612
3.8917
0.000240227
3.89148
0.000223797
3.89127
0.00020657
3.89108
0.000188829
3.89091
0.000170899
3.89076
0.000153063
3.89062
0.00013564
3.89051
0.000118892
3.8904
0.000103038
3.89032
8.83515e-05
3.89024
7.48649e-05
3.89018
6.27253e-05
3.89013
5.1938e-05
3.89008
4.25234e-05
3.89005
3.43968e-05
3.89002
2.75145e-05
3.89
2.1764e-05
3.88999
1.69997e-05
3.88997
1.31316e-05
3.88996
1.00276e-05
3.88996
7.57026e-06
3.88995
5.6505e-06
3.88995
4.1703e-06
3.88994
3.04362e-06
3.88994
2.19694e-06
3.88994
1.56857e-06
3.88994
1.108e-06
3.88994
7.74504e-07
3.88994
5.35914e-07
3.88994
3.67276e-07
3.88994
2.49474e-07
3.88994
1.68166e-07
3.88994
1.12832e-07
3.88994
7.5026e-08
3.88994
5.02587e-08
3.88994
3.37859e-08
3.88994
2.30903e-08
3.88994
1.61526e-08
3.88994
1.17252e-08
3.88994
8.93488e-09
3.88994
7.17773e-09
3.88995
6.0827e-09
3.88995
5.42059e-09
3.88995
5.04224e-09
3.88995
4.8567e-09
3.88995
4.81305e-09
3.88995
4.8567e-09
3.88996
4.97312e-09
3.88996
5.08953e-09
3.88996
5.15865e-09
3.88996
5.14774e-09
3.88997
5.0677e-09
3.88997
5.5079e-09
3.88998
4.23097e-09
3.88998
4.67844e-09
3.88998
4.60204e-09
3.88999
4.59477e-09
3.88999
4.65661e-09
3.89
4.7803e-09
3.89
4.93674e-09
3.89001
5.09681e-09
3.89002
5.25324e-09
3.89002
5.38421e-09
3.89003
5.49335e-09
3.89004
5.59521e-09
3.89005
5.68616e-09
3.89005
5.75892e-09
3.89006
5.83168e-09
3.89007
5.91172e-09
3.89008
5.98811e-09
3.89009
6.06451e-09
3.8901
6.15182e-09
3.89011
6.25732e-09
3.89012
6.37738e-09
3.89013
6.49743e-09
3.89014
6.63204e-09
3.89015
6.76664e-09
3.89017
6.90852e-09
3.89018
7.06132e-09
3.89019
7.22503e-09
3.8902
7.40692e-09
3.89022
7.57791e-09
3.89023
7.778e-09
3.89024
7.989e-09
3.89026
8.2473e-09
3.89028
8.51651e-09
3.89029
8.80027e-09
3.89031
9.15315e-09
3.89033
9.52423e-09
3.89034
9.92804e-09
3.89036
1.02955e-08
3.89038
1.06666e-08
3.8904
1.10704e-08
3.89043
1.15178e-08
3.89045
1.20854e-08
3.89047
1.27075e-08
3.8905
1.34969e-08
3.89053
1.44064e-08
3.89056
1.54614e-08
3.89059
1.66765e-08
3.89063
1.79571e-08
3.89066
1.93795e-08
3.8907
2.07874e-08
3.89075
2.23517e-08
3.89079
2.39343e-08
3.89084
2.56441e-08
3.89089
2.74486e-08
3.89095
2.93621e-08
3.89101
3.14722e-08
3.89107
3.36331e-08
3.89114
3.60487e-08
3.89122
3.85116e-08
3.89129
4.11928e-08
3.89138
4.39577e-08
3.89147
4.68463e-08
3.89156
4.98731e-08
3.89166
5.28926e-08
3.89177
5.61231e-08
3.89188
5.92263e-08
3.892
6.25478e-08
3.89212
6.57164e-08
3.89226
6.90161e-08
3.89239
7.22612e-08
3.89254
7.5368e-08
3.89269
7.86604e-08
3.89285
8.14798e-08
3.89301
8.45939e-08
3.89318
8.72933e-08
3.89335
8.99527e-08
3.89353
9.24047e-08
3.89372
9.45656e-08
3.89391
9.67375e-08
3.8941
9.81963e-08
3.8943
9.98662e-08
3.8945
1.0099e-07
3.89471
1.01878e-07
3.89491
1.03155e-07
3.89512
1.0616e-07
3.89533
1.21563e-07
3.89553
1.9537e-07
3.89574
5.54348e-07
3.89594
2.28864e-06
3.89613
1.0652e-05
3.89628
5.09244e-05
3.89623
0.000244283
3.89525
0.00116981
3.88987
0.00556345
3.86394
0.0261018
3.73111
0.132997
0.505369
3.2259
5.52786
0.000460534
5.52787
0.000328384
5.5279
0.0003151
5.52792
0.000318617
5.52794
0.000318801
5.52797
0.000318649
5.52799
0.000318667
5.52801
0.000318699
5.52803
0.000318712
5.52805
0.000318739
5.52807
0.000318763
5.52809
0.000318785
5.52811
0.000318817
5.52813
0.000318821
5.52816
0.000318896
5.52818
0.000318964
5.52821
0.000318978
5.52824
0.000319021
5.52826
0.000319059
5.52828
0.000319066
5.5283
0.000319117
5.52832
0.000319213
5.52834
0.000319199
5.52836
0.00031922
5.52838
0.000319222
5.5284
0.000319403
5.52842
0.000319302
5.52844
0.000319377
5.52846
0.000319393
5.52849
0.000319573
5.52851
0.000319318
5.52854
0.000319415
5.52856
0.000319348
5.52859
0.000319206
5.52861
0.000318956
5.52863
0.000318533
5.52865
0.000317889
5.52867
0.000317036
5.52868
0.000315653
5.5287
0.000313772
5.52872
0.000311279
5.52875
0.000308043
5.52877
0.000303706
5.52879
0.000298382
5.52882
0.000291816
5.52884
0.000283915
5.52886
0.000274616
5.52888
0.000263894
5.52889
0.000251781
5.52891
0.000238364
5.52893
0.000223788
5.52894
0.000208249
5.52896
0.000191989
5.52897
0.000175276
5.52898
0.000158421
5.52899
0.000141688
5.529
0.000125377
5.52901
0.000109731
5.52902
9.49537e-05
5.52903
8.12913e-05
5.52903
6.87734e-05
5.52904
5.75282e-05
5.52904
4.75587e-05
5.52905
3.88737e-05
5.52905
3.13938e-05
5.52905
2.50716e-05
5.52906
1.97986e-05
5.52906
1.54398e-05
5.52906
1.19072e-05
5.52906
9.07805e-06
5.52906
6.84245e-06
5.52906
5.0992e-06
5.52906
3.75757e-06
5.52906
2.73824e-06
5.52906
1.9736e-06
5.52906
1.40712e-06
5.52906
9.92697e-07
5.52906
6.93115e-07
5.52906
4.79158e-07
5.52906
3.28182e-07
5.52906
2.22883e-07
5.52906
1.50314e-07
5.52906
1.00974e-07
5.52906
6.73153e-08
5.52906
4.52656e-08
5.52906
3.0619e-08
5.52906
2.11057e-08
5.52907
1.49448e-08
5.52907
1.09994e-08
5.52907
8.51287e-09
5.52907
6.94308e-09
5.52907
5.96447e-09
5.52907
5.37148e-09
5.52907
5.04224e-09
5.52907
4.87489e-09
5.52908
4.84033e-09
5.52908
4.89672e-09
5.52908
5.02223e-09
5.52908
5.13683e-09
5.52909
5.20777e-09
5.52909
5.20595e-09
5.5291
5.15683e-09
5.5291
5.55519e-09
5.52911
4.41651e-09
5.52911
4.8185e-09
5.52912
4.77849e-09
5.52912
4.78394e-09
5.52913
4.85306e-09
5.52914
4.96766e-09
5.52914
5.12227e-09
5.52915
5.27507e-09
5.52916
5.42059e-09
5.52917
5.54428e-09
5.52918
5.64432e-09
5.52919
5.72982e-09
5.5292
5.80803e-09
5.52921
5.88625e-09
5.52922
5.94628e-09
5.52924
6.02085e-09
5.52925
6.0827e-09
5.52926
6.15182e-09
5.52927
6.23186e-09
5.52929
6.31735e-09
5.5293
6.42831e-09
5.52932
6.53381e-09
5.52933
6.65386e-09
5.52935
6.77028e-09
5.52936
6.89579e-09
5.52938
7.03585e-09
5.5294
7.17955e-09
5.52942
7.3378e-09
5.52944
7.4906e-09
5.52945
7.66704e-09
5.52947
7.86895e-09
5.52949
8.09086e-09
5.52952
8.33643e-09
5.52954
8.59291e-09
5.52956
8.91669e-09
5.52959
9.25866e-09
5.52961
9.62063e-09
5.52964
9.9626e-09
5.52967
1.03082e-08
5.52969
1.06938e-08
5.52973
1.11177e-08
5.52976
1.16506e-08
5.52979
1.22473e-08
5.52983
1.30021e-08
5.52987
1.38662e-08
5.52991
1.48666e-08
5.52996
1.60217e-08
5.53001
1.7224e-08
5.53006
1.85628e-08
5.53011
1.98906e-08
5.53017
2.13586e-08
5.53024
2.2852e-08
5.53031
2.44472e-08
5.53038
2.61352e-08
5.53046
2.79288e-08
5.53054
2.98987e-08
5.53063
3.19305e-08
5.53073
3.41697e-08
5.53084
3.64962e-08
5.53095
3.89737e-08
5.53106
4.15639e-08
5.53119
4.42578e-08
5.53132
4.70827e-08
5.53147
4.98931e-08
5.53162
5.29035e-08
5.53177
5.58066e-08
5.53194
5.88898e-08
5.53212
6.18129e-08
5.5323
6.49288e-08
5.5325
6.79283e-08
5.5327
7.08169e-08
5.53292
7.3911e-08
5.53314
7.64976e-08
5.53337
7.9428e-08
5.53361
8.19746e-08
5.53385
8.4412e-08
5.53411
8.66748e-08
5.53437
8.87558e-08
5.53464
9.07585e-08
5.53491
9.20718e-08
5.53519
9.36361e-08
5.53548
9.48457e-08
5.53576
9.57534e-08
5.53605
9.79617e-08
5.53635
1.05498e-07
5.53664
1.42654e-07
5.53693
3.2203e-07
5.53722
1.18993e-06
5.53751
5.37828e-06
5.53778
2.55689e-05
5.53799
0.00012278
5.53792
0.000589522
5.53653
0.00282397
5.52891
0.0134398
5.49218
0.0630805
5.30887
0.316541
1.16922
4.64524
7.81757
0.00040274
7.81759
0.000300839
7.81763
0.000280962
7.81766
0.000286065
7.81769
0.000286455
7.81772
0.000286202
7.81776
0.000286219
7.81779
0.000286259
7.81782
0.000286276
7.81785
0.0002863
7.81787
0.000286325
7.8179
0.000286344
7.81793
0.000286375
7.81796
0.000286382
7.818
0.000286446
7.81804
0.000286506
7.81808
0.000286521
7.81812
0.00028656
7.81815
0.000286594
7.81818
0.000286604
7.81821
0.000286647
7.81824
0.00028673
7.81827
0.000286722
7.8183
0.000286741
7.81833
0.000286748
7.81836
0.000286896
7.81839
0.00028682
7.81842
0.000286882
7.81846
0.000286899
7.81849
0.000287046
7.81853
0.000286842
7.81857
0.000286917
7.81861
0.000286859
7.81864
0.000286733
7.81867
0.00028651
7.8187
0.000286136
7.81873
0.000285562
7.81876
0.000284796
7.81879
0.000283567
7.81882
0.000281889
7.81885
0.000279663
7.81888
0.000276769
7.81892
0.000272899
7.81895
0.000268136
7.81898
0.000262267
7.81902
0.000255198
7.81904
0.000246876
7.81907
0.000237277
7.8191
0.000226428
7.81912
0.000214406
7.81914
0.00020134
7.81916
0.000187406
7.81918
0.00017282
7.8192
0.000157817
7.81922
0.000142685
7.81923
0.000127655
7.81924
0.000112996
7.81925
9.89293e-05
7.81926
8.56375e-05
7.81927
7.33425e-05
7.81928
6.20729e-05
7.81928
5.19437e-05
7.81929
4.29598e-05
7.81929
3.5129e-05
7.8193
2.83824e-05
7.8193
2.26764e-05
7.8193
1.7915e-05
7.8193
1.39777e-05
7.8193
1.07846e-05
7.8193
8.22609e-06
7.8193
6.20332e-06
7.8193
4.62518e-06
7.81931
3.40999e-06
7.81931
2.48619e-06
7.81931
1.7929e-06
7.81931
1.27892e-06
7.81931
9.02724e-07
7.81931
6.30625e-07
7.81931
4.36176e-07
7.81931
2.98886e-07
7.81931
2.03075e-07
7.81931
1.37014e-07
7.81931
9.20536e-08
7.81931
6.14045e-08
7.81931
4.12783e-08
7.81931
2.79188e-08
7.81931
1.92267e-08
7.81931
1.36024e-08
7.81931
9.99535e-09
7.81931
7.71888e-09
7.81931
6.28097e-09
7.81931
5.38967e-09
7.81932
4.84215e-09
7.81932
4.5402e-09
7.81932
4.38831e-09
7.81932
4.35284e-09
7.81933
4.40014e-09
7.81933
4.50837e-09
7.81934
4.61296e-09
7.81934
4.67935e-09
7.81935
4.6748e-09
7.81935
4.63569e-09
7.81936
4.95766e-09
7.81937
3.99268e-09
7.81937
4.31828e-09
7.81938
4.29281e-09
7.81939
4.29645e-09
7.8194
4.35921e-09
7.81941
4.46289e-09
7.81942
4.60204e-09
7.81943
4.74029e-09
7.81944
4.87034e-09
7.81946
4.97766e-09
7.81947
5.06861e-09
7.81948
5.14592e-09
7.8195
5.21231e-09
7.81952
5.28235e-09
7.81953
5.34328e-09
7.81955
5.40967e-09
7.81957
5.46243e-09
7.81958
5.52336e-09
7.8196
5.59794e-09
7.81962
5.67525e-09
7.81964
5.77347e-09
7.81966
5.86715e-09
7.81969
5.97629e-09
7.81971
6.08452e-09
7.81973
6.19821e-09
7.81976
6.31735e-09
7.81978
6.44559e-09
7.81981
6.58929e-09
7.81983
6.73208e-09
7.81986
6.88851e-09
7.81989
7.07132e-09
7.81992
7.26686e-09
7.81995
7.48423e-09
7.81998
7.72252e-09
7.82001
8.00628e-09
7.82004
8.31642e-09
7.82008
8.63474e-09
7.82012
8.94488e-09
7.82016
9.25957e-09
7.8202
9.6079e-09
7.82024
9.98534e-09
7.82029
1.0461e-08
7.82034
1.10031e-08
7.82039
1.1677e-08
7.82045
1.24519e-08
7.82051
1.33514e-08
7.82057
1.43837e-08
7.82064
1.54678e-08
7.82071
1.66692e-08
7.82079
1.78643e-08
7.82088
1.91812e-08
7.82097
2.05246e-08
7.82106
2.19634e-08
7.82117
2.34713e-08
7.82128
2.50811e-08
7.8214
2.6851e-08
7.82153
2.86855e-08
7.82166
3.06709e-08
7.82181
3.28046e-08
7.82197
3.49937e-08
7.82214
3.7332e-08
7.82231
3.97467e-08
7.8225
4.23061e-08
7.8227
4.48208e-08
7.82291
4.7522e-08
7.82314
5.01368e-08
7.82338
5.29044e-08
7.82363
5.54865e-08
7.82389
5.83432e-08
7.82416
6.10125e-08
7.82445
6.35882e-08
7.82475
6.6414e-08
7.82507
6.86859e-08
7.82539
7.13571e-08
7.82573
7.36864e-08
7.82608
7.582e-08
7.82644
7.781e-08
7.82681
7.977e-08
7.82719
8.15544e-08
7.82758
8.26531e-08
7.82797
8.40855e-08
7.82837
8.53997e-08
7.82878
8.63474e-08
7.82919
8.97908e-08
7.82961
1.0357e-07
7.83002
1.70649e-07
7.83043
4.95172e-07
7.83084
2.06171e-06
7.83125
9.61827e-06
7.83163
4.60418e-05
7.83193
0.00022141
7.83184
0.00106349
7.82995
0.00509569
7.81949
0.0242637
7.76911
0.113808
7.52151
0.564476
2.042
6.64905
34.5084
0.000186233
34.5085
0.000156998
34.5087
0.000139127
34.5088
0.000142622
34.5089
0.000143577
34.5091
0.000143248
34.5092
0.000143182
34.5094
0.000143192
34.5095
0.00014319
34.5096
0.000143188
34.5097
0.000143196
34.5099
0.000143197
34.51
0.000143208
34.5101
0.000143212
34.5103
0.000143238
34.5105
0.000143262
34.5106
0.000143271
34.5108
0.000143289
34.5109
0.000143305
34.5111
0.000143313
34.5112
0.00014333
34.5113
0.000143365
34.5115
0.000143366
34.5116
0.000143374
34.5117
0.000143384
34.5119
0.000143439
34.512
0.000143419
34.5122
0.000143443
34.5123
0.000143455
34.5125
0.000143509
34.5126
0.000143439
34.5128
0.000143461
34.513
0.000143435
34.5131
0.000143375
34.5133
0.000143267
34.5134
0.000143088
34.5135
0.000142808
34.5137
0.000142427
34.5138
0.000141833
34.5139
0.000141012
34.514
0.000139919
34.5142
0.000138493
34.5143
0.000136594
34.5145
0.000134242
34.5146
0.000131347
34.5148
0.000127852
34.5149
0.000123732
34.515
0.000118974
34.5151
0.00011359
34.5152
0.000107615
34.5153
0.000101113
34.5154
9.41715e-05
34.5155
8.68976e-05
34.5156
7.94024e-05
34.5157
7.1838e-05
34.5157
6.4316e-05
34.5158
5.69693e-05
34.5158
4.99144e-05
34.5159
4.32395e-05
34.5159
3.70587e-05
34.516
3.13883e-05
34.516
2.62857e-05
34.516
2.17562e-05
34.516
1.78033e-05
34.516
1.43956e-05
34.516
1.15098e-05
34.5161
9.09951e-06
34.5161
7.10531e-06
34.5161
5.48605e-06
34.5161
4.18762e-06
34.5161
3.16015e-06
34.5161
2.35787e-06
34.5161
1.73958e-06
34.5161
1.26915e-06
34.5161
9.15874e-07
34.5161
6.53703e-07
34.5161
4.61701e-07
34.5161
3.22736e-07
34.5161
2.23351e-07
34.5161
1.53136e-07
34.5161
1.04105e-07
34.5161
7.02926e-08
34.5161
4.72378e-08
34.5161
3.15422e-08
34.5161
2.11821e-08
34.5161
1.43136e-08
34.5161
9.83573e-09
34.5161
6.93854e-09
34.5161
5.07953e-09
34.5161
3.90764e-09
34.5161
3.16959e-09
34.5161
2.70848e-09
34.5161
2.42881e-09
34.5161
2.27419e-09
34.5162
2.19597e-09
34.5162
2.17733e-09
34.5162
2.20234e-09
34.5162
2.25509e-09
34.5162
2.30966e-09
34.5162
2.3424e-09
34.5163
2.34104e-09
34.5163
2.32421e-09
34.5163
2.452e-09
34.5163
2.02408e-09
34.5164
2.14959e-09
34.5164
2.14504e-09
34.5165
2.14641e-09
34.5165
2.17824e-09
34.5165
2.23281e-09
34.5166
2.30011e-09
34.5166
2.36969e-09
34.5167
2.43426e-09
34.5168
2.48974e-09
34.5168
2.53431e-09
34.5169
2.57432e-09
34.5169
2.60752e-09
34.517
2.64254e-09
34.5171
2.67346e-09
34.5172
2.70529e-09
34.5172
2.73258e-09
34.5173
2.76168e-09
34.5174
2.79942e-09
34.5175
2.83762e-09
34.5176
2.88401e-09
34.5177
2.93312e-09
34.5178
2.9886e-09
34.5179
3.04453e-09
34.518
3.09774e-09
34.5181
3.15868e-09
34.5182
3.22416e-09
34.5183
3.29464e-09
34.5184
3.36559e-09
34.5185
3.44608e-09
34.5186
3.53566e-09
34.5188
3.63343e-09
34.5189
3.74212e-09
34.519
3.86126e-09
34.5192
4.00451e-09
34.5193
4.15957e-09
34.5195
4.31373e-09
34.5197
4.47199e-09
34.5198
4.63115e-09
34.52
4.80486e-09
34.5202
4.99494e-09
34.5204
5.22823e-09
34.5206
5.5029e-09
34.5209
5.83759e-09
34.5211
6.22458e-09
34.5214
6.67251e-09
34.5217
7.19228e-09
34.522
7.72798e-09
34.5223
8.33597e-09
34.5226
8.92487e-09
34.523
9.60654e-09
34.5234
1.02668e-08
34.5238
1.10022e-08
34.5243
1.17057e-08
34.5248
1.25247e-08
34.5253
1.34241e-08
34.5259
1.43582e-08
34.5265
1.52895e-08
34.5271
1.64787e-08
34.5278
1.74427e-08
34.5286
1.8666e-08
34.5294
1.98415e-08
34.5302
2.12026e-08
34.5311
2.24327e-08
34.532
2.37856e-08
34.533
2.50989e-08
34.5341
2.64895e-08
34.5352
2.75868e-08
34.5363
2.92498e-08
34.5375
3.04985e-08
34.5388
3.16777e-08
34.5401
3.33534e-08
34.5415
3.40556e-08
34.543
3.5895e-08
34.5444
3.6759e-08
34.546
3.82065e-08
34.5476
3.84048e-08
34.5492
4.04116e-08
34.5509
4.05166e-08
34.5526
4.1613e-08
34.5543
4.14175e-08
34.5561
4.40441e-08
34.5579
4.4306e-08
34.5597
5.39189e-08
34.5615
9.07467e-08
34.5634
2.75232e-07
34.5652
1.1669e-06
34.567
5.46279e-06
34.5688
2.61849e-05
34.5705
0.000126067
34.5719
0.000607104
34.5717
0.0029182
34.5645
0.0139848
34.5239
0.0664357
34.3313
0.307953
33.5097
1.3876
4.90024
30.6528
34.5083
1.36424e-12
34.5085
9.09495e-13
34.5086
9.09495e-13
34.5088
-1.36424e-12
34.5089
0
34.5091
-4.54747e-13
34.5092
-4.54747e-13
34.5093
-4.54747e-13
34.5095
9.09495e-13
34.5096
-4.54747e-13
34.5097
-2.27374e-12
34.5098
-1.36424e-12
34.51
1.36424e-12
34.5101
-4.54747e-13
34.5103
0
34.5104
-4.54747e-13
34.5106
-3.63798e-12
34.5108
0
34.5109
1.81899e-12
34.5111
1.36424e-12
34.5112
0
34.5113
1.81899e-12
34.5114
4.54747e-13
34.5116
2.27374e-12
34.5117
-9.09495e-13
34.5119
-1.36424e-12
34.512
-4.54747e-13
34.5121
-4.54747e-13
34.5123
0
34.5124
0
34.5126
-9.09495e-13
34.5128
0
34.5129
-1.36424e-12
34.5131
-9.09495e-13
34.5132
2.72848e-12
34.5134
2.72848e-12
34.5135
1.81899e-12
34.5136
0
34.5138
9.09495e-13
34.5139
4.54747e-13
34.514
1.81899e-12
34.5142
-1.36424e-12
34.5143
-2.27374e-12
34.5145
0
34.5146
9.09495e-13
34.5148
1.81899e-12
34.5149
2.27374e-12
34.515
1.81899e-12
34.5151
9.09495e-13
34.5152
2.72848e-12
34.5153
2.27374e-12
34.5154
1.36424e-12
34.5155
2.72848e-12
34.5156
1.36424e-12
34.5157
0
34.5157
9.09495e-13
34.5158
4.09273e-12
34.5158
-9.09495e-13
34.5159
1.36424e-12
34.5159
4.54747e-13
34.5159
2.72848e-12
34.516
2.27374e-12
34.516
9.09495e-13
34.516
9.09495e-13
34.516
4.54747e-13
34.516
4.54747e-12
34.5161
3.18323e-12
34.5161
4.54747e-13
34.5161
-9.09495e-13
34.5161
-1.36424e-12
34.5161
-4.54747e-13
34.5161
9.09495e-13
34.5161
1.36424e-12
34.5161
-9.09495e-13
34.5161
2.27374e-12
34.5161
1.81899e-12
34.5161
9.09495e-13
34.5161
2.27374e-12
34.5161
-2.27374e-12
34.5161
-2.27374e-12
34.5161
-9.09495e-13
34.5161
4.54747e-13
34.5161
0
34.5161
4.54747e-13
34.5161
1.81899e-12
34.5161
-1.36424e-12
34.5161
-9.09495e-13
34.5161
1.81899e-12
34.5161
9.09495e-13
34.5161
9.09495e-13
34.5161
1.81899e-12
34.5161
9.09495e-13
34.5161
9.09495e-13
34.5161
2.27374e-12
34.5162
9.09495e-13
34.5162
4.54747e-13
34.5162
-4.54747e-13
34.5162
-9.09495e-13
34.5162
3.18323e-12
34.5162
2.27374e-12
34.5163
1.81899e-12
34.5163
-1.36424e-12
34.5163
-3.18323e-12
34.5163
-2.27374e-12
34.5164
-4.54747e-13
34.5164
-4.54747e-13
34.5165
-2.72848e-12
34.5165
-1.81899e-12
34.5165
-1.36424e-12
34.5166
9.09495e-13
34.5166
9.09495e-13
34.5167
4.54747e-13
34.5168
-1.36424e-12
34.5168
-9.09495e-13
34.5169
-2.72848e-12
34.5169
-9.09495e-13
34.517
3.18323e-12
34.5171
4.09273e-12
34.5172
4.09273e-12
34.5172
2.72848e-12
34.5173
-4.54747e-13
34.5174
-4.54747e-13
34.5175
-1.36424e-12
34.5176
-1.36424e-12
34.5177
-1.36424e-12
34.5178
9.09495e-13
34.5179
9.09495e-13
34.518
-9.09495e-13
34.5181
9.09495e-13
34.5182
1.81899e-12
34.5183
9.09495e-13
34.5184
1.81899e-12
34.5185
1.81899e-12
34.5186
5.00222e-12
34.5188
2.27374e-12
34.5189
9.09495e-13
34.519
1.36424e-12
34.5192
0
34.5193
1.81899e-12
34.5195
-3.18323e-12
34.5197
-1.81899e-12
34.5198
4.54747e-13
34.52
-4.54747e-13
34.5202
-1.36424e-12
34.5204
-1.36424e-12
34.5206
-1.81899e-12
34.5209
-1.36424e-12
34.5211
-1.81899e-12
34.5214
-9.09495e-12
34.5217
7.27596e-12
34.522
-1.77351e-11
34.5223
1.40972e-11
34.5226
-2.81943e-11
34.523
4.04725e-11
34.5234
-3.18323e-12
34.5238
5.50244e-11
34.5243
-6.63931e-11
34.5248
-1.54614e-11
34.5253
-2.72848e-12
34.5259
2.36469e-11
34.5265
-1.18689e-10
34.5271
1.82354e-10
34.5278
-1.30512e-10
34.5286
4.36557e-11
34.5294
-1.1687e-10
34.5302
1.44155e-10
34.5311
-3.68345e-11
34.532
1.15506e-10
34.533
1.40972e-11
34.5341
1.24146e-10
34.5352
-3.50155e-10
34.5363
1.95087e-10
34.5375
-5.95719e-11
34.5388
-1.39607e-10
34.5401
1.44155e-10
34.5415
-3.1514e-10
34.543
-1.01409e-10
34.5444
4.48836e-10
34.546
-4.11092e-10
34.5476
4.63388e-10
34.5492
-1.8963e-10
34.5509
4.02451e-10
34.5526
-4.63842e-10
34.5543
5.76165e-10
34.5561
2.50111e-11
34.5579
3.43653e-09
34.5597
1.11722e-08
34.5615
6.14909e-08
34.5634
2.87345e-07
34.5652
1.39685e-06
34.567
6.72953e-06
34.5688
3.24688e-05
34.5706
0.000156588
34.5722
0.000755306
34.5732
0.00363971
34.5713
0.0175224
34.5553
0.0839949
34.4689
0.395923
34.0374
1.82055
6.51797
32.4211
34.5083
-0.000186233
34.5085
-0.000156998
34.5086
-0.000139127
34.5088
-0.000142622
34.5089
-0.000143577
34.5091
-0.000143248
34.5092
-0.000143182
34.5093
-0.000143192
34.5095
-0.00014319
34.5096
-0.000143188
34.5097
-0.000143196
34.5098
-0.000143197
34.51
-0.000143208
34.5101
-0.000143212
34.5103
-0.000143238
34.5104
-0.000143262
34.5106
-0.000143271
34.5108
-0.000143289
34.5109
-0.000143305
34.5111
-0.000143313
34.5112
-0.00014333
34.5113
-0.000143365
34.5114
-0.000143366
34.5116
-0.000143374
34.5117
-0.000143384
34.5119
-0.000143439
34.512
-0.000143419
34.5121
-0.000143443
34.5123
-0.000143455
34.5124
-0.000143509
34.5126
-0.000143439
34.5128
-0.000143461
34.5129
-0.000143435
34.5131
-0.000143375
34.5132
-0.000143267
34.5134
-0.000143088
34.5135
-0.000142808
34.5136
-0.000142427
34.5138
-0.000141833
34.5139
-0.000141012
34.514
-0.000139919
34.5142
-0.000138493
34.5143
-0.000136594
34.5145
-0.000134242
34.5146
-0.000131347
34.5148
-0.000127852
34.5149
-0.000123732
34.515
-0.000118974
34.5151
-0.00011359
34.5152
-0.000107615
34.5153
-0.000101113
34.5154
-9.41715e-05
34.5155
-8.68976e-05
34.5156
-7.94024e-05
34.5157
-7.1838e-05
34.5157
-6.4316e-05
34.5158
-5.69693e-05
34.5158
-4.99144e-05
34.5159
-4.32395e-05
34.5159
-3.70587e-05
34.5159
-3.13883e-05
34.516
-2.62857e-05
34.516
-2.17562e-05
34.516
-1.78033e-05
34.516
-1.43956e-05
34.516
-1.15098e-05
34.5161
-9.0995e-06
34.5161
-7.10531e-06
34.5161
-5.48605e-06
34.5161
-4.18762e-06
34.5161
-3.16015e-06
34.5161
-2.35787e-06
34.5161
-1.73958e-06
34.5161
-1.26915e-06
34.5161
-9.15868e-07
34.5161
-6.53699e-07
34.5161
-4.61701e-07
34.5161
-3.22731e-07
34.5161
-2.23357e-07
34.5161
-1.5314e-07
34.5161
-1.04108e-07
34.5161
-7.02935e-08
34.5161
-4.72382e-08
34.5161
-3.15413e-08
34.5161
-2.11789e-08
34.5161
-1.4315e-08
34.5161
-9.83709e-09
34.5161
-6.93399e-09
34.5161
-5.07816e-09
34.5161
-3.90446e-09
34.5161
-3.16368e-09
34.5161
-2.70893e-09
34.5161
-2.42653e-09
34.5161
-2.26783e-09
34.5162
-2.1937e-09
34.5162
-2.17733e-09
34.5162
-2.20371e-09
34.5162
-2.25464e-09
34.5162
-2.30193e-09
34.5162
-2.33695e-09
34.5163
-2.33877e-09
34.5163
-2.32785e-09
34.5163
-2.45791e-09
34.5163
-2.02681e-09
34.5164
-2.15095e-09
34.5164
-2.14413e-09
34.5165
-2.14959e-09
34.5165
-2.18006e-09
34.5165
-2.23326e-09
34.5166
-2.29693e-09
34.5166
-2.36878e-09
34.5167
-2.43517e-09
34.5168
-2.48974e-09
34.5168
-2.53476e-09
34.5169
-2.5766e-09
34.5169
-2.6098e-09
34.517
-2.6389e-09
34.5171
-2.66346e-09
34.5172
-2.69574e-09
34.5172
-2.72712e-09
34.5173
-2.76259e-09
34.5174
-2.80033e-09
34.5175
-2.84081e-09
34.5176
-2.88674e-09
34.5177
-2.93539e-09
34.5178
-2.98769e-09
34.5179
-3.04135e-09
34.518
-3.10047e-09
34.5181
-3.15686e-09
34.5182
-3.22143e-09
34.5183
-3.29192e-09
34.5184
-3.36149e-09
34.5185
-3.44153e-09
34.5186
-3.52884e-09
34.5188
-3.6307e-09
34.5189
-3.73984e-09
34.519
-3.85899e-09
34.5192
-4.00314e-09
34.5193
-4.15548e-09
34.5195
-4.32146e-09
34.5197
-4.47653e-09
34.5198
-4.63069e-09
34.52
-4.80259e-09
34.5202
-4.99722e-09
34.5204
-5.22959e-09
34.5206
-5.50608e-09
34.5209
-5.83896e-09
34.5211
-6.2314e-09
34.5214
-6.6857e-09
34.5217
-7.18364e-09
34.522
-7.75071e-09
34.5223
-8.31733e-09
34.5226
-8.96125e-09
34.523
-9.54515e-09
34.5234
-1.02686e-08
34.5238
-1.09421e-08
34.5243
-1.17798e-08
34.5248
-1.25647e-08
34.5253
-1.34273e-08
34.5259
-1.43646e-08
34.5265
-1.54037e-08
34.5271
-1.62436e-08
34.5278
-1.75964e-08
34.5286
-1.86569e-08
34.5294
-1.99798e-08
34.5302
-2.0988e-08
34.5311
-2.24622e-08
34.532
-2.36378e-08
34.533
-2.49902e-08
34.5341
-2.64317e-08
34.5352
-2.8037e-08
34.5363
-2.90274e-08
34.5375
-3.05886e-08
34.5388
-3.174e-08
34.5401
-3.32666e-08
34.5415
-3.46176e-08
34.543
-3.5629e-08
34.5444
-3.67086e-08
34.546
-3.7955e-08
34.5476
-3.87363e-08
34.5492
-3.97704e-08
34.5509
-4.08986e-08
34.5526
-4.11378e-08
34.5543
-4.21178e-08
34.5561
-4.19236e-08
34.5579
-4.06817e-08
34.5597
-3.22698e-08
34.5615
2.79852e-09
34.5634
1.92269e-07
34.5652
1.08141e-06
34.567
5.37981e-06
34.5688
2.6138e-05
34.5706
0.000126295
34.5725
0.000610577
34.5749
0.00295559
34.5797
0.0143708
34.595
0.0703693
34.6488
0.343638
34.7249
1.74592
5.95748
35.2868
34.5084
-0.00040274
34.5085
-0.000300839
34.5087
-0.000280962
34.5088
-0.000286065
34.5089
-0.000286455
34.5091
-0.000286202
34.5092
-0.000286219
34.5094
-0.000286259
34.5095
-0.000286276
34.5096
-0.0002863
34.5097
-0.000286325
34.5099
-0.000286344
34.51
-0.000286375
34.5101
-0.000286382
34.5103
-0.000286446
34.5105
-0.000286506
34.5106
-0.000286522
34.5108
-0.00028656
34.5109
-0.000286594
34.5111
-0.000286604
34.5112
-0.000286647
34.5113
-0.00028673
34.5115
-0.000286722
34.5116
-0.000286741
34.5117
-0.000286748
34.5119
-0.000286896
34.512
-0.00028682
34.5122
-0.000286882
34.5123
-0.000286899
34.5125
-0.000287046
34.5126
-0.000286842
34.5128
-0.000286917
34.513
-0.000286859
34.5131
-0.000286733
34.5133
-0.00028651
34.5134
-0.000286136
34.5135
-0.000285562
34.5137
-0.000284796
34.5138
-0.000283567
34.5139
-0.000281889
34.514
-0.000279663
34.5142
-0.000276769
34.5143
-0.000272899
34.5145
-0.000268136
34.5146
-0.000262267
34.5148
-0.000255198
34.5149
-0.000246876
34.515
-0.000237277
34.5151
-0.000226428
34.5152
-0.000214406
34.5153
-0.00020134
34.5154
-0.000187406
34.5155
-0.00017282
34.5156
-0.000157817
34.5157
-0.000142685
34.5157
-0.000127655
34.5158
-0.000112996
34.5158
-9.89293e-05
34.5159
-8.56375e-05
34.5159
-7.33425e-05
34.516
-6.20729e-05
34.516
-5.19437e-05
34.516
-4.29598e-05
34.516
-3.5129e-05
34.516
-2.83824e-05
34.516
-2.26764e-05
34.5161
-1.7915e-05
34.5161
-1.39777e-05
34.5161
-1.07846e-05
34.5161
-8.22609e-06
34.5161
-6.20331e-06
34.5161
-4.62518e-06
34.5161
-3.40999e-06
34.5161
-2.48619e-06
34.5161
-1.79289e-06
34.5161
-1.27891e-06
34.5161
-9.02725e-07
34.5161
-6.30619e-07
34.5161
-4.36185e-07
34.5161
-2.98892e-07
34.5161
-2.03077e-07
34.5161
-1.37014e-07
34.5161
-9.20563e-08
34.5161
-6.14064e-08
34.5161
-4.12747e-08
34.5161
-2.79188e-08
34.5161
-1.92304e-08
34.5161
-1.35988e-08
34.5161
-9.99444e-09
34.5161
-7.71524e-09
34.5161
-6.27369e-09
34.5161
-5.39058e-09
34.5161
-4.83851e-09
34.5161
-4.53201e-09
34.5162
-4.38558e-09
34.5162
-4.35375e-09
34.5162
-4.40559e-09
34.5162
-4.50837e-09
34.5162
-4.60204e-09
34.5162
-4.67389e-09
34.5163
-4.6748e-09
34.5163
-4.63842e-09
34.5163
-4.96584e-09
34.5163
-3.99905e-09
34.5164
-4.31919e-09
34.5164
-4.29009e-09
34.5165
-4.30009e-09
34.5165
-4.36103e-09
34.5165
-4.46835e-09
34.5166
-4.59477e-09
34.5166
-4.73847e-09
34.5167
-4.86943e-09
34.5168
-4.97403e-09
34.5168
-5.06407e-09
34.5169
-5.15229e-09
34.5169
-5.21868e-09
34.517
-5.27962e-09
34.5171
-5.33328e-09
34.5172
-5.39421e-09
34.5172
-5.45788e-09
34.5173
-5.52791e-09
34.5174
-5.59885e-09
34.5175
-5.67979e-09
34.5176
-5.77347e-09
34.5177
-5.86897e-09
34.5178
-5.9772e-09
34.5179
-6.08361e-09
34.518
-6.20275e-09
34.5181
-6.31371e-09
34.5182
-6.44832e-09
34.5183
-6.58747e-09
34.5184
-6.72298e-09
34.5185
-6.8876e-09
34.5186
-7.06041e-09
34.5188
-7.26686e-09
34.5189
-7.4815e-09
34.519
-7.71888e-09
34.5192
-8.00719e-09
34.5193
-8.31005e-09
34.5195
-8.64111e-09
34.5197
-8.95034e-09
34.5198
-9.26138e-09
34.52
-9.60608e-09
34.5202
-9.98807e-09
34.5204
-1.04628e-08
34.5206
-1.10067e-08
34.5209
-1.16761e-08
34.5211
-1.24592e-08
34.5214
-1.33596e-08
34.5217
-1.43809e-08
34.522
-1.5476e-08
34.5223
-1.66629e-08
34.5226
-1.78825e-08
34.523
-1.91585e-08
34.5234
-2.053e-08
34.5238
-2.1947e-08
34.5243
-2.34913e-08
34.5248
-2.50984e-08
34.5253
-2.68519e-08
34.5259
-2.86946e-08
34.5265
-3.07191e-08
34.5271
-3.27045e-08
34.5278
-3.50574e-08
34.5286
-3.73238e-08
34.5294
-3.98077e-08
34.5302
-4.2216e-08
34.5311
-4.48372e-08
34.532
-4.74811e-08
34.533
-5.00831e-08
34.5341
-5.28953e-08
34.5352
-5.56556e-08
34.5363
-5.82559e-08
34.5375
-6.10689e-08
34.5388
-6.35864e-08
34.5401
-6.63858e-08
34.5415
-6.88751e-08
34.543
-7.12944e-08
34.5444
-7.35708e-08
34.546
-7.58764e-08
34.5476
-7.77691e-08
34.5492
-7.96872e-08
34.5509
-8.15007e-08
34.5526
-8.27886e-08
34.5543
-8.39909e-08
34.5561
-8.49095e-08
34.5579
-8.48468e-08
34.5597
-8.25457e-08
34.5615
-6.9087e-08
34.5634
3.09228e-10
34.5652
3.2489e-07
34.567
1.89382e-06
34.5688
9.47042e-06
34.5707
4.60196e-05
34.5728
0.00022288
34.5764
0.00108067
34.5872
0.00528092
34.6328
0.0263404
34.8416
0.136411
35.6407
0.948271
3.05049
38.5491
7.81757
-0.000460534
7.81759
-0.000328384
7.81763
-0.0003151
7.81766
-0.000318617
7.81769
-0.000318801
7.81772
-0.000318649
7.81776
-0.000318667
7.81779
-0.000318699
7.81782
-0.000318712
7.81785
-0.000318739
7.81787
-0.000318763
7.8179
-0.000318785
7.81793
-0.000318817
7.81796
-0.000318821
7.818
-0.000318896
7.81804
-0.000318964
7.81808
-0.000318978
7.81812
-0.000319021
7.81815
-0.000319059
7.81818
-0.000319066
7.81821
-0.000319117
7.81824
-0.000319213
7.81827
-0.000319199
7.8183
-0.00031922
7.81833
-0.000319222
7.81836
-0.000319403
7.81839
-0.000319302
7.81842
-0.000319377
7.81846
-0.000319393
7.81849
-0.000319573
7.81853
-0.000319318
7.81857
-0.000319415
7.81861
-0.000319348
7.81864
-0.000319206
7.81867
-0.000318956
7.8187
-0.000318533
7.81873
-0.000317889
7.81876
-0.000317036
7.81879
-0.000315653
7.81882
-0.000313772
7.81885
-0.000311279
7.81888
-0.000308043
7.81892
-0.000303706
7.81895
-0.000298382
7.81898
-0.000291816
7.81902
-0.000283915
7.81904
-0.000274616
7.81907
-0.000263894
7.8191
-0.000251781
7.81912
-0.000238364
7.81914
-0.000223788
7.81916
-0.000208249
7.81918
-0.000191989
7.8192
-0.000175276
7.81922
-0.000158421
7.81923
-0.000141688
7.81924
-0.000125377
7.81925