/*--------------------------------*- C++ -*----------------------------------*\
| =========                 |                                                 |
| \\      /  F ield         | OpenFOAM: The Open Source CFD Toolbox           |
|  \\    /   O peration     | Version:  3.0.x                                 |
|   \\  /    A nd           | Web:      www.OpenFOAM.org                      |
|    \\/     M anipulation  |                                                 |
\*---------------------------------------------------------------------------*/
FoamFile
{
    version     2.0;
    format      ascii;
    class       volScalarField;
    location    "0.46005";
    object      p;
}
// * * * * * * * * * * * * * * * * * * * * * * * * * * * * * * * * * * * * * //

dimensions      [1 -1 -2 0 0 0 0];

internalField   nonuniform List<scalar> 
13800
(
1.80638e+07
1.80638e+07
1.80638e+07
1.80638e+07
1.80638e+07
1.80638e+07
1.80638e+07
1.80638e+07
1.80638e+07
1.80638e+07
1.80638e+07
1.80638e+07
1.80638e+07
1.80638e+07
1.80638e+07
1.80638e+07
1.80638e+07
1.80639e+07
1.80639e+07
1.80639e+07
1.80639e+07
1.80639e+07
1.80639e+07
1.80639e+07
1.80639e+07
1.80639e+07
1.80639e+07
1.80639e+07
1.80639e+07
1.80639e+07
1.80639e+07
1.80639e+07
1.80639e+07
1.80639e+07
1.80639e+07
1.80639e+07
1.80639e+07
1.80639e+07
1.80639e+07
1.80639e+07
1.80639e+07
1.80639e+07
1.80639e+07
1.80639e+07
1.80639e+07
1.80639e+07
1.80639e+07
1.80639e+07
1.80639e+07
1.80639e+07
1.80639e+07
1.80639e+07
1.80639e+07
1.80639e+07
1.80639e+07
1.80639e+07
1.80639e+07
1.80639e+07
1.80639e+07
1.80639e+07
1.80639e+07
1.80639e+07
1.80639e+07
1.80639e+07
1.80639e+07
1.80639e+07
1.80639e+07
1.80639e+07
1.80639e+07
1.80639e+07
1.80639e+07
1.80639e+07
1.80639e+07
1.80639e+07
1.80639e+07
1.80639e+07
1.80639e+07
1.80639e+07
1.80639e+07
1.80639e+07
1.80639e+07
1.80639e+07
1.80639e+07
1.80639e+07
1.80639e+07
1.80639e+07
1.80639e+07
1.80639e+07
1.80639e+07
1.80639e+07
1.80639e+07
1.8064e+07
1.8064e+07
1.8064e+07
1.8064e+07
1.8064e+07
1.8064e+07
1.8064e+07
1.80641e+07
1.80641e+07
1.80641e+07
1.80641e+07
1.80641e+07
1.80642e+07
1.80642e+07
1.80643e+07
1.80643e+07
1.80643e+07
1.80644e+07
1.80645e+07
1.80645e+07
1.80646e+07
1.80647e+07
1.80648e+07
1.80649e+07
1.8065e+07
1.80651e+07
1.80652e+07
1.80653e+07
1.80655e+07
1.80656e+07
1.80658e+07
1.8066e+07
1.80661e+07
1.80664e+07
1.80666e+07
1.80668e+07
1.80671e+07
1.80674e+07
1.80676e+07
1.8068e+07
1.80683e+07
1.80687e+07
1.8069e+07
1.80694e+07
1.80699e+07
1.80703e+07
1.80708e+07
1.80713e+07
1.80719e+07
1.80724e+07
1.80731e+07
1.80737e+07
1.80744e+07
1.80751e+07
1.80758e+07
1.80766e+07
1.80774e+07
1.80783e+07
1.80792e+07
1.80801e+07
1.80811e+07
1.80821e+07
1.80832e+07
1.80843e+07
1.80854e+07
1.80866e+07
1.80879e+07
1.80892e+07
1.80905e+07
1.80919e+07
1.80934e+07
1.80949e+07
1.80964e+07
1.80981e+07
1.80997e+07
1.81015e+07
1.81032e+07
1.81051e+07
1.8107e+07
1.81089e+07
1.81109e+07
1.8113e+07
1.81152e+07
1.81174e+07
1.81196e+07
1.81219e+07
1.81243e+07
1.81268e+07
1.81293e+07
1.81319e+07
1.81346e+07
1.81373e+07
1.81401e+07
1.8143e+07
1.81459e+07
1.81489e+07
1.8152e+07
1.81551e+07
1.81584e+07
1.81617e+07
1.8165e+07
1.81685e+07
1.8172e+07
1.81756e+07
1.81793e+07
1.81832e+07
1.81873e+07
1.81927e+07
1.82009e+07
1.80638e+07
1.80638e+07
1.80638e+07
1.80638e+07
1.80638e+07
1.80638e+07
1.80638e+07
1.80638e+07
1.80638e+07
1.80638e+07
1.80638e+07
1.80638e+07
1.80638e+07
1.80638e+07
1.80638e+07
1.80638e+07
1.80638e+07
1.80639e+07
1.80639e+07
1.80639e+07
1.80639e+07
1.80639e+07
1.80639e+07
1.80639e+07
1.80639e+07
1.80639e+07
1.80639e+07
1.80639e+07
1.80639e+07
1.80639e+07
1.80639e+07
1.80639e+07
1.80639e+07
1.80639e+07
1.80639e+07
1.80639e+07
1.80639e+07
1.80639e+07
1.80639e+07
1.80639e+07
1.80639e+07
1.80639e+07
1.80639e+07
1.80639e+07
1.80639e+07
1.80639e+07
1.80639e+07
1.80639e+07
1.80639e+07
1.80639e+07
1.80639e+07
1.80639e+07
1.80639e+07
1.80639e+07
1.80639e+07
1.80639e+07
1.80639e+07
1.80639e+07
1.80639e+07
1.80639e+07
1.80639e+07
1.80639e+07
1.80639e+07
1.80639e+07
1.80639e+07
1.80639e+07
1.80639e+07
1.80639e+07
1.80639e+07
1.80639e+07
1.80639e+07
1.80639e+07
1.80639e+07
1.80639e+07
1.80639e+07
1.80639e+07
1.80639e+07
1.80639e+07
1.80639e+07
1.80639e+07
1.80639e+07
1.80639e+07
1.80639e+07
1.80639e+07
1.80639e+07
1.80639e+07
1.80639e+07
1.80639e+07
1.80639e+07
1.80639e+07
1.80639e+07
1.8064e+07
1.8064e+07
1.8064e+07
1.8064e+07
1.8064e+07
1.8064e+07
1.8064e+07
1.80641e+07
1.80641e+07
1.80641e+07
1.80641e+07
1.80641e+07
1.80642e+07
1.80642e+07
1.80643e+07
1.80643e+07
1.80643e+07
1.80644e+07
1.80645e+07
1.80645e+07
1.80646e+07
1.80647e+07
1.80648e+07
1.80649e+07
1.8065e+07
1.80651e+07
1.80652e+07
1.80653e+07
1.80655e+07
1.80656e+07
1.80658e+07
1.8066e+07
1.80661e+07
1.80664e+07
1.80666e+07
1.80668e+07
1.80671e+07
1.80674e+07
1.80676e+07
1.8068e+07
1.80683e+07
1.80687e+07
1.8069e+07
1.80694e+07
1.80699e+07
1.80703e+07
1.80708e+07
1.80713e+07
1.80719e+07
1.80724e+07
1.80731e+07
1.80737e+07
1.80744e+07
1.80751e+07
1.80758e+07
1.80766e+07
1.80774e+07
1.80783e+07
1.80792e+07
1.80801e+07
1.80811e+07
1.80821e+07
1.80832e+07
1.80843e+07
1.80854e+07
1.80866e+07
1.80879e+07
1.80892e+07
1.80905e+07
1.80919e+07
1.80934e+07
1.80949e+07
1.80964e+07
1.80981e+07
1.80997e+07
1.81015e+07
1.81032e+07
1.81051e+07
1.8107e+07
1.81089e+07
1.81109e+07
1.8113e+07
1.81152e+07
1.81174e+07
1.81196e+07
1.81219e+07
1.81243e+07
1.81268e+07
1.81293e+07
1.81319e+07
1.81346e+07
1.81373e+07
1.81401e+07
1.8143e+07
1.81459e+07
1.81489e+07
1.8152e+07
1.81551e+07
1.81584e+07
1.81617e+07
1.8165e+07
1.81685e+07
1.8172e+07
1.81756e+07
1.81793e+07
1.81832e+07
1.81873e+07
1.81927e+07
1.82008e+07
1.80638e+07
1.80638e+07
1.80638e+07
1.80638e+07
1.80638e+07
1.80638e+07
1.80638e+07
1.80638e+07
1.80638e+07
1.80638e+07
1.80638e+07
1.80638e+07
1.80638e+07
1.80638e+07
1.80638e+07
1.80638e+07
1.80638e+07
1.80639e+07
1.80639e+07
1.80639e+07
1.80639e+07
1.80639e+07
1.80639e+07
1.80639e+07
1.80639e+07
1.80639e+07
1.80639e+07
1.80639e+07
1.80639e+07
1.80639e+07
1.80639e+07
1.80639e+07
1.80639e+07
1.80639e+07
1.80639e+07
1.80639e+07
1.80639e+07
1.80639e+07
1.80639e+07
1.80639e+07
1.80639e+07
1.80639e+07
1.80639e+07
1.80639e+07
1.80639e+07
1.80639e+07
1.80639e+07
1.80639e+07
1.80639e+07
1.80639e+07
1.80639e+07
1.80639e+07
1.80639e+07
1.80639e+07
1.80639e+07
1.80639e+07
1.80639e+07
1.80639e+07
1.80639e+07
1.80639e+07
1.80639e+07
1.80639e+07
1.80639e+07
1.80639e+07
1.80639e+07
1.80639e+07
1.80639e+07
1.80639e+07
1.80639e+07
1.80639e+07
1.80639e+07
1.80639e+07
1.80639e+07
1.80639e+07
1.80639e+07
1.80639e+07
1.80639e+07
1.80639e+07
1.80639e+07
1.80639e+07
1.80639e+07
1.80639e+07
1.80639e+07
1.80639e+07
1.80639e+07
1.80639e+07
1.80639e+07
1.80639e+07
1.80639e+07
1.80639e+07
1.80639e+07
1.8064e+07
1.8064e+07
1.8064e+07
1.8064e+07
1.8064e+07
1.8064e+07
1.8064e+07
1.80641e+07
1.80641e+07
1.80641e+07
1.80641e+07
1.80641e+07
1.80642e+07
1.80642e+07
1.80643e+07
1.80643e+07
1.80643e+07
1.80644e+07
1.80645e+07
1.80645e+07
1.80646e+07
1.80647e+07
1.80648e+07
1.80649e+07
1.8065e+07
1.80651e+07
1.80652e+07
1.80653e+07
1.80655e+07
1.80656e+07
1.80658e+07
1.8066e+07
1.80661e+07
1.80664e+07
1.80666e+07
1.80668e+07
1.80671e+07
1.80674e+07
1.80676e+07
1.8068e+07
1.80683e+07
1.80687e+07
1.8069e+07
1.80694e+07
1.80699e+07
1.80703e+07
1.80708e+07
1.80713e+07
1.80719e+07
1.80724e+07
1.80731e+07
1.80737e+07
1.80744e+07
1.80751e+07
1.80758e+07
1.80766e+07
1.80774e+07
1.80783e+07
1.80792e+07
1.80801e+07
1.80811e+07
1.80821e+07
1.80832e+07
1.80843e+07
1.80854e+07
1.80866e+07
1.80879e+07
1.80892e+07
1.80905e+07
1.80919e+07
1.80934e+07
1.80949e+07
1.80964e+07
1.80981e+07
1.80997e+07
1.81015e+07
1.81032e+07
1.81051e+07
1.8107e+07
1.81089e+07
1.81109e+07
1.8113e+07
1.81152e+07
1.81174e+07
1.81196e+07
1.81219e+07
1.81243e+07
1.81268e+07
1.81293e+07
1.81319e+07
1.81346e+07
1.81373e+07
1.81401e+07
1.8143e+07
1.81459e+07
1.81489e+07
1.8152e+07
1.81551e+07
1.81584e+07
1.81617e+07
1.8165e+07
1.81685e+07
1.8172e+07
1.81756e+07
1.81793e+07
1.81832e+07
1.81873e+07
1.81927e+07
1.82007e+07
1.80638e+07
1.80638e+07
1.80638e+07
1.80638e+07
1.80638e+07
1.80638e+07
1.80638e+07
1.80638e+07
1.80638e+07
1.80638e+07
1.80638e+07
1.80638e+07
1.80638e+07
1.80638e+07
1.80638e+07
1.80638e+07
1.80638e+07
1.80639e+07
1.80639e+07
1.80639e+07
1.80639e+07
1.80639e+07
1.80639e+07
1.80639e+07
1.80639e+07
1.80639e+07
1.80639e+07
1.80639e+07
1.80639e+07
1.80639e+07
1.80639e+07
1.80639e+07
1.80639e+07
1.80639e+07
1.80639e+07
1.80639e+07
1.80639e+07
1.80639e+07
1.80639e+07
1.80639e+07
1.80639e+07
1.80639e+07
1.80639e+07
1.80639e+07
1.80639e+07
1.80639e+07
1.80639e+07
1.80639e+07
1.80639e+07
1.80639e+07
1.80639e+07
1.80639e+07
1.80639e+07
1.80639e+07
1.80639e+07
1.80639e+07
1.80639e+07
1.80639e+07
1.80639e+07
1.80639e+07
1.80639e+07
1.80639e+07
1.80639e+07
1.80639e+07
1.80639e+07
1.80639e+07
1.80639e+07
1.80639e+07
1.80639e+07
1.80639e+07
1.80639e+07
1.80639e+07
1.80639e+07
1.80639e+07
1.80639e+07
1.80639e+07
1.80639e+07
1.80639e+07
1.80639e+07
1.80639e+07
1.80639e+07
1.80639e+07
1.80639e+07
1.80639e+07
1.80639e+07
1.80639e+07
1.80639e+07
1.80639e+07
1.80639e+07
1.80639e+07
1.80639e+07
1.8064e+07
1.8064e+07
1.8064e+07
1.8064e+07
1.8064e+07
1.8064e+07
1.8064e+07
1.80641e+07
1.80641e+07
1.80641e+07
1.80641e+07
1.80641e+07
1.80642e+07
1.80642e+07
1.80643e+07
1.80643e+07
1.80643e+07
1.80644e+07
1.80645e+07
1.80645e+07
1.80646e+07
1.80647e+07
1.80648e+07
1.80649e+07
1.8065e+07
1.80651e+07
1.80652e+07
1.80653e+07
1.80655e+07
1.80656e+07
1.80658e+07
1.8066e+07
1.80661e+07
1.80664e+07
1.80666e+07
1.80668e+07
1.80671e+07
1.80674e+07
1.80676e+07
1.8068e+07
1.80683e+07
1.80687e+07
1.8069e+07
1.80694e+07
1.80699e+07
1.80703e+07
1.80708e+07
1.80713e+07
1.80719e+07
1.80724e+07
1.80731e+07
1.80737e+07
1.80744e+07
1.80751e+07
1.80758e+07
1.80766e+07
1.80774e+07
1.80783e+07
1.80792e+07
1.80801e+07
1.80811e+07
1.80821e+07
1.80832e+07
1.80843e+07
1.80854e+07
1.80866e+07
1.80879e+07
1.80892e+07
1.80905e+07
1.80919e+07
1.80934e+07
1.80949e+07
1.80964e+07
1.80981e+07
1.80997e+07
1.81015e+07
1.81032e+07
1.81051e+07
1.8107e+07
1.81089e+07
1.81109e+07
1.8113e+07
1.81152e+07
1.81174e+07
1.81196e+07
1.81219e+07
1.81243e+07
1.81268e+07
1.81293e+07
1.81319e+07
1.81346e+07
1.81373e+07
1.81401e+07
1.8143e+07
1.81459e+07
1.81489e+07
1.8152e+07
1.81551e+07
1.81584e+07
1.81617e+07
1.8165e+07
1.81685e+07
1.8172e+07
1.81756e+07
1.81793e+07
1.81832e+07
1.81873e+07
1.81924e+07
1.81999e+07
1.80638e+07
1.80638e+07
1.80638e+07
1.80638e+07
1.80638e+07
1.80638e+07
1.80638e+07
1.80638e+07
1.80638e+07
1.80638e+07
1.80638e+07
1.80638e+07
1.80638e+07
1.80638e+07
1.80638e+07
1.80638e+07
1.80638e+07
1.80639e+07
1.80639e+07
1.80639e+07
1.80639e+07
1.80639e+07
1.80639e+07
1.80639e+07
1.80639e+07
1.80639e+07
1.80639e+07
1.80639e+07
1.80639e+07
1.80639e+07
1.80639e+07
1.80639e+07
1.80639e+07
1.80639e+07
1.80639e+07
1.80639e+07
1.80639e+07
1.80639e+07
1.80639e+07
1.80639e+07
1.80639e+07
1.80639e+07
1.80639e+07
1.80639e+07
1.80639e+07
1.80639e+07
1.80639e+07
1.80639e+07
1.80639e+07
1.80639e+07
1.80639e+07
1.80639e+07
1.80639e+07
1.80639e+07
1.80639e+07
1.80639e+07
1.80639e+07
1.80639e+07
1.80639e+07
1.80639e+07
1.80639e+07
1.80639e+07
1.80639e+07
1.80639e+07
1.80639e+07
1.80639e+07
1.80639e+07
1.80639e+07
1.80639e+07
1.80639e+07
1.80639e+07
1.80639e+07
1.80639e+07
1.80639e+07
1.80639e+07
1.80639e+07
1.80639e+07
1.80639e+07
1.80639e+07
1.80639e+07
1.80639e+07
1.80639e+07
1.80639e+07
1.80639e+07
1.80639e+07
1.80639e+07
1.80639e+07
1.80639e+07
1.80639e+07
1.80639e+07
1.80639e+07
1.8064e+07
1.8064e+07
1.8064e+07
1.8064e+07
1.8064e+07
1.8064e+07
1.8064e+07
1.80641e+07
1.80641e+07
1.80641e+07
1.80641e+07
1.80641e+07
1.80642e+07
1.80642e+07
1.80643e+07
1.80643e+07
1.80643e+07
1.80644e+07
1.80645e+07
1.80645e+07
1.80646e+07
1.80647e+07
1.80648e+07
1.80649e+07
1.8065e+07
1.80651e+07
1.80652e+07
1.80653e+07
1.80655e+07
1.80656e+07
1.80658e+07
1.8066e+07
1.80661e+07
1.80664e+07
1.80666e+07
1.80668e+07
1.80671e+07
1.80674e+07
1.80676e+07
1.8068e+07
1.80683e+07
1.80687e+07
1.8069e+07
1.80694e+07
1.80699e+07
1.80703e+07
1.80708e+07
1.80713e+07
1.80719e+07
1.80724e+07
1.80731e+07
1.80737e+07
1.80744e+07
1.80751e+07
1.80758e+07
1.80766e+07
1.80774e+07
1.80783e+07
1.80792e+07
1.80801e+07
1.80811e+07
1.80821e+07
1.80832e+07
1.80843e+07
1.80854e+07
1.80866e+07
1.80879e+07
1.80892e+07
1.80905e+07
1.80919e+07
1.80934e+07
1.80949e+07
1.80964e+07
1.80981e+07
1.80997e+07
1.81015e+07
1.81032e+07
1.81051e+07
1.8107e+07
1.81089e+07
1.81109e+07
1.8113e+07
1.81152e+07
1.81174e+07
1.81196e+07
1.81219e+07
1.81243e+07
1.81268e+07
1.81293e+07
1.81319e+07
1.81346e+07
1.81373e+07
1.81401e+07
1.8143e+07
1.81459e+07
1.81489e+07
1.8152e+07
1.81551e+07
1.81584e+07
1.81617e+07
1.8165e+07
1.81685e+07
1.8172e+07
1.81756e+07
1.81793e+07
1.81831e+07
1.81871e+07
1.81915e+07
1.81969e+07
1.80638e+07
1.80638e+07
1.80638e+07
1.80638e+07
1.80638e+07
1.80638e+07
1.80638e+07
1.80638e+07
1.80638e+07
1.80638e+07
1.80638e+07
1.80638e+07
1.80638e+07
1.80638e+07
1.80638e+07
1.80638e+07
1.80638e+07
1.80639e+07
1.80639e+07
1.80639e+07
1.80639e+07
1.80639e+07
1.80639e+07
1.80639e+07
1.80639e+07
1.80639e+07
1.80639e+07
1.80639e+07
1.80639e+07
1.80639e+07
1.80639e+07
1.80639e+07
1.80639e+07
1.80639e+07
1.80639e+07
1.80639e+07
1.80639e+07
1.80639e+07
1.80639e+07
1.80639e+07
1.80639e+07
1.80639e+07
1.80639e+07
1.80639e+07
1.80639e+07
1.80639e+07
1.80639e+07
1.80639e+07
1.80639e+07
1.80639e+07
1.80639e+07
1.80639e+07
1.80639e+07
1.80639e+07
1.80639e+07
1.80639e+07
1.80639e+07
1.80639e+07
1.80639e+07
1.80639e+07
1.80639e+07
1.80639e+07
1.80639e+07
1.80639e+07
1.80639e+07
1.80639e+07
1.80639e+07
1.80639e+07
1.80639e+07
1.80639e+07
1.80639e+07
1.80639e+07
1.80639e+07
1.80639e+07
1.80639e+07
1.80639e+07
1.80639e+07
1.80639e+07
1.80639e+07
1.80639e+07
1.80639e+07
1.80639e+07
1.80639e+07
1.80639e+07
1.80639e+07
1.80639e+07
1.80639e+07
1.80639e+07
1.80639e+07
1.80639e+07
1.80639e+07
1.8064e+07
1.8064e+07
1.8064e+07
1.8064e+07
1.8064e+07
1.8064e+07
1.8064e+07
1.80641e+07
1.80641e+07
1.80641e+07
1.80641e+07
1.80641e+07
1.80642e+07
1.80642e+07
1.80643e+07
1.80643e+07
1.80643e+07
1.80644e+07
1.80645e+07
1.80645e+07
1.80646e+07
1.80647e+07
1.80648e+07
1.80649e+07
1.8065e+07
1.80651e+07
1.80652e+07
1.80653e+07
1.80655e+07
1.80656e+07
1.80658e+07
1.8066e+07
1.80661e+07
1.80664e+07
1.80666e+07
1.80668e+07
1.80671e+07
1.80674e+07
1.80676e+07
1.8068e+07
1.80683e+07
1.80687e+07
1.8069e+07
1.80694e+07
1.80699e+07
1.80703e+07
1.80708e+07
1.80713e+07
1.80719e+07
1.80724e+07
1.80731e+07
1.80737e+07
1.80744e+07
1.80751e+07
1.80758e+07
1.80766e+07
1.80774e+07
1.80783e+07
1.80792e+07
1.80801e+07
1.80811e+07
1.80821e+07
1.80832e+07
1.80843e+07
1.80854e+07
1.80866e+07
1.80879e+07
1.80892e+07
1.80905e+07
1.80919e+07
1.80934e+07
1.80949e+07
1.80964e+07
1.80981e+07
1.80997e+07
1.81015e+07
1.81032e+07
1.81051e+07
1.8107e+07
1.81089e+07
1.81109e+07
1.8113e+07
1.81152e+07
1.81174e+07
1.81196e+07
1.81219e+07
1.81243e+07
1.81268e+07
1.81293e+07
1.81319e+07
1.81346e+07
1.81373e+07
1.81401e+07
1.8143e+07
1.81459e+07
1.81489e+07
1.8152e+07
1.81551e+07
1.81584e+07
1.81617e+07
1.8165e+07
1.81685e+07
1.8172e+07
1.81756e+07
1.81793e+07
1.81831e+07
1.81868e+07
1.81904e+07
1.81927e+07
1.80638e+07
1.80638e+07
1.80638e+07
1.80638e+07
1.80638e+07
1.80638e+07
1.80638e+07
1.80638e+07
1.80638e+07
1.80638e+07
1.80638e+07
1.80638e+07
1.80638e+07
1.80638e+07
1.80638e+07
1.80638e+07
1.80638e+07
1.80639e+07
1.80639e+07
1.80639e+07
1.80639e+07
1.80639e+07
1.80639e+07
1.80639e+07
1.80639e+07
1.80639e+07
1.80639e+07
1.80639e+07
1.80639e+07
1.80639e+07
1.80639e+07
1.80639e+07
1.80639e+07
1.80639e+07
1.80639e+07
1.80639e+07
1.80639e+07
1.80639e+07
1.80639e+07
1.80639e+07
1.80639e+07
1.80639e+07
1.80639e+07
1.80639e+07
1.80639e+07
1.80639e+07
1.80639e+07
1.80639e+07
1.80639e+07
1.80639e+07
1.80639e+07
1.80639e+07
1.80639e+07
1.80639e+07
1.80639e+07
1.80639e+07
1.80639e+07
1.80639e+07
1.80639e+07
1.80639e+07
1.80639e+07
1.80639e+07
1.80639e+07
1.80639e+07
1.80639e+07
1.80639e+07
1.80639e+07
1.80639e+07
1.80639e+07
1.80639e+07
1.80639e+07
1.80639e+07
1.80639e+07
1.80639e+07
1.80639e+07
1.80639e+07
1.80639e+07
1.80639e+07
1.80639e+07
1.80639e+07
1.80639e+07
1.80639e+07
1.80639e+07
1.80639e+07
1.80639e+07
1.80639e+07
1.80639e+07
1.80639e+07
1.80639e+07
1.80639e+07
1.80639e+07
1.8064e+07
1.8064e+07
1.8064e+07
1.8064e+07
1.8064e+07
1.8064e+07
1.8064e+07
1.80641e+07
1.80641e+07
1.80641e+07
1.80641e+07
1.80641e+07
1.80642e+07
1.80642e+07
1.80643e+07
1.80643e+07
1.80643e+07
1.80644e+07
1.80645e+07
1.80645e+07
1.80646e+07
1.80647e+07
1.80648e+07
1.80649e+07
1.8065e+07
1.80651e+07
1.80652e+07
1.80653e+07
1.80655e+07
1.80656e+07
1.80658e+07
1.8066e+07
1.80661e+07
1.80664e+07
1.80666e+07
1.80668e+07
1.80671e+07
1.80674e+07
1.80676e+07
1.8068e+07
1.80683e+07
1.80687e+07
1.8069e+07
1.80694e+07
1.80699e+07
1.80703e+07
1.80708e+07
1.80713e+07
1.80719e+07
1.80724e+07
1.80731e+07
1.80737e+07
1.80744e+07
1.80751e+07
1.80758e+07
1.80766e+07
1.80774e+07
1.80783e+07
1.80792e+07
1.80801e+07
1.80811e+07
1.80821e+07
1.80832e+07
1.80843e+07
1.80854e+07
1.80866e+07
1.80879e+07
1.80892e+07
1.80905e+07
1.80919e+07
1.80934e+07
1.80949e+07
1.80964e+07
1.80981e+07
1.80997e+07
1.81015e+07
1.81032e+07
1.81051e+07
1.8107e+07
1.81089e+07
1.81109e+07
1.8113e+07
1.81152e+07
1.81174e+07
1.81196e+07
1.81219e+07
1.81243e+07
1.81268e+07
1.81293e+07
1.81319e+07
1.81346e+07
1.81373e+07
1.81401e+07
1.8143e+07
1.81459e+07
1.81489e+07
1.8152e+07
1.81551e+07
1.81584e+07
1.81617e+07
1.8165e+07
1.81685e+07
1.8172e+07
1.81756e+07
1.81793e+07
1.8183e+07
1.81866e+07
1.81891e+07
1.8189e+07
1.80638e+07
1.80638e+07
1.80638e+07
1.80638e+07
1.80638e+07
1.80638e+07
1.80638e+07
1.80638e+07
1.80638e+07
1.80638e+07
1.80638e+07
1.80638e+07
1.80638e+07
1.80638e+07
1.80638e+07
1.80638e+07
1.80638e+07
1.80639e+07
1.80639e+07
1.80639e+07
1.80639e+07
1.80639e+07
1.80639e+07
1.80639e+07
1.80639e+07
1.80639e+07
1.80639e+07
1.80639e+07
1.80639e+07
1.80639e+07
1.80639e+07
1.80639e+07
1.80639e+07
1.80639e+07
1.80639e+07
1.80639e+07
1.80639e+07
1.80639e+07
1.80639e+07
1.80639e+07
1.80639e+07
1.80639e+07
1.80639e+07
1.80639e+07
1.80639e+07
1.80639e+07
1.80639e+07
1.80639e+07
1.80639e+07
1.80639e+07
1.80639e+07
1.80639e+07
1.80639e+07
1.80639e+07
1.80639e+07
1.80639e+07
1.80639e+07
1.80639e+07
1.80639e+07
1.80639e+07
1.80639e+07
1.80639e+07
1.80639e+07
1.80639e+07
1.80639e+07
1.80639e+07
1.80639e+07
1.80639e+07
1.80639e+07
1.80639e+07
1.80639e+07
1.80639e+07
1.80639e+07
1.80639e+07
1.80639e+07
1.80639e+07
1.80639e+07
1.80639e+07
1.80639e+07
1.80639e+07
1.80639e+07
1.80639e+07
1.80639e+07
1.80639e+07
1.80639e+07
1.80639e+07
1.80639e+07
1.80639e+07
1.80639e+07
1.80639e+07
1.80639e+07
1.8064e+07
1.8064e+07
1.8064e+07
1.8064e+07
1.8064e+07
1.8064e+07
1.8064e+07
1.80641e+07
1.80641e+07
1.80641e+07
1.80641e+07
1.80641e+07
1.80642e+07
1.80642e+07
1.80643e+07
1.80643e+07
1.80643e+07
1.80644e+07
1.80645e+07
1.80645e+07
1.80646e+07
1.80647e+07
1.80648e+07
1.80649e+07
1.8065e+07
1.80651e+07
1.80652e+07
1.80653e+07
1.80655e+07
1.80656e+07
1.80658e+07
1.8066e+07
1.80661e+07
1.80664e+07
1.80666e+07
1.80668e+07
1.80671e+07
1.80674e+07
1.80676e+07
1.8068e+07
1.80683e+07
1.80687e+07
1.8069e+07
1.80694e+07
1.80699e+07
1.80703e+07
1.80708e+07
1.80713e+07
1.80719e+07
1.80724e+07
1.80731e+07
1.80737e+07
1.80744e+07
1.80751e+07
1.80758e+07
1.80766e+07
1.80774e+07
1.80783e+07
1.80792e+07
1.80801e+07
1.80811e+07
1.80821e+07
1.80832e+07
1.80843e+07
1.80854e+07
1.80866e+07
1.80879e+07
1.80892e+07
1.80905e+07
1.80919e+07
1.80934e+07
1.80949e+07
1.80964e+07
1.80981e+07
1.80997e+07
1.81015e+07
1.81032e+07
1.81051e+07
1.8107e+07
1.81089e+07
1.81109e+07
1.8113e+07
1.81152e+07
1.81174e+07
1.81196e+07
1.81219e+07
1.81243e+07
1.81268e+07
1.81293e+07
1.81319e+07
1.81346e+07
1.81373e+07
1.81401e+07
1.8143e+07
1.81459e+07
1.81489e+07
1.8152e+07
1.81551e+07
1.81584e+07
1.81617e+07
1.8165e+07
1.81685e+07
1.8172e+07
1.81756e+07
1.81793e+07
1.8183e+07
1.81865e+07
1.81888e+07
1.81883e+07
1.80638e+07
1.80638e+07
1.80638e+07
1.80638e+07
1.80638e+07
1.80638e+07
1.80638e+07
1.80638e+07
1.80638e+07
1.80638e+07
1.80638e+07
1.80638e+07
1.80638e+07
1.80638e+07
1.80638e+07
1.80638e+07
1.80638e+07
1.80639e+07
1.80639e+07
1.80639e+07
1.80639e+07
1.80639e+07
1.80639e+07
1.80639e+07
1.80639e+07
1.80639e+07
1.80639e+07
1.80639e+07
1.80639e+07
1.80639e+07
1.80639e+07
1.80639e+07
1.80639e+07
1.80639e+07
1.80639e+07
1.80639e+07
1.80639e+07
1.80639e+07
1.80639e+07
1.80639e+07
1.80639e+07
1.80639e+07
1.80639e+07
1.80639e+07
1.80639e+07
1.80639e+07
1.80639e+07
1.80639e+07
1.80639e+07
1.80639e+07
1.80639e+07
1.80639e+07
1.80639e+07
1.80639e+07
1.80639e+07
1.80639e+07
1.80639e+07
1.80639e+07
1.80639e+07
1.80639e+07
1.80639e+07
1.80639e+07
1.80639e+07
1.80639e+07
1.80639e+07
1.80639e+07
1.80639e+07
1.80639e+07
1.80639e+07
1.80639e+07
1.80639e+07
1.80639e+07
1.80639e+07
1.80639e+07
1.80639e+07
1.80639e+07
1.80639e+07
1.80639e+07
1.80639e+07
1.80639e+07
1.80639e+07
1.80639e+07
1.80639e+07
1.80639e+07
1.80639e+07
1.80639e+07
1.80639e+07
1.80639e+07
1.80639e+07
1.80639e+07
1.80639e+07
1.8064e+07
1.8064e+07
1.8064e+07
1.8064e+07
1.8064e+07
1.8064e+07
1.8064e+07
1.80641e+07
1.80641e+07
1.80641e+07
1.80641e+07
1.80641e+07
1.80642e+07
1.80642e+07
1.80643e+07
1.80643e+07
1.80643e+07
1.80644e+07
1.80645e+07
1.80645e+07
1.80646e+07
1.80647e+07
1.80648e+07
1.80649e+07
1.8065e+07
1.80651e+07
1.80652e+07
1.80653e+07
1.80655e+07
1.80656e+07
1.80658e+07
1.8066e+07
1.80661e+07
1.80664e+07
1.80666e+07
1.80668e+07
1.80671e+07
1.80674e+07
1.80676e+07
1.8068e+07
1.80683e+07
1.80687e+07
1.8069e+07
1.80694e+07
1.80699e+07
1.80703e+07
1.80708e+07
1.80713e+07
1.80719e+07
1.80724e+07
1.80731e+07
1.80737e+07
1.80744e+07
1.80751e+07
1.80758e+07
1.80766e+07
1.80774e+07
1.80783e+07
1.80792e+07
1.80801e+07
1.80811e+07
1.80821e+07
1.80832e+07
1.80843e+07
1.80854e+07
1.80866e+07
1.80879e+07
1.80892e+07
1.80905e+07
1.80919e+07
1.80934e+07
1.80949e+07
1.80964e+07
1.80981e+07
1.80997e+07
1.81015e+07
1.81032e+07
1.81051e+07
1.8107e+07
1.81089e+07
1.81109e+07
1.8113e+07
1.81152e+07
1.81174e+07
1.81196e+07
1.81219e+07
1.81243e+07
1.81268e+07
1.81293e+07
1.81319e+07
1.81346e+07
1.81373e+07
1.81401e+07
1.8143e+07
1.81459e+07
1.81489e+07
1.8152e+07
1.81551e+07
1.81584e+07
1.81617e+07
1.8165e+07
1.81685e+07
1.8172e+07
1.81756e+07
1.81793e+07
1.8183e+07
1.81865e+07
1.81887e+07
1.81882e+07
1.80638e+07
1.80638e+07
1.80638e+07
1.80638e+07
1.80638e+07
1.80638e+07
1.80638e+07
1.80638e+07
1.80638e+07
1.80638e+07
1.80638e+07
1.80638e+07
1.80638e+07
1.80638e+07
1.80638e+07
1.80638e+07
1.80638e+07
1.80639e+07
1.80639e+07
1.80639e+07
1.80639e+07
1.80639e+07
1.80639e+07
1.80639e+07
1.80639e+07
1.80639e+07
1.80639e+07
1.80639e+07
1.80639e+07
1.80639e+07
1.80639e+07
1.80639e+07
1.80639e+07
1.80639e+07
1.80639e+07
1.80639e+07
1.80639e+07
1.80639e+07
1.80639e+07
1.80639e+07
1.80639e+07
1.80639e+07
1.80639e+07
1.80639e+07
1.80639e+07
1.80639e+07
1.80639e+07
1.80639e+07
1.80639e+07
1.80639e+07
1.80639e+07
1.80639e+07
1.80639e+07
1.80639e+07
1.80639e+07
1.80639e+07
1.80639e+07
1.80639e+07
1.80639e+07
1.80639e+07
1.80639e+07
1.80639e+07
1.80639e+07
1.80639e+07
1.80639e+07
1.80639e+07
1.80639e+07
1.80639e+07
1.80639e+07
1.80639e+07
1.80639e+07
1.80639e+07
1.80639e+07
1.80639e+07
1.80639e+07
1.80639e+07
1.80639e+07
1.80639e+07
1.80639e+07
1.80639e+07
1.80639e+07
1.80639e+07
1.80639e+07
1.80639e+07
1.80639e+07
1.80639e+07
1.80639e+07
1.80639e+07
1.80639e+07
1.80639e+07
1.80639e+07
1.8064e+07
1.8064e+07
1.8064e+07
1.8064e+07
1.8064e+07
1.8064e+07
1.8064e+07
1.80641e+07
1.80641e+07
1.80641e+07
1.80641e+07
1.80641e+07
1.80642e+07
1.80642e+07
1.80643e+07
1.80643e+07
1.80643e+07
1.80644e+07
1.80645e+07
1.80645e+07
1.80646e+07
1.80647e+07
1.80648e+07
1.80649e+07
1.8065e+07
1.80651e+07
1.80652e+07
1.80653e+07
1.80655e+07
1.80656e+07
1.80658e+07
1.8066e+07
1.80661e+07
1.80664e+07
1.80666e+07
1.80668e+07
1.80671e+07
1.80674e+07
1.80676e+07
1.8068e+07
1.80683e+07
1.80687e+07
1.8069e+07
1.80694e+07
1.80699e+07
1.80703e+07
1.80708e+07
1.80713e+07
1.80719e+07
1.80724e+07
1.80731e+07
1.80737e+07
1.80744e+07
1.80751e+07
1.80758e+07
1.80766e+07
1.80774e+07
1.80783e+07
1.80792e+07
1.80801e+07
1.80811e+07
1.80821e+07
1.80832e+07
1.80843e+07
1.80854e+07
1.80866e+07
1.80879e+07
1.80892e+07
1.80905e+07
1.80919e+07
1.80934e+07
1.80949e+07
1.80964e+07
1.80981e+07
1.80997e+07
1.81015e+07
1.81032e+07
1.81051e+07
1.8107e+07
1.81089e+07
1.81109e+07
1.8113e+07
1.81152e+07
1.81174e+07
1.81196e+07
1.81219e+07
1.81243e+07
1.81268e+07
1.81293e+07
1.81319e+07
1.81346e+07
1.81373e+07
1.81401e+07
1.8143e+07
1.81459e+07
1.81489e+07
1.8152e+07
1.81551e+07
1.81584e+07
1.81617e+07
1.8165e+07
1.81685e+07
1.8172e+07
1.81756e+07
1.81793e+07
1.8183e+07
1.81865e+07
1.81887e+07
1.81881e+07
1.82328e+07
1.82476e+07
1.82535e+07
1.82551e+07
1.82559e+07
1.82566e+07
1.82573e+07
1.82578e+07
1.8258e+07
1.82583e+07
1.82585e+07
1.82586e+07
1.82586e+07
1.82584e+07
1.8258e+07
1.82573e+07
1.8256e+07
1.82539e+07
1.82506e+07
1.82448e+07
1.82309e+07
1.82438e+07
1.82494e+07
1.82511e+07
1.82519e+07
1.82527e+07
1.82533e+07
1.82538e+07
1.82541e+07
1.82543e+07
1.82545e+07
1.82547e+07
1.82547e+07
1.82545e+07
1.82542e+07
1.82534e+07
1.82521e+07
1.825e+07
1.82466e+07
1.8241e+07
1.8229e+07
1.82421e+07
1.82485e+07
1.82505e+07
1.82514e+07
1.82522e+07
1.82529e+07
1.82534e+07
1.82537e+07
1.82539e+07
1.8254e+07
1.82541e+07
1.82541e+07
1.82539e+07
1.82534e+07
1.82526e+07
1.82511e+07
1.82487e+07
1.82451e+07
1.8239e+07
1.82215e+07
1.82291e+07
1.8232e+07
1.82326e+07
1.8233e+07
1.82336e+07
1.82341e+07
1.82344e+07
1.82347e+07
1.8235e+07
1.82352e+07
1.82354e+07
1.82355e+07
1.82355e+07
1.82351e+07
1.82345e+07
1.82335e+07
1.82316e+07
1.82286e+07
1.82241e+07
1.82098e+07
1.82153e+07
1.82197e+07
1.8223e+07
1.82256e+07
1.82274e+07
1.82286e+07
1.82295e+07
1.823e+07
1.82304e+07
1.82304e+07
1.82301e+07
1.82298e+07
1.82291e+07
1.82281e+07
1.82267e+07
1.82248e+07
1.82227e+07
1.82203e+07
1.82174e+07
1.8189e+07
1.81863e+07
1.81831e+07
1.81799e+07
1.81771e+07
1.8175e+07
1.81738e+07
1.8173e+07
1.81726e+07
1.81726e+07
1.81729e+07
1.81737e+07
1.81744e+07
1.81754e+07
1.81764e+07
1.81775e+07
1.81789e+07
1.81804e+07
1.81822e+07
1.81845e+07
1.81662e+07
1.81598e+07
1.81582e+07
1.81594e+07
1.81607e+07
1.81616e+07
1.81624e+07
1.8163e+07
1.81636e+07
1.81639e+07
1.81641e+07
1.81643e+07
1.81643e+07
1.81643e+07
1.81644e+07
1.8165e+07
1.8166e+07
1.8168e+07
1.81713e+07
1.81761e+07
1.81376e+07
1.81181e+07
1.81032e+07
1.80936e+07
1.80875e+07
1.80831e+07
1.80799e+07
1.80781e+07
1.80773e+07
1.80775e+07
1.80784e+07
1.80801e+07
1.80826e+07
1.8086e+07
1.80905e+07
1.80961e+07
1.81029e+07
1.81117e+07
1.81223e+07
1.81351e+07
1.81289e+07
1.8108e+07
1.80946e+07
1.80871e+07
1.80824e+07
1.80789e+07
1.80763e+07
1.80748e+07
1.80742e+07
1.80745e+07
1.80753e+07
1.80769e+07
1.80792e+07
1.80823e+07
1.80865e+07
1.80918e+07
1.80983e+07
1.81064e+07
1.81168e+07
1.81298e+07
1.81208e+07
1.80912e+07
1.80735e+07
1.80641e+07
1.8058e+07
1.80535e+07
1.80504e+07
1.80486e+07
1.80479e+07
1.80482e+07
1.80493e+07
1.80512e+07
1.80539e+07
1.80577e+07
1.80626e+07
1.80688e+07
1.80764e+07
1.80858e+07
1.80977e+07
1.81129e+07
1.822e+07
1.82091e+07
1.82087e+07
1.82111e+07
1.82145e+07
1.82181e+07
1.82219e+07
1.82257e+07
1.82296e+07
1.82336e+07
1.82376e+07
1.82416e+07
1.82458e+07
1.825e+07
1.82542e+07
1.82585e+07
1.82629e+07
1.82673e+07
1.82718e+07
1.82763e+07
1.8281e+07
1.82856e+07
1.82903e+07
1.82951e+07
1.83e+07
1.83049e+07
1.83099e+07
1.83149e+07
1.832e+07
1.83252e+07
1.83304e+07
1.83357e+07
1.8341e+07
1.83464e+07
1.83519e+07
1.83575e+07
1.83631e+07
1.83688e+07
1.83745e+07
1.83803e+07
1.83862e+07
1.83921e+07
1.83981e+07
1.84042e+07
1.84103e+07
1.84165e+07
1.84228e+07
1.84291e+07
1.84355e+07
1.8442e+07
1.84486e+07
1.84552e+07
1.84618e+07
1.84686e+07
1.84754e+07
1.84823e+07
1.84892e+07
1.84962e+07
1.85033e+07
1.85104e+07
1.85177e+07
1.85249e+07
1.85323e+07
1.85397e+07
1.85472e+07
1.85547e+07
1.85624e+07
1.857e+07
1.85778e+07
1.85856e+07
1.85935e+07
1.86014e+07
1.86095e+07
1.86175e+07
1.86257e+07
1.86339e+07
1.86422e+07
1.86505e+07
1.86589e+07
1.86674e+07
1.86759e+07
1.86845e+07
1.86932e+07
1.87019e+07
1.87107e+07
1.87196e+07
1.87285e+07
1.87374e+07
1.87464e+07
1.87555e+07
1.87647e+07
1.87739e+07
1.87831e+07
1.87924e+07
1.88018e+07
1.88112e+07
1.88206e+07
1.88302e+07
1.88397e+07
1.88494e+07
1.8859e+07
1.88687e+07
1.88785e+07
1.88883e+07
1.88982e+07
1.89081e+07
1.8918e+07
1.8928e+07
1.89381e+07
1.89481e+07
1.89582e+07
1.89684e+07
1.89786e+07
1.89888e+07
1.89991e+07
1.90094e+07
1.90197e+07
1.90301e+07
1.90405e+07
1.90509e+07
1.90614e+07
1.90719e+07
1.90824e+07
1.9093e+07
1.91035e+07
1.91141e+07
1.91248e+07
1.91354e+07
1.91461e+07
1.91567e+07
1.91674e+07
1.91782e+07
1.91889e+07
1.91996e+07
1.92104e+07
1.92212e+07
1.92319e+07
1.92427e+07
1.92535e+07
1.92643e+07
1.92751e+07
1.9286e+07
1.92968e+07
1.93076e+07
1.93184e+07
1.93292e+07
1.934e+07
1.93508e+07
1.93616e+07
1.93724e+07
1.93832e+07
1.9394e+07
1.94048e+07
1.94156e+07
1.94263e+07
1.94371e+07
1.94478e+07
1.94585e+07
1.94692e+07
1.94799e+07
1.94906e+07
1.95013e+07
1.95119e+07
1.95225e+07
1.95331e+07
1.95437e+07
1.95542e+07
1.95647e+07
1.95752e+07
1.95856e+07
1.9596e+07
1.96064e+07
1.96167e+07
1.9627e+07
1.96373e+07
1.96475e+07
1.96577e+07
1.96679e+07
1.9678e+07
1.96881e+07
1.96981e+07
1.97081e+07
1.97181e+07
1.9728e+07
1.97379e+07
1.97478e+07
1.97576e+07
1.97673e+07
1.9777e+07
1.97867e+07
1.97963e+07
1.98059e+07
1.98155e+07
1.9825e+07
1.98344e+07
1.98438e+07
1.98532e+07
1.98624e+07
1.98714e+07
1.98804e+07
1.82188e+07
1.82088e+07
1.82085e+07
1.8211e+07
1.82145e+07
1.82181e+07
1.82219e+07
1.82257e+07
1.82296e+07
1.82336e+07
1.82376e+07
1.82416e+07
1.82458e+07
1.825e+07
1.82542e+07
1.82585e+07
1.82629e+07
1.82673e+07
1.82718e+07
1.82763e+07
1.8281e+07
1.82856e+07
1.82903e+07
1.82951e+07
1.83e+07
1.83049e+07
1.83099e+07
1.83149e+07
1.832e+07
1.83252e+07
1.83304e+07
1.83357e+07
1.8341e+07
1.83464e+07
1.83519e+07
1.83575e+07
1.83631e+07
1.83688e+07
1.83745e+07
1.83803e+07
1.83862e+07
1.83921e+07
1.83981e+07
1.84042e+07
1.84103e+07
1.84165e+07
1.84228e+07
1.84291e+07