/*--------------------------------*- C++ -*----------------------------------*\
| =========                 |                                                 |
| \\      /  F ield         | OpenFOAM: The Open Source CFD Toolbox           |
|  \\    /   O peration     | Version:  3.0.x                                 |
|   \\  /    A nd           | Web:      www.OpenFOAM.org                      |
|    \\/     M anipulation  |                                                 |
\*---------------------------------------------------------------------------*/
FoamFile
{
    version     2.0;
    format      ascii;
    class       surfaceScalarField;
    location    "0.46005";
    object      phi;
}
// * * * * * * * * * * * * * * * * * * * * * * * * * * * * * * * * * * * * * //

dimensions      [1 0 -1 0 0 0 0];

internalField   nonuniform List<scalar> 
26210
(
6.98911
0.000504285
6.98872
0.000349332
6.98834
0.000338551
6.98796
0.000341823
6.98758
0.000342135
6.98719
0.000342011
6.98681
0.000341998
6.98643
0.000342
6.98605
0.000341996
6.98567
0.00034199
6.98528
0.000341984
6.9849
0.000341979
6.98452
0.000341972
6.98414
0.000341966
6.98376
0.000341959
6.98338
0.000341952
6.983
0.000341944
6.98262
0.000341936
6.98224
0.000341909
6.98186
0.000341903
6.98148
0.000341946
6.9811
0.000341902
6.98072
0.000341892
6.98034
0.000341883
6.97996
0.000341874
6.97959
0.000341865
6.97921
0.000341856
6.97883
0.000341847
6.97846
0.000341837
6.97808
0.000341829
6.97771
0.000341824
6.97733
0.000341807
6.97696
0.0003418
6.97659
0.000341794
6.97621
0.000341783
6.97584
0.000341775
6.97547
0.000341757
6.9751
0.000341765
6.97473
0.000341748
6.97436
0.000341734
6.97399
0.000341731
6.97362
0.000341719
6.97325
0.000341711
6.97288
0.000341697
6.97251
0.000341682
6.97214
0.000341661
6.97177
0.00034166
6.9714
0.000341668
6.97103
0.00034164
6.97066
0.000341637
6.9703
0.000341616
6.96993
0.000341593
6.96956
0.000341568
6.96919
0.000341571
6.96882
0.000341506
6.96844
0.000341679
6.96807
0.00034158
6.96769
0.000341563
6.96732
0.000341564
6.96694
0.000341565
6.96657
0.000341568
6.9662
0.000341425
6.96583
0.000341486
6.96546
0.000342067
6.96511
0.00034137
6.96475
0.000341613
6.96439
0.000341641
6.96402
0.000341655
6.96366
0.000341673
6.96329
0.00034169
6.96292
0.000341707
6.96254
0.000341723
6.96217
0.000341738
6.96179
0.000341751
6.96141
0.000341746
6.96103
0.000341752
6.96065
0.000341627
6.96026
0.000342012
6.95988
0.000341809
6.9595
0.000341815
6.95911
0.000341826
6.95873
0.000341713
6.95835
0.000341701
6.95797
0.000342212
6.95759
0.000341803
6.95722
0.000341896
6.95684
0.000341927
6.95645
0.000341949
6.95606
0.000341975
6.95567
0.000342001
6.95528
0.000341887
6.95488
0.000342171
6.95449
0.000342115
6.9541
0.000342111
6.95371
0.000342148
6.95331
0.000342176
6.95291
0.000342205
6.9525
0.000342232
6.95209
0.000342256
6.95167
0.000342276
6.95124
0.000342289
6.95081
0.000342293
6.95036
0.000342285
6.94991
0.000342274
6.94944
0.000342201
6.94897
0.000342156
6.94848
0.000342117
6.94798
0.000341844
6.94746
0.000341709
6.94693
0.000341439
6.94639
0.000341096
6.94584
0.000340657
6.94527
0.0003401
6.94468
0.000339399
6.94408
0.00033798
6.94346
0.000337856
6.94283
0.000336414
6.94217
0.00033469
6.94149
0.00033289
6.94078
0.000330775
6.94004
0.000328165
6.93927
0.000325377
6.93847
0.000321995
6.93763
0.000318184
6.93676
0.000313872
6.93586
0.00030903
6.93492
0.000303637
6.93394
0.000297677
6.93292
0.000291139
6.93186
0.000284024
6.93076
0.000276337
6.92961
0.000268095
6.92842
0.000259324
6.92718
0.000250057
6.92588
0.000240338
6.92454
0.000230217
6.92313
0.000219753
6.92167
0.000209011
6.92016
0.000198062
6.91857
0.000186978
6.91693
0.000175835
6.91521
0.000164711
6.91343
0.000153681
6.91157
0.000142818
6.90964
0.000132192
6.90763
0.000121866
6.90554
0.000111901
6.90336
0.000102346
6.9011
9.32457e-05
6.89875
8.46353e-05
6.8963
7.65421e-05
6.89376
6.89852e-05
6.89111
6.19752e-05
6.88837
5.55157e-05
6.88552
4.96025e-05
6.88256
4.42257e-05
6.87949
3.93696e-05
6.87631
3.50134e-05
6.87301
3.11333e-05
6.86958
2.77014e-05
6.86604
2.46884e-05
6.86237
2.20631e-05
6.85858
1.97939e-05
6.85465
1.78496e-05
6.8506
1.61987e-05
6.84641
1.48113e-05
6.84208
1.36587e-05
6.83762
1.27138e-05
6.83301
1.19512e-05
6.82826
1.13486e-05
6.82337
1.08836e-05
6.81833
1.05386e-05
6.81313
1.02953e-05
6.80779
1.01396e-05
6.8023
1.00572e-05
6.79664
1.00376e-05
6.79084
1.00692e-05
6.78487
1.01448e-05
6.77873
1.02555e-05
6.77244
1.03969e-05
6.76598
1.05622e-05
6.75935
1.07488e-05
6.75255
1.09512e-05
6.74558
1.11678e-05
6.73844
1.13944e-05
6.73112
1.16345e-05
6.72362
1.18729e-05
6.71595
1.21405e-05
6.70809
1.24124e-05
6.70005
1.2787e-05
6.69182
1.36801e-05
6.6834
1.67022e-05
6.67478
3.07736e-05
6.6659
9.69477e-05
6.65651
0.00041509
6.6454
0.00193823
6.62684
0.00918696
6.57381
0.0434742
6.3384
0.225645
0.872473
5.45597
9.88515
0.000460257
9.88511
0.000334424
9.88508
0.000311937
9.88504
0.000318683
9.885
0.000319468
9.88497
0.000319215
9.88493
0.000319214
9.88489
0.000319252
9.88486
0.000319273
9.88482
0.000319291
9.88479
0.000319309
9.88475
0.000319328
9.88472
0.000319346
9.88468
0.000319364
9.88465
0.000319381
9.88461
0.000319398
9.88458
0.000319414
9.88454
0.00031943
9.88451
0.000319437
9.88448
0.000319436
9.88444
0.00031951
9.88441
0.000319492
9.88438
0.000319505
9.88435
0.00031952
9.88432
0.000319535
9.88429
0.000319549
9.88426
0.000319564
9.88423
0.000319579
9.8842
0.000319594
9.88418
0.000319609
9.88415
0.000319634
9.88412
0.000319627
9.8841
0.000319654
9.88407
0.000319665
9.88405
0.000319688
9.88403
0.000319699
9.88401
0.000319717
9.88398
0.000319721
9.88396
0.000319745
9.88394
0.000319752
9.88392
0.000319774
9.8839
0.000319788
9.88388
0.000319805
9.88386
0.00031981
9.88384
0.000319825
9.88382
0.000319823
9.88381
0.000319829
9.88379
0.000319892
9.88377
0.000319875
9.88375
0.000319899
9.88373
0.000319892
9.88371
0.000319903
9.88369
0.000319903
9.88367
0.000319928
9.88365
0.000319896
9.88362
0.000320053
9.88359
0.000320018
9.88356
0.000320012
9.88354
0.000320038
9.88351
0.000320062
9.88349
0.000320086
9.88346
0.000319983
9.88344
0.000320067
9.88343
0.000320603
9.88342
0.000320014
9.88342
0.000320238
9.88341
0.000320301
9.8834
0.000320334
9.88338
0.000320374
9.88336
0.000320414
9.88334
0.000320453
9.88332
0.000320491
9.88329
0.000320528
9.88326
0.000320564
9.88323
0.000320586
9.88319
0.000320614
9.88315
0.000320515
9.88311
0.000320897
9.88306
0.000320739
9.88302
0.000320764
9.88298
0.000320797
9.88295
0.000320721
9.88291
0.000320738
9.88287
0.000321219
9.88284
0.000320877
9.88281
0.000320976
9.88277
0.000321039
9.88273
0.00032108
9.88269
0.000321128
9.88264
0.000321175
9.88258
0.000321099
9.88253
0.000321383
9.88248
0.000321353
9.88242
0.00032137
9.88237
0.000321434
9.88231
0.000321481
9.88224
0.000321532
9.88217
0.00032158
9.88209
0.000321624
9.882
0.000321664
9.8819
0.000321697
9.88179
0.000321721
9.88166
0.000321733
9.88152
0.00032174
9.88137
0.000321682
9.8812
0.000321655
9.88101
0.000321635
9.8808
0.000321371
9.88057
0.000321254
9.88033
0.000320992
9.88006
0.00032066
9.87978
0.000320228
9.87947
0.000319678
9.87914
0.000318975
9.87878
0.000317628
9.8784
0.000317416
9.878
0.000315967
9.87756
0.000314262
9.87709
0.000312476
9.87657
0.00031036
9.876
0.000307746
9.87539
0.000304977
9.87473
0.000301607
9.87402
0.000297825
9.87326
0.000293553
9.87244
0.000288768
9.87155
0.00028345
9.87061
0.000277589
9.8696
0.000271176
9.86852
0.000264216
9.86737
0.000256718
9.86614
0.000248703
9.86484
0.000240197
9.86345
0.000231237
9.86197
0.000221869
9.86041
0.000212145
9.85875
0.000202123
9.857
0.000191868
9.85515
0.000181448
9.85319
0.000170936
9.85112
0.000160404
9.84895
0.000149924
9.84665
0.000139568
9.84424
0.000129405
9.84171
0.000119497
9.83905
0.000109903
9.83626
0.000100677
9.83334
9.18617e-05
9.83028
8.3496e-05
9.82708
7.5609e-05
9.82373
6.82227e-05
9.82024
6.13509e-05
9.81659
5.49998e-05
9.8128
4.91692e-05
9.80884
4.38518e-05
9.80472
3.90351e-05
9.80044
3.47018e-05
9.79599
3.08296e-05
9.79137
2.73949e-05
9.78657
2.43692e-05
9.7816
2.17243e-05
9.77644
1.94305e-05
9.77111
1.74566e-05
9.76558
1.57746e-05
9.75987
1.43538e-05
9.75396
1.31674e-05
9.74786
1.21885e-05
9.74157
1.13928e-05
9.73507
1.07564e-05
9.72837
1.02608e-05
9.72146
9.88375e-06
9.71435
9.61193e-06
9.70702
9.42683e-06
9.69948
9.3181e-06
9.69172
9.27142e-06
9.68374
9.27939e-06
9.67554
9.3298e-06
9.66711
9.41882e-06
9.65845
9.53637e-06
9.64956
9.68129e-06
9.64044
9.84486e-06
9.63108
1.00277e-05
9.62148
1.02233e-05
9.61164
1.04301e-05
9.60155
1.06468e-05
9.59122
1.08754e-05
9.58063
1.10993e-05
9.56979
1.1363e-05
9.5587
1.16622e-05
9.54735
1.21542e-05
9.53572
1.39551e-05
9.52384
2.08298e-05
9.51166
5.44767e-05
9.49913
0.00021402
9.48586
0.0009828
9.47017
0.00466534
9.44388
0.022214
9.36859
0.105246
9.0427
0.537728
2.01447
7.8866
13.9797
0.000401875
13.9797
0.000309371
13.9796
0.00027606
13.9796
0.00028573
13.9795
0.000287132
13.9795
0.000286716
13.9794
0.000286703
13.9794
0.000286755
13.9793
0.000286778
13.9793
0.000286796
13.9792
0.000286814
13.9792
0.000286833
13.9791
0.00028685
13.9791
0.000286867
13.979
0.000286883
13.979
0.000286899
13.9789
0.000286914
13.9789
0.000286929
13.9788
0.000286946
13.9788
0.000286921
13.9787
0.000287001
13.9787
0.000286985
13.9786
0.000286997
13.9786
0.00028701
13.9785
0.000287023
13.9785
0.000287037
13.9785
0.00028705
13.9784
0.000287063
13.9784
0.000287077
13.9784
0.000287091
13.9783
0.000287121
13.9783
0.000287097
13.9782
0.000287131
13.9782
0.000287138
13.9782
0.000287164
13.9781
0.000287172
13.9781
0.000287203
13.9781
0.000287172
13.9781
0.000287216
13.978
0.000287217
13.978
0.000287239
13.978
0.000287254
13.978
0.000287271
13.9779
0.00028727
13.9779
0.000287289
13.9779
0.000287282
13.9779
0.000287265
13.9778
0.000287362
13.9778
0.000287332
13.9778
0.000287356
13.9778
0.000287337
13.9777
0.000287359
13.9777
0.000287358
13.9777
0.000287378
13.9776
0.000287356
13.9776
0.000287465
13.9776
0.000287474
13.9775
0.000287452
13.9775
0.000287477
13.9775
0.000287498
13.9774
0.000287519
13.9774
0.000287433
13.9774
0.000287512
13.9773
0.00028796
13.9773
0.000287476
13.9773
0.000287645
13.9773
0.000287717
13.9773
0.000287742
13.9773
0.000287779
13.9773
0.000287815
13.9772
0.00028785
13.9772
0.000287884
13.9772
0.000287918
13.9771
0.00028795
13.9771
0.000287974
13.977
0.000287998
13.977
0.000287903
13.9769
0.000288244
13.9769
0.000288111
13.9768
0.00028813
13.9768
0.000288159
13.9767
0.000288096
13.9767
0.000288116
13.9766
0.000288527
13.9766
0.000288239
13.9765
0.000288313
13.9765
0.000288381
13.9764
0.000288414
13.9764
0.000288457
13.9763
0.000288498
13.9762
0.000288437
13.9762
0.000288688
13.9761
0.000288659
13.976
0.00028867
13.9759
0.000288736
13.9759
0.000288776
13.9758
0.000288821
13.9757
0.000288864
13.9756
0.000288905
13.9754
0.000288941
13.9753
0.00028897
13.9751
0.000288992
13.975
0.000289003
13.9748
0.000289012
13.9746
0.000288956
13.9743
0.000288935
13.9741
0.000288924
13.9738
0.000288674
13.9735
0.000288579
13.9731
0.000288341
13.9727
0.000288047
13.9723
0.000287661
13.9719
0.000287168
13.9714
0.000286533
13.9709
0.000285362
13.9704
0.000285152
13.9698
0.000283826
13.9692
0.00028231
13.9686
0.000280729
13.9678
0.000278834
13.967
0.000276475
13.9662
0.000274012
13.9652
0.000270987
13.9642
0.0002676
13.9632
0.000263772
13.962
0.000259484
13.9607
0.000254718
13.9594
0.000249464
13.958
0.000243715
13.9565
0.000237475
13.9548
0.000230751
13.9531
0.000223562
13.9512
0.000215933
13.9493
0.000207895
13.9472
0.00019949
13.945
0.000190764
13.9426
0.00018177
13.9401
0.000172564
13.9375
0.00016321
13.9347
0.000153772
13.9318
0.000144313
13.9287
0.000134901
13.9255
0.000125598
13.9221
0.000116466
13.9185
0.000107563
13.9147
9.89403e-05
13.9107
9.06463e-05
13.9066
8.27205e-05
13.9023
7.51976e-05
13.8977
6.81037e-05
13.893
6.14589e-05
13.8881
5.52757e-05
13.8829
4.95598e-05
13.8775
4.43115e-05
13.8719
3.95239e-05
13.8661
3.51861e-05
13.86
3.12831e-05
13.8538
2.77941e-05
13.8472
2.4699e-05
13.8404
2.19715e-05
13.8334
1.95866e-05
13.8261
1.75181e-05
13.8185
1.57368e-05
13.8107
1.42193e-05
13.8027
1.29362e-05
13.7943
1.18648e-05
13.7857
1.09802e-05
13.7768
1.0261e-05
13.7676
9.68473e-06
13.7581
9.23673e-06
13.7483
8.89405e-06
13.7383
8.648e-06
13.7279
8.47868e-06
13.7172
8.37965e-06
13.7063
8.33534e-06
13.695
8.34202e-06
13.6834
8.38513e-06
13.6715
8.46505e-06
13.6592
8.56881e-06
13.6467
8.69946e-06
13.6338
8.8448e-06
13.6205
9.00931e-06
13.6069
9.18479e-06
13.593
9.36905e-06
13.5788
9.56506e-06
13.5641
9.77087e-06
13.5492
9.97121e-06
13.5338
1.02215e-05
13.5181
1.05612e-05
13.5021
1.11981e-05
13.4857
1.42508e-05
13.4689
2.6362e-05
13.4516
8.67472e-05
13.4339
0.000373726
13.4152
0.0017578
13.3931
0.00839009
13.3566
0.0400235
13.2532
0.18952
12.8139
0.957433
3.51197
11.2965
61.7094
0.000185233
61.7092
0.000163842
61.7089
0.000135404
61.7087
0.000141722
61.7085
0.000144015
61.7083
0.000143533
61.708
0.000143408
61.7078
0.000143438
61.7076
0.000143441
61.7074
0.000143438
61.7071
0.00014344
61.7069
0.000143444
61.7067
0.000143449
61.7065
0.000143454
61.7063
0.00014346
61.7061
0.000143466
61.7058
0.000143472
61.7056
0.000143478
61.7054
0.000143498
61.7052
0.00014346
61.705
0.000143506
61.7048
0.000143501
61.7046
0.000143504
61.7044
0.00014351
61.7043
0.000143516
61.7041
0.000143522
61.7039
0.000143528
61.7037
0.000143534
61.7035
0.000143541
61.7034
0.000143548
61.7032
0.000143572
61.7031
0.00014354
61.7029
0.000143566
61.7028
0.000143571
61.7026
0.000143583
61.7025
0.000143588
61.7024
0.000143619
61.7022
0.000143552
61.7021
0.000143625
61.702
0.000143609
61.7019
0.000143608
61.7017
0.000143641
61.7016
0.000143641
61.7015
0.000143634
61.7014
0.000143642
61.7013
0.000143662
61.7012
0.000143595
61.7011
0.000143695
61.701
0.000143668
61.7009
0.000143685
61.7007
0.000143654
61.7006
0.000143685
61.7005
0.000143683
61.7004
0.00014369
61.7003
0.000143685
61.7001
0.000143699
61.6999
0.000143754
61.6998
0.000143725
61.6996
0.000143738
61.6995
0.000143748
61.6993
0.000143756
61.6992
0.000143723
61.6991
0.000143765
61.699
0.000143949
61.699
0.000143762
61.6989
0.000143808
61.6989
0.000143861
61.6988
0.00014387
61.6987
0.000143888
61.6986
0.000143907
61.6985
0.000143924
61.6984
0.000143942
61.6982
0.000143959
61.698
0.000143975
61.6978
0.000143992
61.6976
0.000144002
61.6974
0.000143946
61.6971
0.000144112
61.6969
0.000144059
61.6966
0.000144063
61.6964
0.000144077
61.6962
0.000144053
61.6959
0.000144068
61.6957
0.000144246
61.6956
0.000144127
61.6954
0.000144146
61.6952
0.000144192
61.6949
0.000144206
61.6947
0.000144227
61.6944
0.000144246
61.694
0.000144224
61.6937
0.000144344
61.6934
0.000144327
61.6931
0.000144328
61.6928
0.000144369
61.6924
0.000144387
61.692
0.00014441
61.6916
0.000144432
61.6911
0.000144452
61.6906
0.00014447
61.6899
0.000144485
61.6893
0.000144496
61.6885
0.000144503
61.6876
0.000144509
61.6867
0.000144476
61.6856
0.00014447
61.6845
0.000144474
61.6832
0.000144333
61.6818
0.000144298
61.6802
0.000144177
61.6786
0.000144034
61.6769
0.000143844
61.675
0.000143599
61.6729
0.000143278
61.6707
0.000142733
61.6683
0.000142632
61.6658
0.000141918
61.6631
0.000141184
61.6602
0.000140424
61.6569
0.000139485
61.6534
0.000138297
61.6496
0.000137095
61.6455
0.000135588
61.6411
0.000133909
61.6363
0.000132009
61.6312
0.00012988
61.6257
0.000127513
61.6198
0.000124901
61.6135
0.000122043
61.6067
0.000118939
61.5995
0.000115593
61.5919
0.000112014
61.5837
0.000108214
61.575
0.000104209
61.5658
0.000100019
61.556
9.56671e-05
61.5457
9.11791e-05
61.5347
8.65841e-05
61.5231
8.19125e-05
61.5109
7.71965e-05
61.4979
7.24685e-05
61.4843
6.77613e-05
61.47
6.31069e-05
61.4549
5.85359e-05
61.4391
5.40773e-05
61.4224
4.97574e-05
61.405
4.55998e-05
61.3867
4.16257e-05
61.3676
3.78504e-05
61.3476
3.4291e-05
61.3267
3.09525e-05
61.3049
2.78475e-05
61.2821
2.49729e-05
61.2584
2.23347e-05
61.2337
1.99248e-05
61.208
1.77419e-05
61.1812
1.57755e-05
61.1534
1.40181e-05
61.1245
1.24566e-05
61.0946
1.1082e-05
61.0635
9.87692e-06
61.0313
8.83357e-06
60.998
7.93217e-06
60.9635
7.16593e-06
60.9279
6.5155e-06
60.891
5.97402e-06
60.8529
5.52414e-06
60.8136
5.16127e-06
60.773
4.86537e-06
60.7312
4.64148e-06
60.6881
4.46196e-06
60.6437
4.34062e-06
60.5979
4.24916e-06
60.5508
4.20165e-06
60.5024
4.17323e-06
60.4526
4.18025e-06
60.4014
4.19456e-06
60.3488
4.24021e-06
60.2947
4.28455e-06
60.2392
4.35554e-06
60.1823
4.4216e-06
60.1239
4.50792e-06
60.0639
4.5945e-06
60.0025
4.68514e-06
59.9395
4.77834e-06
59.875
4.90537e-06
59.8089
4.96937e-06
59.7413
5.19577e-06
59.672
5.65422e-06
59.6011
6.83962e-06
59.5286
1.48412e-05
59.4544
4.72775e-05
59.3784
0.000212281
59.3003
0.00099731
59.2179
0.00478841
59.1224
0.0229604
58.9703
0.109408
58.5637
0.511699
57.0879
2.34703
8.38581
52.1261
61.7093
-1.36424e-12
61.7091
-6.82121e-13
61.7089
-2.27374e-13
61.7087
6.82121e-13
61.7084
9.09495e-13
61.7082
0
61.708
-2.27374e-13
61.7078
1.81899e-12
61.7075
6.82121e-13
61.7073
-2.27374e-13
61.7071
4.54747e-13
61.7069
-1.13687e-12
61.7067
-9.09495e-13
61.7065
-1.13687e-12
61.7062
2.04636e-12
61.706
-1.13687e-12
61.7058
2.27374e-13
61.7056
4.54747e-13
61.7054
4.54747e-13
61.7052
9.09495e-13
61.705
-2.27374e-13
61.7048
9.09495e-13
61.7046
-4.54747e-13
61.7044
6.82121e-13
61.7042
0
61.704
4.54747e-13
61.7039
2.27374e-13
61.7037
-2.50111e-12
61.7035
-1.81899e-12
61.7034
-2.72848e-12
61.7032
2.27374e-13
61.703
-1.13687e-12
61.7029
-6.82121e-13
61.7027
-2.27374e-12
61.7026
-4.54747e-13
61.7025
-4.54747e-13
61.7023
-6.82121e-13
61.7022
-1.36424e-12
61.7021
-1.59162e-12
61.702
2.27374e-13
61.7018
-4.54747e-13
61.7017
-2.27374e-13
61.7016
0
61.7015
2.50111e-12
61.7014
1.59162e-12
61.7013
-2.27374e-13
61.7012
-9.09495e-13
61.701
-2.27374e-12
61.7009
0
61.7008
9.09495e-13
61.7007
9.09495e-13
61.7006
-1.13687e-12
61.7005
2.27374e-13
61.7004
-1.36424e-12
61.7003
-1.59162e-12
61.7001
-1.81899e-12
61.6999
9.09495e-13
61.6997
0
61.6996
-4.54747e-13
61.6994
2.27374e-13
61.6993
-4.54747e-13
61.6992
9.09495e-13
61.699
4.54747e-13
61.6989
-2.27374e-13
61.6989
2.27374e-12
61.6989
-6.82121e-13
61.6989
0
61.6988
4.54747e-13
61.6987
-4.54747e-13
61.6986
9.09495e-13
61.6985
6.82121e-13
61.6983
-6.82121e-13
61.6982
-1.59162e-12
61.698
-2.50111e-12
61.6978
-1.13687e-12
61.6976
0
61.6974
1.81899e-12
61.6971
9.09495e-13
61.6969
6.82121e-13
61.6966
2.27374e-13
61.6964
-9.09495e-13
61.6962
0
61.6959
0
61.6957
0
61.6955
0
61.6954
-4.54747e-13
61.6952
-1.59162e-12
61.6949
6.82121e-13
61.6946
4.54747e-13
61.6943
-1.36424e-12
61.694
-1.59162e-12
61.6937
-1.36424e-12
61.6934
-9.09495e-13
61.6931
-9.09495e-13
61.6927
4.54747e-13
61.6924
1.13687e-12
61.692
6.82121e-13
61.6916
2.27374e-13
61.6911
-2.04636e-12
61.6905
-4.54747e-13
61.6899
-1.13687e-12
61.6892
-4.54747e-13
61.6885
6.82121e-13
61.6876
-9.09495e-13
61.6867
4.54747e-13
61.6856
4.54747e-13
61.6845
8.86757e-12
61.6832
-9.32232e-12
61.6817
-4.3201e-12
61.6802
4.54747e-13
61.6786
-2.04636e-12
61.6768
5.68434e-12
61.6749
-2.27374e-11
61.6729
2.50111e-11
61.6707
-2.09184e-11
61.6683
-1.30512e-10
61.6658
1.28239e-10
61.6631
1.45519e-11
61.6601
-1.38698e-11
61.6569
-4.79758e-11
61.6534
1.88948e-10
61.6496
-4.54747e-12
61.6455
-1.38925e-10
61.6411
-9.93623e-11
61.6363
4.52474e-11
61.6312
-1.02318e-11
61.6257
-9.54969e-12
61.6198
9.32232e-12
61.6135
1.59162e-12
61.6067
-6.59384e-12
61.5995
6.82121e-13
61.5919
1.22782e-11
61.5837
-1.63709e-11
61.575
9.09495e-12
61.5658
1.56888e-11
61.556
-3.16049e-11
61.5457
3.5925e-11
61.5347
-2.02363e-11
61.5231
9.77707e-12
61.5109
-3.36513e-11
61.4979
7.61702e-11
61.4843
-1.2551e-10
61.47
1.55751e-10
61.4549
-1.83718e-10
61.4391
2.21462e-10
61.4224
-2.54659e-10
61.405
2.61025e-10
61.3867
-1.94859e-10
61.3676
1.01409e-10
61.3476
-3.91083e-11
61.3267
7.04858e-12
61.3049
9.54969e-12
61.2821
-4.61569e-11
61.2584
5.02496e-11
61.2337
8.89031e-11
61.2079
-2.74895e-10
61.1812
3.62434e-10
61.1534
-3.42425e-10
61.1245
2.72621e-10
61.0946
-1.57797e-10
61.0635
-9.07221e-11
61.0313
2.90811e-10
60.998
-2.55113e-10
60.9635
1.20963e-10
60.9279
-6.84395e-11
60.891
1.84173e-10
60.8529
-4.62251e-10
60.8136
9.37916e-10
60.773
-1.39903e-09
60.7312
1.32582e-09
60.6881
-9.04038e-10
60.6437
8.47422e-10
60.5979
-1.07593e-09
60.5508
1.36288e-09
60.5024
-1.73645e-09
60.4526
2.23349e-09
60.4014
-2.51453e-09
60.3488
2.40607e-09
60.2947
-2.85968e-09
60.2392
2.62912e-09
60.1823
2.84444e-10
60.1239
-4.53088e-09
60.0639
1.22873e-08
60.0025
-2.04632e-08
59.9395
2.93373e-08
59.875
-3.94207e-08
59.8089
9.90497e-08
59.7413
-8.34189e-08
59.672
9.13782e-07
59.6011
1.37346e-06
59.5286
1.23832e-05
59.4544
5.09947e-05
59.3785
0.000257598
59.3008
0.00123207
59.2203
0.00596244
59.1336
0.0287443
59.0219
0.138314
58.7915
0.657666
57.9785
3.0738
11.1362
55.14
61.7093
-0.000185233
61.7091
-0.000163842
61.7089
-0.000135404
61.7087
-0.000141722
61.7084
-0.000144015
61.7082
-0.000143533
61.708
-0.000143408
61.7078
-0.000143438
61.7075
-0.000143441
61.7073
-0.000143438
61.7071
-0.00014344
61.7069
-0.000143444
61.7067
-0.000143449
61.7065
-0.000143454
61.7062
-0.00014346
61.706
-0.000143466
61.7058
-0.000143472
61.7056
-0.000143478
61.7054
-0.000143498
61.7052
-0.00014346
61.705
-0.000143506
61.7048
-0.000143501
61.7046
-0.000143504
61.7044
-0.00014351
61.7042
-0.000143516
61.704
-0.000143522
61.7039
-0.000143528
61.7037
-0.000143534
61.7035
-0.000143541
61.7034
-0.000143548
61.7032
-0.000143572
61.703
-0.00014354
61.7029
-0.000143566
61.7027
-0.000143571
61.7026
-0.000143583
61.7025
-0.000143588
61.7023
-0.000143619
61.7022
-0.000143552
61.7021
-0.000143625
61.702
-0.000143609
61.7018
-0.000143608
61.7017
-0.000143641
61.7016
-0.000143641
61.7015
-0.000143634
61.7014
-0.000143642
61.7013
-0.000143662
61.7012
-0.000143595
61.701
-0.000143695
61.7009
-0.000143668
61.7008
-0.000143685
61.7007
-0.000143654
61.7006
-0.000143685
61.7005
-0.000143683
61.7004
-0.00014369
61.7003
-0.000143685
61.7001
-0.000143699
61.6999
-0.000143754
61.6997
-0.000143725
61.6996
-0.000143738
61.6994
-0.000143748
61.6993
-0.000143756
61.6992
-0.000143723
61.699
-0.000143765
61.6989
-0.000143949
61.6989
-0.000143762
61.6989
-0.000143808
61.6989
-0.000143861
61.6988
-0.00014387
61.6987
-0.000143888
61.6986
-0.000143907
61.6985
-0.000143924
61.6983
-0.000143942
61.6982
-0.000143959
61.698
-0.000143975
61.6978
-0.000143992
61.6976
-0.000144002
61.6974
-0.000143946
61.6971
-0.000144112
61.6969
-0.000144059
61.6966
-0.000144063
61.6964
-0.000144077
61.6962
-0.000144053
61.6959
-0.000144068
61.6957
-0.000144246
61.6955
-0.000144127
61.6954
-0.000144146
61.6952
-0.000144192
61.6949
-0.000144206
61.6946
-0.000144227
61.6943
-0.000144246
61.694
-0.000144224
61.6937
-0.000144344
61.6934
-0.000144327
61.6931
-0.000144328
61.6927
-0.000144369
61.6924
-0.000144387
61.692
-0.00014441
61.6916
-0.000144432
61.6911
-0.000144452
61.6905
-0.00014447
61.6899
-0.000144485
61.6892
-0.000144496
61.6885
-0.000144503
61.6876
-0.000144509
61.6867
-0.000144476
61.6856
-0.00014447
61.6845
-0.000144474
61.6832
-0.000144333
61.6817
-0.000144298
61.6802
-0.000144177
61.6786
-0.000144034
61.6768
-0.000143844
61.6749
-0.000143599
61.6729
-0.000143278
61.6707
-0.000142733
61.6683
-0.000142632
61.6658
-0.000141918
61.6631
-0.000141184
61.6601
-0.000140424
61.6569
-0.000139485
61.6534
-0.000138297
61.6496
-0.000137095
61.6455
-0.000135588
61.6411
-0.000133909
61.6363
-0.000132009
61.6312
-0.00012988
61.6257
-0.000127513
61.6198
-0.000124901
61.6135
-0.000122043
61.6067
-0.000118939
61.5995
-0.000115593
61.5919
-0.000112014
61.5837
-0.000108214
61.575
-0.000104209
61.5658
-0.000100019
61.556
-9.5667e-05
61.5457
-9.11791e-05
61.5347
-8.6584e-05
61.5231
-8.19125e-05
61.5109
-7.71965e-05
61.4979
-7.24684e-05
61.4843
-6.77615e-05
61.47
-6.31067e-05
61.4549
-5.85362e-05
61.4391
-5.40769e-05
61.4224
-4.97579e-05
61.405
-4.55992e-05
61.3867
-4.16262e-05
61.3676
-3.78501e-05
61.3476
-3.4291e-05
61.3267
-3.09526e-05
61.3049
-2.78472e-05
61.2821
-2.49734e-05
61.2584
-2.2334e-05
61.2337
-1.99254e-05
61.2079
-1.77415e-05
61.1812
-1.57756e-05
61.1534
-1.40181e-05
61.1245
-1.24567e-05
61.0946
-1.10818e-05
61.0635
-9.87749e-06
61.0313
-8.83254e-06
60.998
-7.93343e-06
60.9635
-7.16475e-06
60.9279
-6.51639e-06
60.891
-5.97341e-06
60.8529
-5.52483e-06
60.8136
-5.15977e-06
60.773
-4.86824e-06
60.7312
-4.63771e-06
60.6881
-4.46573e-06
60.6437
-4.33709e-06
60.5979
-4.25257e-06
60.5508
-4.19821e-06
60.5024
-4.17726e-06
60.4526
-4.17569e-06
60.4014
-4.19921e-06
60.3488
-4.23522e-06
60.2947
-4.29101e-06
60.2392
-4.34704e-06
60.1823
-4.42982e-06
60.1239
-4.50393e-06
60.0639
-4.58726e-06
60.0025
-4.70557e-06
59.9395
-4.74842e-06
59.875
-4.92159e-06
59.8089
-4.93667e-06
59.7413
-5.04116e-06
59.672
-4.70011e-06
59.6011
-3.91191e-06
59.5286
4.49809e-06
59.4545
3.49526e-05
59.3786
0.000203851
59.3014
0.000987302
59.2233
0.00483401
59.1474
0.023504
59.0878
0.115354
59.0905
0.570313
59.1349
2.94318
10.1955
59.9878
61.7094
-0.000401875
61.7092
-0.000309371
61.7089
-0.00027606
61.7087
-0.00028573
61.7085
-0.000287132
61.7083
-0.000286716
61.708
-0.000286703
61.7078
-0.000286755
61.7076
-0.000286778
61.7074
-0.000286796
61.7071
-0.000286814
61.7069
-0.000286833
61.7067
-0.00028685
61.7065
-0.000286867
61.7063
-0.000286883
61.7061
-0.000286899
61.7058
-0.000286914
61.7056
-0.000286929
61.7054
-0.000286946
61.7052
-0.000286921
61.705
-0.000287001
61.7048
-0.000286985
61.7046
-0.000286997
61.7044
-0.00028701
61.7043
-0.000287023
61.7041
-0.000287037
61.7039
-0.00028705
61.7037
-0.000287063
61.7035
-0.000287077
61.7034
-0.000287091
61.7032
-0.000287121
61.7031
-0.000287097
61.7029
-0.000287131
61.7028
-0.000287138
61.7026
-0.000287164
61.7025
-0.000287172
61.7024
-0.000287203
61.7022
-0.000287172
61.7021
-0.000287216
61.702
-0.000287217
61.7019
-0.000287239
61.7017
-0.000287254
61.7016
-0.000287271
61.7015
-0.00028727
61.7014
-0.000287289
61.7013
-0.000287282
61.7012
-0.000287265
61.7011
-0.000287362
61.701
-0.000287332
61.7009
-0.000287356
61.7007
-0.000287337
61.7006
-0.000287359
61.7005
-0.000287358
61.7004
-0.000287378
61.7003
-0.000287356
61.7001
-0.000287465
61.6999
-0.000287474
61.6998
-0.000287452
61.6996
-0.000287477
61.6995
-0.000287498
61.6993
-0.000287519
61.6992
-0.000287433
61.6991
-0.000287512
61.699
-0.00028796
61.699
-0.000287476
61.6989
-0.000287645
61.6989
-0.000287717
61.6988
-0.000287742
61.6987
-0.000287779
61.6986
-0.000287815
61.6985
-0.00028785
61.6984
-0.000287884
61.6982
-0.000287918
61.698
-0.000287951
61.6978
-0.000287974
61.6976
-0.000287998
61.6974
-0.000287903
61.6971
-0.000288244
61.6969
-0.000288111
61.6966
-0.00028813
61.6964
-0.000288159
61.6962
-0.000288096
61.6959
-0.000288116
61.6957
-0.000288527
61.6956
-0.000288239
61.6954
-0.000288313
61.6952
-0.000288381
61.6949
-0.000288414
61.6947
-0.000288458
61.6944
-0.000288498
61.694
-0.000288437
61.6937
-0.000288688
61.6934
-0.000288659
61.6931
-0.00028867
61.6928
-0.000288736
61.6924
-0.000288776
61.692
-0.000288821
61.6916
-0.000288864
61.6911
-0.000288905
61.6906
-0.000288941
61.6899
-0.00028897
61.6893
-0.000288992
61.6885
-0.000289003
61.6876
-0.000289012
61.6867
-0.000288956
61.6856
-0.000288935
61.6845
-0.000288924
61.6832
-0.000288674
61.6818
-0.000288579
61.6802
-0.000288341
61.6786
-0.000288047
61.6769
-0.000287661
61.675
-0.000287168
61.6729
-0.000286533
61.6707
-0.000285362
61.6683
-0.000285152
61.6658
-0.000283826
61.6631
-0.00028231
61.6602
-0.000280729
61.6569
-0.000278834
61.6534
-0.000276475
61.6496
-0.000274012
61.6455
-0.000270987
61.6411
-0.0002676
61.6363
-0.000263772
61.6312
-0.000259484
61.6257
-0.000254718
61.6198
-0.000249464
61.6135
-0.000243715
61.6067
-0.000237475
61.5995
-0.000230751
61.5919
-0.000223562
61.5837
-0.000215933
61.575
-0.000207895
61.5658
-0.00019949
61.556
-0.000190764
61.5457
-0.00018177
61.5347
-0.000172564
61.5231
-0.00016321
61.5109
-0.000153772
61.4979
-0.000144313
61.4843
-0.000134901
61.47
-0.000125598
61.4549
-0.000116466
61.4391
-0.000107563
61.4224
-9.89406e-05
61.405
-9.06459e-05
61.3867
-8.27209e-05
61.3676
-7.51972e-05
61.3476
-6.8104e-05
61.3267
-6.14586e-05
61.3049
-5.52759e-05
61.2821
-4.95597e-05
61.2584
-4.43117e-05
61.2337
-3.95237e-05
61.208
-3.51865e-05
61.1812
-3.12826e-05
61.1534
-2.77946e-05
61.1245
-2.46985e-05
61.0946
-2.19719e-05
61.0635
-1.95866e-05
61.0313
-1.75179e-05
60.998
-1.57373e-05
60.9635
-1.42188e-05
60.9279
-1.29367e-05
60.891
-1.18645e-05
60.8529
-1.09805e-05
60.8136
-1.02606e-05
60.773
-9.68547e-06
60.7312
-9.23573e-06
60.6881
-8.89516e-06
60.6437
-8.64692e-06
60.5979
-8.47946e-06
60.5508
-8.37938e-06
60.5024
-8.33569e-06
60.4526
-8.34174e-06
60.4014
-8.38514e-06
60.3488
-8.46468e-06
60.2947
-8.56956e-06
60.2392
-8.69778e-06
60.1823
-8.84733e-06
60.1239
-9.00864e-06
60.0639
-9.18012e-06
60.0025
-9.38287e-06
59.9395
-9.53789e-06
59.875
-9.80937e-06
59.8089
-9.9021e-06
59.7413
-1.02484e-05
59.672
-1.01203e-05
59.6011
-1.02028e-05
59.5286
-7.19876e-06
59.4544
3.83392e-06
59.3788
6.50783e-05
59.3018
0.000351914
59.2257
0.00175913
59.1596
0.00859718
59.1491
0.0431773
59.4085
0.226231
60.6737
1.59192
5.24351
65.538
13.9797
-0.000460257
13.9797
-0.000334424
13.9796
-0.000311937
13.9796
-0.000318683
13.9795
-0.000319468
13.9795
-0.000319215
13.9794
-0.000319214
13.9794
-0.000319252
13.9793
-0.000319273
13.9793
-0.000319291
13.9792
-0.000319309
13.9792
-0.000319328
13.9791
-0.000319346
13.9791
-0.000319364
13.979
-0.000319381
13.979
-0.000319398
13.9789
-0.000319414
13.9789
-0.00031943
13.9788
-0.000319437
13.9788
-0.000319436
13.9787
-0.00031951
13.9787
-0.000319492
13.9786
-0.000319505
13.9786
-0.00031952
13.9785
-0.000319535
13.9785
-0.000319549
13.9785
-0.000319564
13.9784
-0.000319579
13.9784
-0.000319594
13.9784
-0.000319609
13.9783
-0.000319634
13.9783
-0.000319627
13.9782
-0.000319654
13.9782
-0.000319665
13.9782
-0.000319688
13.9781
-0.000319699
13.9781
-0.000319717
13.9781
-0.000319721
13.9781
-0.000319745
13.978
-0.000319752
13.978
-0.000319774
13.978
-0.000319788
13.978
-0.000319805
13.9779
-0.00031981
13.9779
-0.000319825
13.9779
-0.000319823
13.9779
-0.000319829
13.9778
-0.000319892
13.9778
-0.000319875
13.9778
-0.000319899
13.9778
-0.000319892
13.9777
-0.000319903
13.9777
-0.000319903
13.9777
-0.000319928
13.9776