/*--------------------------------*- C++ -*----------------------------------*\
| =========                 |                                                 |
| \\      /  F ield         | OpenFOAM: The Open Source CFD Toolbox           |
|  \\    /   O peration     | Version:  3.0.x                                 |
|   \\  /    A nd           | Web:      www.OpenFOAM.org                      |
|    \\/     M anipulation  |                                                 |
\*---------------------------------------------------------------------------*/
FoamFile
{
    version     2.0;
    format      ascii;
    class       volScalarField;
    location    "0.46005";
    object      T;
}
// * * * * * * * * * * * * * * * * * * * * * * * * * * * * * * * * * * * * * //

dimensions      [0 0 0 1 0 0 0];

internalField   nonuniform List<scalar> 
13800
(
773.51
773.51
773.509
773.509
773.509
773.509
773.509
773.509
773.509
773.509
773.509
773.509
773.509
773.509
773.508
773.508
773.508
773.508
773.508
773.508
773.508
773.508
773.508
773.508
773.508
773.508
773.508
773.508
773.508
773.508
773.508
773.508
773.508
773.508
773.508
773.508
773.507
773.507
773.507
773.507
773.507
773.507
773.507
773.507
773.507
773.507
773.507
773.507
773.507
773.507
773.507
773.507
773.507
773.507
773.507
773.507
773.507
773.508
773.509
773.509
773.509
773.509
773.509
773.508
773.507
773.505
773.503
773.502
773.501
773.5
773.499
773.499
773.499
773.499
773.499
773.499
773.499
773.5
773.5
773.501
773.501
773.501
773.501
773.5
773.499
773.498
773.497
773.497
773.496
773.496
773.496
773.496
773.495
773.494
773.493
773.491
773.49
773.489
773.487
773.486
773.486
773.485
773.485
773.485
773.485
773.485
773.485
773.486
773.487
773.488
773.489
773.49
773.49
773.491
773.491
773.491
773.49
773.489
773.489
773.489
773.489
773.489
773.49
773.491
773.492
773.493
773.495
773.496
773.498
773.5
773.502
773.505
773.507
773.51
773.513
773.516
773.519
773.522
773.526
773.53
773.534
773.538
773.543
773.547
773.552
773.558
773.563
773.569
773.575
773.582
773.588
773.596
773.603
773.61
773.618
773.627
773.635
773.644
773.654
773.663
773.673
773.684
773.694
773.706
773.717
773.729
773.741
773.754
773.767
773.781
773.795
773.809
773.824
773.839
773.855
773.871
773.888
773.905
773.922
773.94
773.959
773.978
773.997
774.017
774.037
774.058
774.08
774.102
774.124
774.148
774.17
774.196
774.217
774.247
774.267
774.3
774.321
774.367
774.393
774.739
773.486
773.486
773.486
773.486
773.486
773.486
773.486
773.486
773.486
773.486
773.486
773.486
773.486
773.486
773.486
773.485
773.485
773.485
773.485
773.485
773.486
773.486
773.486
773.486
773.486
773.486
773.486
773.486
773.486
773.486
773.486
773.486
773.486
773.486
773.486
773.486
773.486
773.486
773.486
773.486
773.486
773.486
773.486
773.486
773.486
773.486
773.486
773.486
773.486
773.486
773.486
773.486
773.486
773.486
773.486
773.486
773.487
773.488
773.488
773.489
773.489
773.489
773.489
773.488
773.487
773.485
773.484
773.483
773.481
773.481
773.48
773.48
773.479
773.479
773.479
773.479
773.48
773.48
773.481
773.482
773.482
773.482
773.482
773.482
773.481
773.48
773.479
773.478
773.478
773.478
773.478
773.478
773.477
773.476
773.475
773.474
773.473
773.471
773.47
773.469
773.468
773.468
773.467
773.467
773.468
773.468
773.468
773.469
773.47
773.471
773.472
773.473
773.474
773.474
773.475
773.475
773.474
773.474
773.473
773.473
773.473
773.473
773.474
773.475
773.476
773.477
773.479
773.481
773.483
773.485
773.487
773.489
773.492
773.495
773.497
773.501
773.504
773.507
773.511
773.515
773.519
773.523
773.528
773.533
773.538
773.543
773.549
773.554
773.56
773.567
773.574
773.581
773.588
773.595
773.603
773.612
773.62
773.629
773.639
773.648
773.658
773.669
773.679
773.69
773.702
773.714
773.726
773.739
773.752
773.766
773.78
773.794
773.809
773.824
773.84
773.856
773.872
773.89
773.907
773.925
773.944
773.963
773.982
774.002
774.022
774.043
774.065
774.087
774.109
774.133
774.155
774.181
774.202
774.232
774.252
774.285
774.306
774.353
774.377
774.774
773.486
773.486
773.486
773.486
773.486
773.486
773.486
773.486
773.486
773.486
773.486
773.486
773.486
773.486
773.485
773.485
773.485
773.485
773.485
773.485
773.485
773.486
773.486
773.486
773.486
773.486
773.486
773.486
773.486
773.486
773.486
773.486
773.486
773.486
773.486
773.486
773.486
773.486
773.486
773.486
773.486
773.486
773.486
773.486
773.486
773.486
773.486
773.486
773.486
773.486
773.486
773.486
773.486
773.486
773.486
773.486
773.487
773.488
773.488
773.489
773.489
773.489
773.489
773.488
773.487
773.485
773.484
773.483
773.481
773.481
773.48
773.48
773.479
773.479
773.479
773.479
773.48
773.48
773.481
773.482
773.482
773.482
773.482
773.482
773.481
773.48
773.479
773.478
773.478
773.478
773.478
773.478
773.477
773.476
773.475
773.474
773.473
773.471
773.47
773.469
773.468
773.468
773.467
773.467
773.467
773.468
773.468
773.469
773.47
773.471
773.472
773.473
773.474
773.474
773.475
773.475
773.474
773.474
773.473
773.473
773.473
773.473
773.474
773.475
773.476
773.477
773.479
773.481
773.483
773.485
773.487
773.489
773.492
773.494
773.497
773.5
773.504
773.507
773.511
773.515
773.519
773.523
773.528
773.533
773.538
773.543
773.548
773.554
773.56
773.567
773.574
773.581
773.588
773.595
773.603
773.612
773.62
773.629
773.638
773.648
773.658
773.669
773.679
773.69
773.702
773.714
773.726
773.739
773.752
773.766
773.78
773.794
773.809
773.824
773.84
773.856
773.872
773.89
773.907
773.925
773.944
773.962
773.982
774.002
774.022
774.043
774.065
774.087
774.109
774.133
774.154
774.181
774.202
774.232
774.252
774.285
774.306
774.353
774.376
774.762
773.486
773.486
773.486
773.486
773.486
773.486
773.486
773.486
773.486
773.486
773.486
773.486
773.486
773.486
773.486
773.486
773.486
773.486
773.486
773.486
773.486
773.486
773.486
773.486
773.486
773.486
773.486
773.486
773.486
773.486
773.486
773.486
773.486
773.486
773.486
773.486
773.486
773.486
773.486
773.486
773.486
773.486
773.486
773.486
773.486
773.486
773.486
773.486
773.486
773.486
773.486
773.486
773.486
773.486
773.486
773.486
773.487
773.488
773.488
773.489
773.489
773.489
773.489
773.488
773.487
773.485
773.484
773.483
773.482
773.481
773.48
773.48
773.479
773.479
773.479
773.479
773.48
773.48
773.481
773.482
773.482
773.482
773.482
773.482
773.481
773.48
773.479
773.479
773.478
773.478
773.478
773.478
773.477
773.476
773.475
773.474
773.473
773.471
773.47
773.469
773.468
773.468
773.467
773.467
773.468
773.468
773.468
773.469
773.47
773.471
773.472
773.473
773.474
773.474
773.475
773.475
773.474
773.474
773.473
773.473
773.473
773.473
773.474
773.475
773.476
773.477
773.479
773.481
773.483
773.485
773.487
773.489
773.492
773.494
773.497
773.5
773.504
773.507
773.511
773.515
773.519
773.523
773.528
773.533
773.538
773.543
773.548
773.554
773.56
773.567
773.574
773.581
773.588
773.595
773.603
773.612
773.62
773.629
773.638
773.648
773.658
773.669
773.679
773.69
773.702
773.714
773.726
773.739
773.752
773.766
773.78
773.794
773.809
773.824
773.84
773.856
773.872
773.89
773.907
773.925
773.944
773.962
773.982
774.002
774.022
774.043
774.065
774.087
774.109
774.133
774.155
774.181
774.202
774.232
774.252
774.285
774.306
774.35
774.375
774.672
773.486
773.486
773.486
773.486
773.486
773.486
773.486
773.486
773.486
773.486
773.486
773.486
773.486
773.486
773.486
773.486
773.486
773.486
773.486
773.486
773.486
773.486
773.486
773.486
773.486
773.486
773.486
773.486
773.486
773.486
773.486
773.486
773.486
773.486
773.486
773.486
773.486
773.486
773.486
773.486
773.486
773.486
773.486
773.486
773.486
773.486
773.486
773.486
773.486
773.486
773.486
773.486
773.486
773.486
773.486
773.486
773.487
773.488
773.488
773.489
773.489
773.489
773.489
773.488
773.487
773.486
773.484
773.483
773.482
773.481
773.48
773.48
773.48
773.479
773.479
773.479
773.48
773.481
773.481
773.482
773.482
773.482
773.482
773.482
773.481
773.48
773.479
773.479
773.478
773.478
773.478
773.478
773.477
773.476
773.475
773.474
773.473
773.471
773.47
773.469
773.468
773.468
773.468
773.467
773.468
773.468
773.468
773.469
773.47
773.471
773.472
773.473
773.474
773.474
773.475
773.475
773.474
773.474
773.473
773.473
773.473
773.473
773.474
773.475
773.476
773.477
773.479
773.481
773.483
773.485
773.487
773.489
773.492
773.494
773.497
773.501
773.504
773.507
773.511
773.515
773.519
773.523
773.528
773.533
773.538
773.543
773.548
773.554
773.56
773.567
773.574
773.581
773.588
773.595
773.603
773.612
773.62
773.629
773.638
773.648
773.658
773.669
773.679
773.69
773.702
773.714
773.726
773.739
773.752
773.766
773.78
773.794
773.809
773.824
773.84
773.856
773.872
773.89
773.907
773.925
773.944
773.963
773.982
774.002
774.022
774.043
774.064
774.087
774.109
774.133
774.154
774.181
774.202
774.232
774.252
774.285
774.304
774.347
774.365
774.567
773.486
773.486
773.486
773.486
773.486
773.486
773.486
773.486
773.486
773.486
773.486
773.486
773.486
773.486
773.486
773.486
773.486
773.486
773.486
773.486
773.486
773.486
773.486
773.486
773.486
773.486
773.486
773.486
773.486
773.486
773.486
773.486
773.486
773.486
773.486
773.486
773.486
773.486
773.486
773.486
773.486
773.486
773.486
773.486
773.486
773.486
773.486
773.486
773.486
773.486
773.486
773.486
773.486
773.486
773.486
773.486
773.487
773.488
773.488
773.489
773.489
773.489
773.489
773.488
773.487
773.486
773.484
773.483
773.482
773.481
773.48
773.48
773.48
773.479
773.479
773.479
773.48
773.481
773.481
773.482
773.482
773.482
773.482
773.482
773.481
773.48
773.479
773.479
773.478
773.478
773.478
773.478
773.477
773.476
773.475
773.474
773.473
773.471
773.47
773.469
773.468
773.468
773.468
773.467
773.468
773.468
773.468
773.469
773.47
773.471
773.472
773.473
773.474
773.474
773.475
773.475
773.474
773.474
773.473
773.473
773.473
773.473
773.474
773.475
773.476
773.477
773.479
773.481
773.483
773.485
773.487
773.489
773.492
773.494
773.497
773.501
773.504
773.507
773.511
773.515
773.519
773.523
773.528
773.533
773.538
773.543
773.548
773.554
773.56
773.567
773.574
773.581
773.588
773.595
773.603
773.612
773.62
773.629
773.638
773.648
773.658
773.669
773.679
773.69
773.702
773.714
773.726
773.739
773.752
773.766
773.78
773.794
773.809
773.824
773.84
773.856
773.872
773.89
773.907
773.925
773.944
773.962
773.982
774.002
774.022
774.043
774.065
774.087
774.109
774.132
774.156
774.18
774.203
774.232
774.252
774.283
774.308
774.33
774.364
774.352
773.486
773.486
773.486
773.486
773.486
773.486
773.486
773.486
773.486
773.486
773.486
773.486
773.486
773.486
773.486
773.486
773.486
773.486
773.486
773.486
773.486
773.486
773.486
773.486
773.486
773.486
773.486
773.486
773.486
773.486
773.486
773.486
773.486
773.486
773.486
773.486
773.486
773.486
773.486
773.486
773.486
773.486
773.486
773.486
773.486
773.486
773.486
773.486
773.486
773.486
773.486
773.486
773.486
773.486
773.486
773.486
773.487
773.488
773.488
773.489
773.489
773.489
773.489
773.488
773.487
773.485
773.484
773.483
773.482
773.481
773.48
773.48
773.479
773.479
773.479
773.479
773.48
773.48
773.481
773.482
773.482
773.482
773.482
773.482
773.481
773.48
773.479
773.479
773.478
773.478
773.478
773.478
773.477
773.476
773.475
773.474
773.473
773.471
773.47
773.469
773.468
773.468
773.467
773.467
773.468
773.468
773.468
773.469
773.47
773.471
773.472
773.473
773.474
773.474
773.475
773.475
773.474
773.474
773.473
773.473
773.473
773.473
773.474
773.475
773.476
773.477
773.479
773.481
773.483
773.485
773.487
773.489
773.492
773.494
773.497
773.5
773.504
773.507
773.511
773.515
773.519
773.523
773.528
773.533
773.538
773.543
773.549
773.554
773.56
773.567
773.574
773.581
773.588
773.595
773.603
773.612
773.62
773.629
773.638
773.648
773.658
773.669
773.679
773.69
773.702
773.714
773.726
773.739
773.752
773.766
773.78
773.794
773.809
773.824
773.84
773.856
773.872
773.89
773.907
773.925
773.944
773.962
773.982
774.002
774.022
774.043
774.065
774.087
774.109
774.132
774.157
774.178
774.207
774.226
774.259
774.277
774.312
774.325
774.357
774.031
773.486
773.486
773.486
773.486
773.486
773.486
773.486
773.486
773.486
773.486
773.486
773.486
773.486
773.486
773.485
773.485
773.485
773.485
773.485
773.485
773.485
773.486
773.486
773.486
773.486
773.486
773.486
773.486
773.486
773.486
773.486
773.486
773.486
773.486
773.486
773.486
773.486
773.486
773.486
773.486
773.486
773.486
773.486
773.486
773.486
773.486
773.486
773.486
773.486
773.486
773.486
773.486
773.486
773.486
773.486
773.486
773.487
773.488
773.488
773.489
773.489
773.489
773.489
773.488
773.487
773.485
773.484
773.483
773.481
773.481
773.48
773.48
773.479
773.479
773.479
773.479
773.48
773.48
773.481
773.482
773.482
773.482
773.482
773.482
773.481
773.48
773.479
773.478
773.478
773.478
773.478
773.478
773.477
773.476
773.475
773.474
773.473
773.471
773.47
773.469
773.468
773.468
773.467
773.467
773.467
773.468
773.468
773.469
773.47
773.471
773.472
773.473
773.474
773.474
773.475
773.475
773.474
773.474
773.473
773.473
773.473
773.473
773.474
773.475
773.476
773.477
773.479
773.481
773.483
773.485
773.487
773.489
773.492
773.494
773.497
773.5
773.504
773.507
773.511
773.515
773.519
773.523
773.528
773.533
773.538
773.543
773.549
773.554
773.56
773.567
773.574
773.581
773.588
773.595
773.603
773.612
773.62
773.629
773.638
773.648
773.658
773.669
773.679
773.69
773.702
773.714
773.726
773.739
773.752
773.766
773.78
773.794
773.809
773.824
773.84
773.856
773.872
773.89
773.907
773.925
773.944
773.962
773.982
774.002
774.022
774.043
774.065
774.087
774.109
774.132
774.157
774.178
774.207
774.226
774.259
774.276
774.314
774.323
774.386
773.585
773.486
773.486
773.486
773.486
773.486
773.486
773.486
773.486
773.486
773.486
773.486
773.486
773.486
773.486
773.486
773.485
773.485
773.485
773.485
773.485
773.486
773.486
773.486
773.486
773.486
773.486
773.486
773.486
773.486
773.486
773.486
773.486
773.486
773.486
773.486
773.486
773.486
773.486
773.486
773.486
773.486
773.486
773.486
773.486
773.486
773.486
773.486
773.486
773.486
773.486
773.486
773.486
773.486
773.486
773.486
773.486
773.487
773.488
773.488
773.489
773.489
773.489
773.489
773.488
773.487
773.485
773.484
773.483
773.481
773.481
773.48
773.48
773.479
773.479
773.479
773.479
773.48
773.48
773.481
773.482
773.482
773.482
773.482
773.482
773.481
773.48
773.479
773.478
773.478
773.478
773.478
773.478
773.477
773.476
773.475
773.474
773.473
773.471
773.47
773.469
773.468
773.468
773.467
773.467
773.468
773.468
773.468
773.469
773.47
773.471
773.472
773.473
773.474
773.474
773.475
773.475
773.474
773.474
773.473
773.473
773.473
773.473
773.474
773.475
773.476
773.477
773.479
773.481
773.483
773.485
773.487
773.489
773.492
773.495
773.497
773.501
773.504
773.507
773.511
773.515
773.519
773.523
773.528
773.533
773.538
773.543
773.549
773.554
773.56
773.567
773.574
773.581
773.588
773.595
773.603
773.612
773.62
773.629
773.639
773.648
773.658
773.669
773.679
773.69
773.702
773.714
773.726
773.739
773.752
773.766
773.78
773.794
773.809
773.824
773.84
773.856
773.872
773.89
773.907
773.925
773.944
773.963
773.982
774.002
774.022
774.043
774.065
774.086
774.109
774.131
774.157
774.178
774.207
774.226
774.259
774.276
774.316
774.322
774.407
773.365
773.51
773.51
773.509
773.509
773.509
773.509
773.509
773.509
773.509
773.509
773.509
773.509
773.509
773.509
773.508
773.508
773.508
773.508
773.508
773.508
773.508
773.508
773.508
773.508
773.508
773.508
773.508
773.508
773.508
773.508
773.508
773.508
773.508
773.508
773.508
773.508
773.507
773.507
773.507
773.507
773.507
773.507
773.507
773.507
773.507
773.507
773.507
773.507
773.507
773.507
773.507
773.507
773.507
773.507
773.507
773.507
773.507
773.508
773.509
773.509
773.509
773.509
773.509
773.508
773.507
773.505
773.503
773.502
773.501
773.5
773.499
773.499
773.499
773.499
773.499
773.499
773.499
773.5
773.5
773.501
773.501
773.501
773.501
773.5
773.499
773.498
773.497
773.497
773.496
773.496
773.496
773.496
773.495
773.494
773.493
773.491
773.49
773.489
773.487
773.486
773.486
773.485
773.485
773.485
773.485
773.485
773.485
773.486
773.487
773.488
773.489
773.49
773.49
773.491
773.491
773.491
773.49
773.489
773.489
773.489
773.489
773.489
773.49
773.491
773.492
773.493
773.495
773.496
773.498
773.5
773.502
773.505
773.507
773.51
773.513
773.516
773.519
773.522
773.526
773.53
773.534
773.538
773.543
773.547
773.552
773.558
773.563
773.569
773.575
773.582
773.588
773.596
773.603
773.61
773.618
773.627
773.635
773.644
773.654
773.663
773.673
773.684
773.694
773.706
773.717
773.729
773.741
773.754
773.767
773.781
773.795
773.809
773.824
773.839
773.855
773.871
773.888
773.905
773.922
773.94
773.959
773.978
773.997
774.017
774.037
774.058
774.08
774.101
774.125
774.146
774.172
774.193
774.222
774.241
774.274
774.291
774.331
774.336
774.441
773.181
774.708
774.769
774.814
774.831
774.847
774.859
774.868
774.875
774.882
774.889
774.895
774.9
774.904
774.905
774.907
774.902
774.896
774.878
774.849
774.784
774.693
774.739
774.766
774.778
774.79
774.796
774.801
774.805
774.808
774.812
774.815
774.818
774.82
774.82
774.821
774.815
774.809
774.791
774.764
774.706
774.69
774.735
774.77
774.781
774.792
774.801
774.809
774.816
774.821
774.826
774.829
774.831
774.833
774.831
774.829
774.82
774.809
774.787
774.754
774.7
774.618
774.645
774.658
774.667
774.675
774.684
774.691
774.699
774.708
774.717
774.727
774.738
774.749
774.76
774.77
774.777
774.775
774.77
774.746
774.716
774.536
774.567
774.594
774.616
774.632
774.643
774.654
774.656
774.656
774.65
774.643
774.63
774.62
774.603
774.588
774.568
774.552
774.535
774.524
774.513
774.371
774.362
774.345
774.334
774.325
774.327
774.332
774.341
774.353
774.37
774.393
774.423
774.455
774.485
774.523
774.555
774.595
774.62
774.651
774.665
774.177
774.163
774.168
774.179
774.184
774.183
774.184
774.172
774.164
774.142
774.126
774.098
774.078
774.051
774.035
774.019
774.021
774.03
774.057
774.089
773.909
773.836
773.776
773.745
773.731
773.725
773.727
773.735
773.752
773.78
773.813
773.852
773.897
773.947
773.999
774.068
774.117
774.215
774.292
774.377
773.738
773.665
773.593
773.556
773.523
773.503
773.481
773.47
773.459
773.459
773.464
773.472
773.491
773.514
773.547
773.582
773.633
773.702
773.799
773.921
773.647
773.542
773.428
773.388
773.363
773.368
773.382
773.406
773.436
773.474
773.53
773.58
773.649
773.712
773.784
773.858
773.948
774.05
774.174
774.31
774.601
774.557
774.573
774.581
774.602
774.629
774.658
774.685
774.713
774.74
774.768
774.797
774.826
774.856
774.887
774.917
774.948
774.98
775.011
775.044
775.076
775.11
775.143
775.177
775.211
775.246
775.281
775.317
775.353
775.39
775.426
775.464
775.502
775.54
775.579
775.618
775.658
775.699
775.739
775.781
775.822
775.864
775.906
775.948
775.991
776.034
776.078
776.123
776.168
776.213
776.259
776.306
776.353
776.4
776.448
776.496
776.545
776.594
776.644
776.694
776.745
776.797
776.849
776.901
776.953
777.006
777.06
777.113
777.167
777.221
777.276
777.331
777.387
777.444
777.501
777.558
777.616
777.675
777.733
777.792
777.851
777.911
777.971
778.031
778.092
778.154
778.216
778.278
778.341
778.404
778.467
778.531
778.594
778.659
778.723
778.788
778.853
778.92
778.986
779.053
779.12
779.188
779.256
779.324
779.392
779.46
779.528
779.597
779.666
779.735
779.805
779.874
779.944
780.015
780.085
780.155
780.226
780.297
780.368
780.439
780.511
780.583
780.655
780.728
780.8
780.873
780.946
781.019
781.091
781.164
781.237
781.31
781.383
781.457
781.53
781.604
781.677
781.751
781.824
781.897
781.97
782.042
782.114
782.185
782.258
782.331
782.404
782.477
782.548
782.618
782.685
782.75
782.815
782.879
782.944
783.012
783.084
783.16
783.229
783.282
783.317
783.354
783.425
783.604
784.013
784.537
785.099
785.658
786.18
786.641
787.024
787.321
787.522
787.626
787.654
787.642
787.536
787.148
786.63
786.183
785.815
785.538
785.355
785.252
785.203
785.181
785.177
785.184
785.236
785.285
785.374
785.418
785.508
785.552
785.641
785.683
785.771
785.809
785.921
785.864
774.543
774.507
774.524
774.531
774.552
774.579
774.607
774.635
774.662
774.69
774.717
774.746
774.775
774.805
774.835
774.866
774.897
774.928
774.96
774.992
775.025
775.058
775.091
775.125
775.16
775.194
775.229
775.265
775.301
775.338
775.374
775.412
775.449
775.488
775.526
775.566
775.605
775.646
775.687
775.728
775.769
775.811
775.853
775.896
775.939
775.982
776.026
776.07
776.115
776.16
776.206
776.253
776.3
776.347
776.395
776.443
776.492
776.541
776.591
776.641
776.691
776.743
776.794
776.847
776.899
776.952
777.006
777.06
777.114
777.168
777.223
777.278
777.333
777.389
777.446
777.504
777.561
777.62
777.679
777.738
777.797
777.857
777.917
777.978
778.038
778.1
778.161
778.223
778.286
778.349
778.412
778.476
778.54
778.605
778.669
778.734
778.799
778.865
778.931
778.997
779.065
779.132
779.2
779.268
779.336
779.405
779.474
779.542
779.611
779.68
779.75
779.819
779.889
779.959
780.03
780.1
780.171
780.242
780.313
780.384
780.456
780.527
780.599
780.672
780.744
780.817
780.89
780.963
781.036
781.109
781.182
781.255
781.328
781.402
781.475
781.549
781.622
781.696
781.77
781.843
781.917
781.99
782.063
782.136
782.209
782.282
782.354
782.426
782.499
782.57
782.639
782.709
782.778
782.846
782.916
782.99
783.065
783.138
783.206
783.268
783.319
783.357
783.386
783.421
783.469
783.515
783.545
783.567
783.604
783.679
783.799
783.957
784.14
784.332
784.52
784.691
784.84
784.965
785.058
785.115
785.144
785.153
785.152
785.149
785.148
785.15
785.171
785.196
785.258
785.295
785.374
785.415
785.5
785.542
785.629
785.67
785.757
785.795
785.904
785.882
774.551
774.518
774.533
774.542
774.563
774.591
774.619
774.646
774.672
774.699
774.727
774.756
774.786
774.816
774.846
774.876
774.907
774.939
774.97
775.003
775.035
775.068
775.102
775.136
775.17
775.205
775.24
775.276
775.312
775.348
775.385
775.422
775.46
775.498
775.537
775.576
775.616
775.656
775.697
775.738
775.78
775.822
775.864
775.906
775.949
775.993
776.036
776.081
776.126
776.171
776.217
776.263
776.31
776.358
776.406
776.454
776.503
776.552
776.601
776.651
776.702
776.753
776.805
776.857
776.91
776.963
777.016
777.07
777.124
777.179
777.233
777.288
777.344
777.4
777.457
777.514
777.572
777.63
777.689
777.748
777.808
777.868
777.928
777.988
778.049
778.11
778.172
778.234
778.296
778.359
778.423
778.487
778.551
778.615
778.68
778.744
778.809
778.875
778.941
779.008
779.075
779.142
779.21
779.278
779.347
779.415
779.484
779.553
779.621
779.691
779.76
779.83
779.899
779.97
780.04
780.111
780.181
780.252
780.323
780.394
780.466
780.537
780.609
780.681
780.754
780.827
780.9
780.973
781.045
781.118
781.192
781.265
781.338
781.411
781.484
781.558
781.631
781.705
781.779
781.852
781.926
781.999
782.072
782.145
782.218
782.292
782.365
782.437
782.509
782.581
782.651
782.721
782.788
782.858
782.929
783.001
783.075
783.152
783.226
783.284
783.331
783.367
783.386
783.4
783.422
783.453
783.485
783.515
783.548
783.594
783.665
783.764
783.89
784.026
784.178
784.316
784.462
784.579
784.7
784.786
784.875
784.928
784.992
785.022
785.077
785.104
785.162
785.194
785.263
785.301
785.379
785.42
785.504
785.545
785.631
785.673
785.758
785.797
785.901
785.908
774.612
774.611
774.624
774.644
774.671
774.697
774.723
774.751
774.779
774.807
774.836
774.866
774.895
774.925
774.956
774.986
775.017
775.049
775.081
775.113
775.145
775.179
775.212
775.246
775.28
775.315
775.35
775.386
775.422
775.458
775.495
775.532
775.57
775.608
775.647
775.687
775.726
775.767
775.807
775.849
775.89
775.932
775.974
776.017
776.06
776.103
776.147
776.191
776.236
776.282
776.327
776.374
776.421
776.468
776.516
776.564
776.613
776.662
776.712
776.762
776.813
776.864
776.916
776.968
777.021
777.074
777.127
777.181
777.235
777.289
777.344
777.399
777.455
777.511
777.568
777.625
777.683
777.741
777.8
777.859
777.919
777.978
778.038
778.099
778.16
778.221
778.283
778.345
778.407
778.47
778.533
778.597
778.661
778.725
778.79
778.855
778.92
778.986
779.052
779.119
779.186
779.254
779.321
779.389
779.457
779.526
779.594
779.663
779.732
779.801
779.87
779.94
780.01
780.08
780.15
780.221
780.291
780.362
780.434
780.505
780.577
780.649
780.721
780.794
780.866
780.938
781.011
781.084
781.156
781.229
781.302
781.375
781.449
781.522
781.595
781.669
781.742
781.815
781.887
781.959
782.031
782.104
782.177
782.251
782.322
782.394
782.465
782.533
782.6
782.668
782.736
782.804
782.875
782.949
783.021
783.092
783.159
783.22
783.272
783.317
783.36
783.405
783.454
783.505
783.556
783.608
783.663
783.725
783.796
783.876
783.961
784.051
784.143
784.231
784.323
784.402
784.491
784.561
784.639
784.702
784.769
784.829
784.888
784.946
785.008
785.06
785.132
785.177
785.259
785.302
785.384
785.43
785.513
785.555
785.641
785.682
785.765
785.804
785.887
785.929
774.49
774.501
774.507
774.523
774.546
774.567
774.595
774.621
774.648
774.675
774.703
774.732
774.761
774.791
774.821
774.851
774.882
774.913
774.945
774.977
775.01
775.043
775.077
775.111
775.145
775.18
775.215
775.25
775.286
775.323
775.36
775.397
775.435
775.473
775.512
775.551
775.59
775.631
775.671
775.712
775.754
775.796
775.838
775.881
775.924
775.968
776.012
776.056
776.101
776.147
776.193
776.239
776.286
776.333
776.381
776.429
776.477
776.527
776.576
776.627
776.677
776.728
776.78
776.831
776.884
776.937
776.99
777.044
777.098
777.153
777.208
777.264
777.32
777.376
777.433
777.49
777.547
777.605
777.664
777.723
777.782
777.842
777.902
777.963
778.024
778.086
778.148
778.21
778.272
778.335
778.398
778.462
778.526
778.59
778.655
778.72
778.786
778.852
778.918
778.984
779.051
779.118
779.185
779.252
779.32
779.389
779.457
779.526
779.596
779.665
779.735
779.805
779.875
779.945
780.016
780.087
780.158
780.229
780.3
780.371
780.443
780.515
780.587
780.659
780.731
780.804
780.877
780.949
781.022
781.095
781.169
781.242
781.316
781.389
781.463
781.536
781.61
781.684
781.758
781.833
781.906
781.98
782.054
782.128
782.201
782.275
782.349
782.423
782.498
782.571
782.644
782.717
782.79
782.862
782.932
783.003
783.075
783.149
783.222
783.293
783.362
783.429
783.493
783.556
783.617
783.679
783.742
783.806
783.873
783.942
784.014
784.086
784.16
784.234
784.306
784.382
784.449
784.525
784.589
784.661
784.726
784.792
784.862
784.923
784.994
785.053
785.124
785.185
785.251
785.318
785.375
785.449
785.502
785.574
785.633
785.695
785.759
785.82
785.88
785.936
774.716
774.764
774.809
774.85
774.886
774.919
774.949
774.978
775.007
775.036
775.065
775.094
775.124
775.154
775.184
775.215
775.246
775.277
775.309
775.341
775.374
775.407
775.44
775.474
775.509
775.543
775.579
775.614
775.65
775.687
775.724
775.761
775.799
775.837
775.876
775.915
775.955
775.996
776.036
776.078
776.119
776.161
776.204
776.246
776.289
776.332
776.376
776.42
776.465
776.51
776.556
776.602
776.649
776.697
776.744
776.792
776.841
776.89
776.94
776.991
777.041
777.093
777.145
777.197
777.249
777.302
777.355
777.409
777.462
777.517
777.571
777.627
777.683
777.739
777.796
777.854
777.911
777.969
778.028
778.086
778.145
778.204
778.264
778.325
778.385
778.447
778.509
778.571
778.633
778.695
778.758
778.822
778.885
778.95
779.015
779.08
779.146
779.212
779.279
779.346
779.412
779.479
779.547
779.614
779.682
779.75
779.818
779.887
779.955
780.025
780.094
780.163
780.232
780.302
780.371
780.441
780.511
780.582
780.652
780.723
780.793
780.864
780.934
781.005
781.075
781.146
781.216
781.286
781.356
781.425
781.494
781.563
781.631
781.701
781.771
781.84
781.91
781.979
782.048
782.115
782.181
782.246
782.311
782.375
782.438
782.503
782.569
782.637
782.707
782.779
782.85
782.919
782.986
783.048
783.105
783.157
783.205
783.252
783.297
783.342
783.387
783.435
783.486
783.54
783.596
783.654
783.712
783.773
783.836
783.903
783.972
784.047
784.121
784.203
784.278
784.362
784.435
784.518
784.586
784.667
784.73
784.809
784.867
784.946
785
785.079
785.129
785.209
785.256
785.338
785.382
785.465
785.507
785.59
785.631
785.714
785.754
785.836
785.877
785.967
774.237
774.296
774.325
774.349
774.371
774.399
774.425
774.452
774.48
774.508
774.536
774.565
774.594
774.623
774.653
774.683
774.714
774.746
774.777
774.81
774.842
774.875
774.909
774.943
774.977
775.012
775.047
775.082
775.119
775.155
775.192
775.229
775.267
775.305
775.344
775.383
775.423
775.463
775.503
775.544
775.585
775.627
775.669
775.712
775.755
775.799
775.843
775.888
775.933
775.979
776.025
776.072
776.118
776.166
776.213
776.261
776.31
776.359
776.409
776.459
776.509
776.56
776.612
776.664
776.716
776.769
776.822
776.876
776.93
776.985
777.04
777.095
777.151
777.208
777.264
777.322
777.38
777.438
777.497
777.557
777.616
777.676
777.736
777.797
777.858
777.919
777.981
778.043
778.106
778.169
778.233
778.297
778.361
778.426
778.491
778.556
778.622
778.688
778.754
778.82
778.887
778.954
779.021
779.089
779.157
779.226
779.295
779.364
779.433
779.502
779.572
779.642
779.711
779.781
779.851
779.922
779.992
780.063
780.135
780.207
780.278
780.351
780.423
780.495
780.567
780.639
780.712
780.784
780.857
780.93
781.003
781.076
781.149
781.223
781.296
781.37
781.443
781.516
781.59
781.663
781.736
781.808
781.881
781.955
782.027
782.1
782.173
782.247
782.322
782.396
782.469
782.541
782.614
782.687
782.762
782.838
782.911
782.983
783.057
783.13
783.203
783.276
783.354
783.436
783.517
783.596
783.671
783.743
783.809
783.868
783.917
783.966
784.014
784.076
784.142
784.227
784.309
784.406
784.49
784.587
784.665
784.757
784.826
784.913
784.975
785.059
785.114
785.198
785.248
785.332
785.377
785.462
785.504
785.588
785.63
785.712
785.754
785.834
785.885
785.958
774.666
774.753
774.801
774.839
774.873
774.905
774.936
774.966
774.996
775.026
775.055
775.085
775.114
775.144
775.175
775.205
775.236
775.268
775.3
775.332
775.364
775.398
775.431
775.465
775.499
775.534
775.569
775.605
775.641
775.678
775.714
775.752
775.79
775.828
775.866
775.905
775.945
775.985
776.026
776.067
776.109
776.151
776.194
776.237
776.28
776.323
776.367
776.411
776.455
776.5
776.546
776.592
776.639
776.686
776.734
776.782
776.83
776.879
776.929
776.979
777.03
777.081
777.133
777.186
777.239
777.292
777.345
777.398
777.452
777.506
777.56
777.615
777.67
777.727
777.783
777.84
777.898
777.955
778.013
778.07
778.128
778.187
778.245
778.305
778.365
778.426
778.486