/*--------------------------------*- C++ -*----------------------------------*\
| =========                 |                                                 |
| \\      /  F ield         | OpenFOAM: The Open Source CFD Toolbox           |
|  \\    /   O peration     | Version:  3.0.x                                 |
|   \\  /    A nd           | Web:      www.OpenFOAM.org                      |
|    \\/     M anipulation  |                                                 |
\*---------------------------------------------------------------------------*/
FoamFile
{
    version     2.0;
    format      ascii;
    class       surfaceScalarField;
    location    "0.45";
    object      phi;
}
// * * * * * * * * * * * * * * * * * * * * * * * * * * * * * * * * * * * * * //

dimensions      [1 0 -1 0 0 0 0];

internalField   nonuniform List<scalar> 
12415
(
5.79831
0.000327744
5.7981
0.000235067
5.7979
0.000224706
5.79768
0.0002267
5.79746
0.000227153
5.79722
0.000226944
5.79696
0.00022689
5.79669
0.000226883
5.7964
0.000226887
5.79608
0.000226884
5.79575
0.000226881
5.79539
0.000226879
5.79502
0.000226876
5.79462
0.000226875
5.79421
0.000226873
5.79379
0.000226872
5.79335
0.000226871
5.7929
0.000226871
5.79245
0.00022687
5.79199
0.000226845
5.79154
0.000226909
5.79109
0.000226866
5.79065
0.000226879
5.79022
0.000226885
5.7898
0.000226894
5.7894
0.000226906
5.78902
0.000226923
5.78866
0.000226946
5.78833
0.000226973
5.78801
0.000226984
5.78772
0.000227099
5.78745
0.000227039
5.78721
0.000227111
5.78699
0.000227263
5.7868
0.000227279
5.78661
0.000227347
5.78643
0.000227423
5.78624
0.000227503
5.78605
0.000227587
5.78586
0.000227675
5.78565
0.000227767
5.78544
0.000227863
5.78521
0.000227962
5.78496
0.000228067
5.78469
0.000228155
5.78439
0.000228264
5.78408
0.000228364
5.78374
0.000228462
5.78337
0.00022855
5.78297
0.000228623
5.78255
0.000228673
5.78209
0.000228688
5.7816
0.000228653
5.78108
0.000228548
5.78054
0.00022835
5.77999
0.000228028
5.77943
0.000227547
5.77886
0.000226866
5.77829
0.000225936
5.77774
0.000224703
5.77719
0.000223108
5.77665
0.000221089
5.77613
0.00021858
5.77563
0.000215521
5.77514
0.000211851
5.77467
0.00020752
5.77422
0.000202488
5.7738
0.00019673
5.77339
0.000190237
5.77299
0.00018302
5.77262
0.00017511
5.77225
0.000166531
5.7719
0.000157499
5.77154
0.000147846
5.77119
0.000137907
5.77083
0.000127706
5.77045
0.000117383
5.77006
0.000107069
5.76964
9.6891e-05
5.76918
8.69683e-05
5.7687
7.74115e-05
5.76817
6.83157e-05
5.7676
5.97604e-05
5.76698
5.1806e-05
5.76631
4.44948e-05
5.76559
3.78503e-05
5.76481
3.18788e-05
5.76398
2.65713e-05
5.76311
2.19046e-05
5.76218
1.78454e-05
5.76121
1.43519e-05
5.7602
1.13765e-05
5.75915
8.86851e-06
5.75806
6.77581e-06
5.75695
5.04708e-06
5.75581
3.63301e-06
5.75465
2.48775e-06
5.75348
1.56825e-06
5.75229
8.38891e-07
5.75109
2.7008e-07
5.74988
-1.79278e-07
5.74865
-5.21452e-07
5.74742
-7.80256e-07
5.74617
-9.73634e-07
5.74491
-1.11572e-06
5.74362
-1.21778e-06
5.74231
-1.28868e-06
5.74097
-1.3353e-06
5.73958
-1.36302e-06
5.73816
-1.37596e-06
5.73668
-1.37723e-06
5.73514
-1.36922e-06
5.73354
-1.35376e-06
5.73186
-1.33229e-06
5.7301
-1.30593e-06
5.72825
-1.27561e-06
5.72631
-1.24209e-06
5.72426
-1.2061e-06
5.72212
-1.16834e-06
5.71986
-1.12949e-06
5.71749
-1.09014e-06
5.71502
-1.05094e-06
5.71243
-1.01246e-06
5.70974
-9.75348e-07
5.70695
-9.40123e-07
5.70405
-9.07377e-07
5.70107
-8.77499e-07
5.69799
-8.50814e-07
5.69484
-8.27529e-07
5.69162
-8.07664e-07
5.68833
-7.9118e-07
5.68499
-7.77873e-07
5.68159
-7.67413e-07
5.67815
-7.59404e-07
5.67466
-7.53254e-07
5.67114
-7.4836e-07
5.66758
-7.44065e-07
5.66398
-7.39668e-07
5.66034
-7.34681e-07
5.65665
-7.28536e-07
5.65292
-7.20776e-07
5.64914
-7.10925e-07
5.6453
-6.98577e-07
5.64139
-6.83567e-07
5.63741
-6.65654e-07
5.63336
-6.44754e-07
5.62922
-6.20776e-07
5.62499
-5.9364e-07
5.62065
-5.63281e-07
5.61621
-5.29744e-07
5.61165
-4.9309e-07
5.60696
-4.53516e-07
5.60214
-4.11237e-07
5.59717
-3.66539e-07
5.59207
-3.19804e-07
5.58681
-2.71604e-07
5.58139
-2.22648e-07
5.57583
-1.73844e-07
5.57011
-1.2612e-07
5.56424
-7.95626e-08
5.55822
-3.72311e-08
5.55208
2.06819e-09
5.5458
3.66745e-08
5.53941
6.64731e-08
5.53292
8.95034e-08
5.52634
1.07713e-07
5.51968
1.19817e-07
5.51296
1.26158e-07
5.50618
1.27553e-07
5.49936
1.24852e-07
5.49249
1.1948e-07
5.48559
1.12263e-07
5.47864
1.04717e-07
5.47165
9.7747e-08
5.46462
9.25465e-08
5.45753
8.98217e-08
5.45038
9.03601e-08
5.44316
9.37162e-08
5.43586
1.00521e-07
5.42848
1.08963e-07
5.42102
1.20741e-07
5.41347
1.32626e-07
5.40582
1.482e-07
5.39807
1.62134e-07
5.39023
1.82004e-07
5.38227
1.98577e-07
5.3742
2.26533e-07
5.36599
2.45516e-07
5.35765
2.93247e-07
5.34915
3.03593e-07
5.34048
4.06973e-07
5.33163
4.48754e-07
5.3226
1.17161e-06
5.31338
4.92193e-06
5.30393
3.203e-05
5.29411
0.000218037
5.28281
0.00150924
5.2624
0.0104459
5.16891
0.0833247
0.399357
4.75919
11.5974
0.00026049
11.5975
0.000215663
11.5975
0.000189528
11.5976
0.000194039
11.5976
0.000195351
11.5976
0.000194754
11.5976
0.000194592
11.5976
0.000194598
11.5975
0.000194608
11.5973
0.000194608
11.5971
0.000194612
11.5969
0.000194618
11.5966
0.000194624
11.5963
0.000194632
11.596
0.00019464
11.5956
0.000194649
11.5952
0.000194659
11.5948
0.000194668
11.5944
0.000194677
11.594
0.000194677
11.5936
0.000194722
11.5931
0.00019471
11.5927
0.000194729
11.5924
0.000194745
11.592
0.000194764
11.5917
0.000194786
11.5914
0.00019481
11.5912
0.000194841
11.591
0.000194875
11.5909
0.000194903
11.5908
0.000194993
11.5907
0.000194974
11.5907
0.000195043
11.5908
0.000195172
11.5909
0.000195203
11.591
0.000195275
11.5911
0.00019535
11.5912
0.000195431
11.5913
0.000195514
11.5914
0.000195601
11.5915
0.000195691
11.5916
0.000195785
11.5916
0.000195881
11.5916
0.000195983
11.5915
0.000196072
11.5914
0.000196175
11.5913
0.000196273
11.5911
0.000196368
11.5908
0.000196455
11.5905
0.000196529
11.5902
0.000196582
11.5897
0.000196604
11.5893
0.000196583
11.5887
0.000196501
11.5881
0.000196337
11.5875
0.000196064
11.5869
0.000195653
11.5862
0.000195066
11.5856
0.000194263
11.5849
0.000193194
11.5843
0.00019181
11.5837
0.000190056
11.5831
0.000187876
11.5826
0.000185216
11.5821
0.000182026
11.5816
0.000178263
11.5811
0.000173892
11.5807
0.000168892
11.5803
0.000163259
11.5799
0.000157001
11.5795
0.000150147
11.5791
0.000142731
11.5787
0.000134893
11.5784
0.000126574
11.5779
0.000117985
11.5775
0.000109187
11.577
0.000100293
11.5764
9.14146e-05
11.5758
8.26625e-05
11.5751
7.41394e-05
11.5743
6.59394e-05
11.5734
5.8143e-05
11.5723
5.08182e-05
11.5712
4.40154e-05
11.57
3.77691e-05
11.5686
3.2099e-05
11.5671
2.70085e-05
11.5655
2.24894e-05
11.5638
1.852e-05
11.562
1.50711e-05
11.5601
1.21063e-05
11.5581
9.58411e-06
11.556
7.46045e-06
11.5539
5.69062e-06
11.5516
4.23022e-06
11.5494
3.03698e-06
11.5471
2.0721e-06
11.5447
1.2964e-06
11.5423
6.84402e-07
11.5399
2.18504e-07
11.5375
-1.68429e-07
11.5351
-4.57254e-07
11.5326
-6.75649e-07
11.5301
-8.38893e-07
11.5276
-9.59034e-07
11.525
-1.04557e-06
11.5224
-1.1058e-06
11.5197
-1.14546e-06
11.5169
-1.16907e-06
11.5141
-1.18008e-06
11.5111
-1.18114e-06
11.508
-1.17427e-06
11.5048
-1.16102e-06
11.5014
-1.14261e-06
11.4979
-1.12002e-06
11.4942
-1.09403e-06
11.4903
-1.06528e-06
11.4862
-1.03443e-06
11.4819
-1.00205e-06
11.4774
-9.68731e-07
11.4727
-9.34989e-07
11.4677
-9.01367e-07
11.4626
-8.68365e-07
11.4572
-8.36527e-07
11.4516
-8.06319e-07
11.4458
-7.78225e-07
11.4398
-7.52598e-07
11.4337
-7.29711e-07
11.4274
-7.09734e-07
11.4209
-6.92699e-07
11.4143
-6.78561e-07
11.4076
-6.6715e-07
11.4009
-6.58178e-07
11.394
-6.51306e-07
11.387
-6.46033e-07
11.3799
-6.41829e-07
11.3728
-6.38137e-07
11.3656
-6.34363e-07
11.3583
-6.30064e-07
11.351
-6.24796e-07
11.3435
-6.18126e-07
11.3359
-6.09677e-07
11.3282
-5.99071e-07
11.3204
-5.86191e-07
11.3125
-5.70822e-07
11.3044
-5.52891e-07
11.2961
-5.32333e-07
11.2876
-5.09045e-07
11.279
-4.83013e-07
11.2701
-4.54272e-07
11.2609
-4.22805e-07
11.2516
-3.88889e-07
11.2419
-3.5263e-07
11.232
-3.1432e-07
11.2218
-2.7424e-07
11.2112
-2.3292e-07
11.2004
-1.9093e-07
11.1893
-1.49053e-07
11.1778
-1.08099e-07
11.1661
-6.65339e-08
11.1541
-3.17129e-08
11.1418
1.97815e-09
11.1292
3.1471e-08
11.1165
5.77077e-08
11.1035
7.55151e-08
11.0903
9.2012e-08
11.077
1.0279e-07
11.0635
1.08262e-07
11.05
1.09556e-07
11.0363
1.07194e-07
11.0226
1.02863e-07
11.0088
9.64717e-08
10.9949
9.00732e-08
10.9809
8.39943e-08
10.9669
7.96588e-08
10.9527
7.71897e-08
10.9384
7.8016e-08
10.9239
8.04255e-08
10.9093
8.70534e-08
10.8946
9.31432e-08
10.8797
1.0477e-07
10.8646
1.1302e-07
10.8493
1.29122e-07
10.8338
1.37142e-07
10.8181
1.59265e-07
10.8022
1.66474e-07
10.786
2.01044e-07
10.7696
1.99926e-07
10.7529
2.74652e-07
10.7359
2.28152e-07
10.7186
4.46632e-07
10.7009
4.75845e-07
10.6828
2.51133e-06
10.6644
1.35268e-05
10.6455
9.38046e-05
10.6259
0.000645252
10.6033
0.00447314
10.563
0.0308131
10.4076
0.218414
0.998389
9.78789
139.168
-0.00026049
139.169
-0.000215663
139.17
-0.000189528
139.171
-0.000194039
139.171
-0.000195351
139.172
-0.000194754
139.171
-0.000194592
139.171
-0.000194598
139.169
-0.000194608
139.168
-0.000194608
139.165
-0.000194612
139.163
-0.000194618
139.159
-0.000194624
139.156
-0.000194632
139.152
-0.00019464
139.147
-0.000194649
139.143
-0.000194659
139.138
-0.000194668
139.133
-0.000194677
139.128
-0.000194677
139.123
-0.000194722
139.118
-0.00019471
139.113
-0.000194729
139.108
-0.000194745
139.104
-0.000194764
139.1
-0.000194786
139.097
-0.00019481
139.094
-0.000194841
139.092
-0.000194875
139.09
-0.000194903
139.089
-0.000194993
139.089
-0.000194974
139.089
-0.000195043
139.089
-0.000195172
139.09
-0.000195203
139.092
-0.000195275
139.093
-0.00019535
139.095
-0.000195431
139.096
-0.000195514
139.097
-0.000195601
139.098
-0.000195691
139.099
-0.000195785
139.099
-0.000195881
139.099
-0.000195983
139.098
-0.000196072
139.097
-0.000196175
139.095
-0.000196273
139.093
-0.000196368
139.09
-0.000196455
139.086
-0.000196529
139.082
-0.000196582
139.077
-0.000196604
139.071
-0.000196583
139.065
-0.000196501
139.058
-0.000196337
139.05
-0.000196064
139.042
-0.000195653
139.035
-0.000195066
139.027
-0.000194263
139.019
-0.000193194
139.012
-0.00019181
139.005
-0.000190056
138.998
-0.000187876
138.991
-0.000185216
138.985
-0.000182026
138.979
-0.000178263
138.974
-0.000173892
138.968
-0.000168892
138.963
-0.000163259
138.959
-0.000157001
138.954
-0.000150147
138.95
-0.000142731
138.945
-0.000134893
138.94
-0.000126574
138.935
-0.000117985
138.93
-0.000109187
138.924
-0.000100293
138.917
-9.14146e-05
138.91
-8.26625e-05
138.901
-7.41394e-05
138.891
-6.59394e-05
138.881
-5.8143e-05
138.868
-5.08182e-05
138.855
-4.40154e-05
138.84
-3.77691e-05
138.823
-3.2099e-05
138.806
-2.70085e-05
138.786
-2.24894e-05
138.766
-1.852e-05
138.744
-1.50711e-05
138.721
-1.21063e-05
138.697
-9.5841e-06
138.672
-7.46045e-06
138.646
-5.69062e-06
138.62
-4.23022e-06
138.593
-3.03698e-06
138.565
-2.0721e-06
138.537
-1.29639e-06
138.508
-6.84405e-07
138.479
-2.18505e-07
138.45
1.68431e-07
138.421
4.57253e-07
138.391
6.75646e-07
138.361
8.38894e-07
138.331
9.59037e-07
138.3
1.04557e-06
138.268
1.1058e-06
138.236
1.14547e-06
138.203
1.16907e-06
138.169
1.18008e-06
138.133
1.18114e-06
138.096
1.17427e-06
138.058
1.16102e-06
138.017
1.14261e-06
137.975
1.12002e-06
137.931
1.09403e-06
137.884
1.06529e-06
137.835
1.03443e-06
137.783
1.00206e-06
137.729
9.68725e-07
137.672
9.3499e-07
137.613
9.01364e-07
137.551
8.68366e-07
137.486
8.36519e-07
137.419
8.06321e-07
137.35
7.78221e-07
137.278
7.52606e-07
137.204
7.29709e-07
137.129
7.09737e-07
137.051
6.92696e-07
136.972
6.78566e-07
136.892
6.67144e-07
136.81
6.5819e-07
136.728
6.51306e-07
136.644
6.46031e-07
136.559
6.41833e-07
136.474
6.38142e-07
136.388
6.34361e-07
136.3
6.3008e-07
136.212
6.24764e-07
136.122
6.18161e-07
136.031
6.09647e-07
135.939
5.991e-07
135.845
5.86156e-07
135.75
5.7084e-07
135.653
5.52914e-07
135.553
5.32308e-07
135.452
5.09056e-07
135.348
4.83025e-07
135.241
4.5418e-07
135.131
4.22907e-07
135.019
3.8888e-07
134.903
3.52643e-07
134.784
3.14282e-07
134.661
2.74207e-07
134.535
2.3282e-07
134.405
1.91034e-07
134.272
1.49214e-07
134.134
1.08268e-07
133.993
6.62196e-08
133.849
3.15258e-08
133.702
-1.87492e-09
133.551
-3.11181e-08
133.398
-5.78973e-08
133.242
-7.56654e-08
133.084
-9.1999e-08
132.924
-1.02305e-07
132.763
-1.08632e-07
132.6
-1.09443e-07
132.436
-1.07874e-07
132.271
-1.02015e-07
132.106
-9.68164e-08
131.939
-8.95002e-08
131.771
-8.48547e-08
131.603
-7.90155e-08
131.432
-7.80574e-08
131.261
-7.65717e-08
131.087
-8.22301e-08
130.912
-8.48086e-08
130.735
-9.63125e-08
130.556
-1.00132e-07
130.375
-1.18954e-07
130.191
-1.21578e-07
130.005
-1.47617e-07
129.817
-1.44387e-07
129.626
-1.87259e-07
129.432
-1.68742e-07
129.235
-2.56116e-07
129.035
-1.68807e-07
128.831
-3.87215e-07
128.623
-5.21175e-08
128.411
-3.72168e-07
128.194
2.57757e-06
127.973
1.59788e-05
127.747
0.000121759
127.516
0.000857097
127.28
0.00608452
127.028
0.0433812
126.658
0.344675
1.44212
125.967
11.5974
-0.000327744
11.5975
-0.000235067
11.5975
-0.000224706
11.5976
-0.0002267
11.5976
-0.000227153
11.5976
-0.000226944
11.5976
-0.00022689
11.5976
-0.000226883
11.5975
-0.000226887
11.5973
-0.000226884
11.5971
-0.000226881
11.5969
-0.000226879
11.5966
-0.000226876
11.5963
-0.000226875
11.596
-0.000226873
11.5956
-0.000226872
11.5952
-0.000226871
11.5948
-0.000226871
11.5944
-0.00022687
11.594
-0.000226845
11.5936
-0.000226909
11.5931
-0.000226866
11.5927
-0.000226879
11.5924
-0.000226885
11.592
-0.000226894
11.5917
-0.000226906
11.5914
-0.000226923
11.5912
-0.000226946
11.591
-0.000226973
11.5909
-0.000226984
11.5908
-0.000227099
11.5907
-0.000227039
11.5907
-0.000227111
11.5908
-0.000227263
11.5909
-0.000227279
11.591
-0.000227347
11.5911
-0.000227423
11.5912
-0.000227503
11.5913
-0.000227587
11.5914
-0.000227675
11.5915
-0.000227767
11.5916
-0.000227863
11.5916
-0.000227962
11.5916
-0.000228067
11.5915
-0.000228155
11.5914
-0.000228264
11.5913
-0.000228364
11.5911
-0.000228462
11.5908
-0.00022855
11.5905
-0.000228623
11.5902
-0.000228673
11.5897
-0.000228688
11.5893
-0.000228653
11.5887
-0.000228548
11.5881
-0.00022835
11.5875
-0.000228028
11.5869
-0.000227547
11.5862
-0.000226866
11.5856
-0.000225936
11.5849
-0.000224703
11.5843
-0.000223108
11.5837
-0.000221089
11.5831
-0.00021858
11.5826
-0.000215521
11.5821
-0.000211851
11.5816
-0.00020752
11.5811
-0.000202488
11.5807
-0.00019673
11.5803
-0.000190237
11.5799
-0.00018302
11.5795
-0.00017511
11.5791
-0.000166531
11.5787
-0.000157499
11.5784
-0.000147846
11.5779
-0.000137907
11.5775
-0.000127706
11.577
-0.000117383
11.5764
-0.000107069
11.5758
-9.6891e-05
11.5751
-8.69683e-05
11.5743
-7.74115e-05
11.5734
-6.83157e-05
11.5723
-5.97604e-05
11.5712
-5.1806e-05
11.57
-4.44948e-05
11.5686
-3.78503e-05
11.5671
-3.18788e-05
11.5655
-2.65713e-05
11.5638
-2.19046e-05
11.562
-1.78454e-05
11.5601
-1.43519e-05
11.5581
-1.13765e-05
11.556
-8.86851e-06
11.5539
-6.77581e-06
11.5516
-5.04708e-06
11.5494
-3.63301e-06
11.5471
-2.48775e-06
11.5447
-1.56824e-06
11.5423
-8.38891e-07
11.5399
-2.70082e-07
11.5375
1.79276e-07
11.5351
5.21452e-07
11.5326
7.80254e-07
11.5301
9.73636e-07
11.5276
1.11573e-06
11.525
1.21778e-06
11.5224
1.28868e-06
11.5197
1.3353e-06
11.5169
1.36302e-06
11.5141
1.37596e-06
11.5111
1.37723e-06
11.508
1.36922e-06
11.5048
1.35376e-06
11.5014
1.33229e-06
11.4979
1.30593e-06
11.4942
1.27561e-06
11.4903
1.24209e-06
11.4862
1.2061e-06
11.4819
1.16834e-06
11.4774
1.12948e-06
11.4727
1.09014e-06
11.4677
1.05094e-06
11.4626
1.01246e-06
11.4572
9.75342e-07
11.4516
9.40125e-07
11.4458
9.07379e-07
11.4398
8.775e-07
11.4337
8.5082e-07
11.4274
8.27524e-07
11.4209
8.07666e-07
11.4143
7.9118e-07
11.4076
7.77867e-07
11.4009
7.67424e-07
11.394
7.59399e-07
11.387
7.53254e-07
11.3799
7.48363e-07
11.3728
7.44065e-07
11.3656
7.39672e-07
11.3583
7.34684e-07
11.351
7.2852e-07
11.3435
7.20791e-07
11.3359
7.10921e-07
11.3282
6.98594e-07
11.3204
6.83538e-07
11.3125
6.65652e-07
11.3044
6.44777e-07
11.2961
6.20779e-07
11.2876
5.93631e-07
11.279
5.6327e-07
11.2701
5.29719e-07
11.2609
4.93135e-07
11.2516
4.53529e-07
11.2419
4.11228e-07
11.232
3.66512e-07
11.2218
3.19777e-07
11.2112
2.71575e-07
11.2004
2.22719e-07
11.1893
1.7393e-07
11.1778
1.26149e-07
11.1661
7.94189e-08
11.1541
3.71692e-08
11.1418
-2.01544e-09
11.1292
-3.65417e-08
11.1165
-6.65477e-08
11.1035
-8.95834e-08
11.0903
-1.07715e-07
11.077
-1.19615e-07
11.0635
-1.26229e-07
11.05
-1.27511e-07
11.0363
-1.25128e-07
11.0226
-1.19262e-07
11.0088
-1.12406e-07
10.9949
-1.04497e-07
10.9809
-9.79726e-08
10.9669
-9.22864e-08
10.9527
-9.00982e-08
10.9384
-8.98672e-08
10.9239
-9.43564e-08
10.9093
-9.97734e-08
10.8946
-1.10133e-07
10.8797
-1.19153e-07
10.8646
-1.34734e-07
10.8493
-1.4553e-07
10.8338
-1.65755e-07
10.8181
-1.76778e-07
10.8022
-2.05755e-07
10.786
-2.15217e-07
10.7696
-2.6522e-07
10.7529
-2.55948e-07
10.7359
-3.60566e-07
10.7186
-2.68599e-07
10.7009
-4.20925e-07
10.6828
5.69959e-07
10.6644
5.09308e-06
10.6457
4.12831e-05
10.627
0.000293098
10.6114
0.00209953
10.6193
0.0155805
10.7725
0.171169
0.633508
11.5606
5.79831
5.7981
5.7979
5.79768
5.79746
5.79722
5.79696
5.79669
5.7964
5.79608
5.79575
5.79539
5.79502
5.79462
5.79421
5.79379
5.79335
5.7929
5.79245
5.79199
5.79154
5.79109
5.79065
5.79022
5.7898
5.7894
5.78902
5.78866
5.78833
5.78801
5.78772
5.78745
5.78721
5.78699
5.7868
5.78661
5.78643
5.78624
5.78605
5.78586
5.78565
5.78544
5.78521
5.78496
5.78469
5.78439
5.78408
5.78374
5.78337
5.78297
5.78255
5.78209
5.7816
5.78108
5.78054
5.77999
5.77943
5.77886
5.77829
5.77774
5.77719
5.77665
5.77613
5.77563
5.77514
5.77467
5.77422
5.7738
5.77339
5.77299
5.77262
5.77225
5.7719
5.77154
5.77119
5.77083
5.77045
5.77006
5.76964
5.76918
5.7687
5.76817
5.7676
5.76698
5.76631
5.76559
5.76481
5.76398
5.76311
5.76218
5.76121
5.7602
5.75915
5.75806
5.75695
5.75581
5.75465
5.75348
5.75229
5.75109
5.74988
5.74865
5.74742
5.74617
5.74491
5.74362
5.74231
5.74097
5.73958
5.73816
5.73668
5.73514
5.73354
5.73186
5.7301
5.72825
5.72631
5.72426
5.72212
5.71986
5.71749
5.71502
5.71243
5.70974
5.70695
5.70405
5.70107
5.69799
5.69484
5.69162
5.68833
5.68499
5.68159
5.67815
5.67466
5.67114
5.66758
5.66398
5.66034
5.65665
5.65292
5.64914
5.6453
5.64139
5.63741
5.63336
5.62922
5.62499
5.62065
5.61621
5.61165
5.60696
5.60214
5.59717
5.59207
5.58681
5.58139
5.57583
5.57011
5.56424
5.55822
5.55208
5.5458
5.53941
5.53292
5.52634
5.51968
5.51296
5.50618
5.49936
5.49249
5.48559
5.47864
5.47165
5.46462
5.45753
5.45038
5.44316
5.43586
5.42848
5.42102
5.41347
5.40582
5.39807
5.39023
5.38227
5.3742
5.36599
5.35765
5.34915
5.34048
5.33163
5.3226
5.31339
5.30402
5.29471
5.28702
5.29262
5.45364
6.07691
4.64242
0.114181
4.64962
-0.00979021
4.64789
-0.000862643
4.65658
-0.0113142
4.67546
-0.0215065
4.69103
-0.0181849
4.68144
0.00704369
4.65395
0.0250739
4.69088
-0.0389947
4.88422
-0.195672
5.18171
-0.300413
5.43381
-0.255654
5.47991
-0.0504059
5.38896
0.0874919
5.2397
0.146166
5.05042
0.186219
4.87219
0.175374
4.82905
0.0408696
5.19882
-0.370847
-1.20406
6.40109
9.73935
0.157646
9.75702
-0.0325396
9.80535
-0.0542974
9.86596
-0.0770524
9.94175
-0.102436
10.0135
-0.0950611
10.0372
-0.0216523
10.0147
0.0428305
10.0931
-0.121299
10.4638
-0.570951
11.0644
-0.906901
11.6477
-0.846314
11.8752
-0.286346
11.8248
0.131507
11.6137
0.351377
11.2437
0.550416
10.773
0.640654
10.397
0.412534
10.6736
-0.649272
-2.8978
12.3635
125.968
0.108568
125.982
-0.0941195
125.919
-0.0396786
125.695
0.0985779
125.323
0.220926
124.891
0.28808
124.477
0.344202
124.132
0.338214
123.598
0.362531
122.642
0.334296
121.341
0.347042
120.127
0.320909
119.504
0.289791
119.33
0.256424
119.407
0.223553
119.714
0.191111
120.144
0.157167
120.384
0.117333
119.619
0.0585069
-0.101187
116.768
11.5014
0.164868
11.4099
-0.00548437
11.3714
-0.00405738
11.4412
0.0259251
11.6042
0.0551698
11.8141
0.0754893
12.0615
0.0932362
12.3016
0.0954145
12.5584
0.10257
12.7931
0.0972615
13.0372
0.0995762
13.2644
0.0906408
13.4726
0.0786325
13.6615
0.0644928
13.8322
0.0498926
13.9855
0.0348982
14.122
0.0177181
14.2442
-0.00784501
14.3584
-0.0585672
-0.21577
14.47
6.24041
6.23354
6.2281
6.25265
6.30647
6.3806
6.47224
6.56628
6.66737
6.76337
6.86141
6.95054
7.02771
7.09076
7.13922
7.17269
7.18898
7.17972
7.11973
6.90253
7.37761
-0.989855
7.2494
0.116777
7.18986
0.0512995
7.31676
-0.134456
7.42702
-0.119225
7.44938
-0.0313438
7.43051
0.0101564
7.41643
0.00530493
7.42201
-0.0145441
7.4269
-0.0139412
7.421
-0.00321807
7.4098
0.00203324
7.39928
0.00122661
7.39127
-0.0013724
7.3821
-0.000320779
7.37196
0.000555373
7.36216
0.000115978
7.35324
-0.000880179
7.34373
-0.000403723
7.33351
0.000223413
7.32287
0.000548139
7.31199
0.000704277
7.30142
0.000303402
7.29282
-0.00174439
7.28449
-0.00209903
7.27477
-0.000777157
7.26348
0.000710923
7.25165
0.00119353
7.23947
0.00148277
7.227
0.00169531
7.2143
0.00186245
7.20139
0.00199346
7.18834
0.00207715
7.17518
0.0021052
7.16198
0.002077
7.14878
0.00199848
7.13564
0.00188108
7.12256
0.00174019
7.10956
0.00159309
7.09664
0.00145711
7.08376
0.00134779
7.07089
0.00127746
7.05798
0.00125435
7.045
0.00128207
7.03188
0.00135975
7.0186
0.00148242
7.00511
0.00164158
6.9914
0.00182607
6.97744
0.00202318
6.96326
0.00221972
6.94884
0.00240306
6.93423
0.00256207
6.91944
0.00268785
6.90452
0.00277416
6.88951
0.00281759
6.87445
0.00281767
6.85938
0.00277661
6.84432
0.00269892
6.82932
0.0025913
6.81437
0.00246212
6.7995
0.00232039
6.78471
0.0021749
6.76998
0.00203254
6.75531
0.00190058
6.74067
0.00178557
6.72605
0.00169434
6.71141
0.00163444
6.6967
0.00161433
6.68188
0.00164272
6.66689
0.00173212
6.65165
0.00189975
6.63606
0.00216885
6.62001
0.00256713
6.60334
0.00311517
6.58592
0.00377954
6.56794
0.00426252
6.55102
0.003124
6.5422
-0.00504062
6.55011
-0.0217948
6.56106
-0.0249683
6.56017
-0.0132519
6.5445
0.00152397
6.52115
0.00918516
6.49479
0.0121283
6.46628
0.0142224
6.43589
0.0160458
6.4034
0.0180875
6.36855
0.0203962
6.33114
0.0228971
6.29108
0.0254911
6.24838
0.0280826
6.20312
0.0306165
6.15532
0.0331152
6.1049
0.0357023
6.05152
0.0386045
5.99454
0.0421127
5.93307
0.0465414
5.86597
0.0521688
5.79189
0.0591842
5.70934
0.0676623
5.61684
0.0774831
5.51324
0.0882991
5.39815
0.0995455
5.27217
0.110493
5.13675
0.120108
4.9943
0.12732
4.84822
0.131021
4.70262
0.130666
4.56171
0.126023
4.42928
0.117323
4.30841
0.105638
4.20093
0.0921624
4.10737
0.0780715
4.02733
0.0644413
3.95967
0.0520376
3.90279
0.0412133
3.85497
0.0321156
3.81453
0.0246863
3.77998
0.0187568
3.75002
0.0141102
3.72361
0.0105226
3.69988
0.00778632
3.67818
0.00572084
3.65797
0.00417555
3.63886
0.00302859
3.62055
0.00218343
3.60282
0.00156486
3.5855
0.00111503
3.56847
0.000789942
3.55163
0.000556425
3.53493
0.000389686
3.51832
0.000271335
3.50176
0.000187822
3.48523
0.000129237
3.46873
8.83769e-05
3.45223
6.00445e-05
3.43573
4.05118e-05
3.41923
2.71229e-05
3.40273
1.79964e-05
3.38622
1.18101e-05
3.36971
7.63681e-06
3.3532
4.83595e-06
3.33668
2.96344e-06
3.32016
1.71678e-06
3.30363
8.86466e-07
3.28711
3.33968e-07
3.27058
-3.66508e-08
3.25406
-2.84961e-07
3.23753
-4.5321e-07
3.221
-5.74699e-07
3.20447
-6.64601e-07
3.18794
-7.28771e-07
3.1714
-7.8646e-07
3.15487
-8.32049e-07
3.13832
-8.79008e-07
3.12178
-9.14295e-07
3.10522
-9.54951e-07
3.08866
-9.84674e-07
3.07209
-1.02701e-06
3.05552
-1.06089e-06
3.03893
-1.10797e-06
3.02233
-1.14678e-06
3.00572
-1.19046e-06
2.9891
-1.22822e-06
2.97247
-1.27291e-06
2.95582
-1.30732e-06
2.93916
-1.36308e-06
2.92249
-1.3947e-06
2.90581
-1.46075e-06
2.88911
-1.48762e-06
2.87241
-1.55889e-06
2.85569
-1.58222e-06
2.83897
-1.66365e-06
2.82223
-1.67471e-06
2.80549
-1.77601e-06
2.78874
-1.75018e-06
2.772
-1.90544e-06
2.75524
-1.79419e-06
2.73849
-2.07747e-06
2.72174
-1.79248e-06
2.705
-2.30921e-06
2.68826
-1.75053e-06
2.67153
-2.57779e-06
2.65482
-1.68791e-06
2.63812
-2.83224e-06
2.62143
-1.66368e-06
2.60477
-3.00698e-06
2.58812
-1.71853e-06
2.5715
-3.15684e-06
2.5549
-1.70092e-06
2.53833
-3.71901e-06
2.52179
-1.81097e-06
2.50528
-7.02128e-06
2.48881
-1.40386e-05
2.47243
-6.58726e-05
2.4563
-0.000292796
2.44131
-0.00139041
2.43193
-0.00696156
2.47556
-0.0599598
-0.196383
2.65569
14.2326
-2.88607
14.0969
0.229874
13.8461
0.285834
13.9603
-0.264146
14.1588
-0.33524
14.231
-0.121432
14.2
0.0236613
14.1593
0.0284263
14.1604
-0.0335872
14.1745
-0.046041
14.1723
-0.0192511
14.1555
0.0005032
14.136
0.00210925
14.1213
-0.00538405
14.1051
-0.00314217
14.0864
8.43538e-05
14.0674
-0.000186936
14.0501
-0.00319042
14.0321
-0.00227032
14.0126
-0.000279484
13.9917
0.00132523
13.9694
0.00258597
13.9469
0.00226396
13.9287
-0.00416741
13.9128
-0.00710713
13.8959
-0.00486562
13.8762
-0.000720435
13.855
0.00112586
13.8328
0.00231857
13.8097
0.00320793
13.786
0.00393116
13.7616
0.00453727
13.7367
0.00500184
13.7114
0.00530073
13.6858
0.00542738
13.6601
0.00539222
13.6342
0.00522107
13.6083
0.00495209
13.5825
0.00463048
13.5567
0.00430382
13.5309
0.00401696
13.5052
0.00380785
13.4795
0.00370477
13.4536
0.00372432
13.4276
0.00387135
13.4013
0.00413919
13.3748
0.00451094
13.3479
0.00496115
13.3206
0.00545897
13.2929
0.00597077
13.2648
0.00646357
13.2364
0.00690753
13.2076
0.00727807
13.1785
0.00755842
13.1492
0.00773909
13.1197
0.00781942
13.0901
0.00780693
13.0604
0.0077162
13.0306
0.00756918
13.0007
0.00739355
12.9707
0.00722042
12.9405
0.00708095
12.9102
0.00700176
12.8795
0.00701265
12.8484
0.00714314
12.8168
0.00742569
12.7845
0.00789784
12.7514
0.00860314
12.7171
0.00959026
12.6813
0.0109253
12.6439
0.0126964
12.6042
0.0150212
12.5617
0.0180472
12.5158
0.0219259
12.4655
0.0266875
12.4107
0.0316305
12.3534
0.0327306
12.3083
0.0122826
12.3033
-0.0444944
12.3252
-0.0748273
12.3432
-0.0594093
12.3375
-0.0210653
12.3109
0.0074299
12.2715
0.0231597
12.2222
0.0348578
12.1648
0.0447705
12.0994
0.0546114
12.0262
0.0646823
11.9452
0.0748576
11.8567
0.0848964
11.7611
0.0945396
11.6588
0.10363
11.5503
0.112221
11.4358
0.12065
11.3151
0.129537
11.1879
0.139662
11.0529
0.151835
10.9088
0.166686
10.7536
0.184505
10.5858
0.20514
10.4046
0.22797
10.2103
0.251877
10.0039
0.275312
9.78764
0.296408
9.56467
0.312975
9.33913
0.322841
9.11602
0.3244
8.90023
0.316679
8.69626
0.299849
8.50798
0.275214
8.33795
0.245128
8.1871
0.21219
8.05518
0.178918
7.94104
0.147443
7.84278
0.119079
7.75818
0.0945055
7.685
0.0738987
7.62114
0.0570589
7.56473
0.0435798
7.51419
0.0329708
7.4682
0.0247353
7.42569
0.0184158
7.38583
0.0136144
7.34794
0.00999807
7.31152
0.00729561
7.27616
0.00529073
7.24158
0.00381355
7.20756
0.00273234
7.17391
0.001946
7.14053
0.00137773
7.10733
0.000969605
7.07423
0.000678309
7.04121
0.000471679
7.00822
0.000326012
6.97524
0.000223952
6.94227
0.000152885
6.90929
0.000103703
6.87631
6.98754e-05
6.84331
4.67502e-05
6.8103
3.10404e-05
6.77728
2.04278e-05
6.74425
1.33032e-05
6.71122
8.54464e-06
6.67817
5.38608e-06
6.64513
3.29553e-06
6.61208
1.92024e-06
6.57903
1.0129e-06
6.54597
4.2397e-07
6.51292
4.15668e-08
6.47986
-2.22126e-07
6.44679
-4.05286e-07
6.41373
-5.17607e-07
6.38066
-6.11815e-07
6.34758
-6.69562e-07
6.31449
-7.31744e-07
6.2814
-7.63321e-07
6.24829
-8.12997e-07
6.21516
-8.30766e-07
6.18202
-8.81871e-07
6.14887
-8.99716e-07
6.11569
-9.51477e-07
6.08249
-9.77226e-07
6.04927
-1.02034e-06
6.01602
-1.04757e-06
5.98275
-1.09533e-06
5.94946
-1.10849e-06
5.91614
-1.18066e-06
5.88279
-1.17536e-06
5.84943
-1.27074e-06
5.81603
-1.25033e-06
5.78262
-1.35912e-06
5.74918
-1.32759e-06
5.71572
-1.45646e-06
5.68225
-1.39285e-06
5.64877
-1.57734e-06
5.61527
-1.41683e-06
5.58177
-1.75702e-06
5.54826
-1.34652e-06
5.51475
-2.05925e-06
5.48125
-1.12934e-06
5.44776
-2.51723e-06
5.41428
-8.07047e-07
5.38082
-3.039e-06
5.34738
-4.92001e-07
5.31397
-3.47509e-06
5.2806
-3.21744e-07
5.24726
-3.71895e-06
5.21396
-2.79167e-07
5.18071
-4.012e-06
5.14751
8.29375e-08
5.11437
-5.55349e-06
5.08127
7.70021e-08
5.04826
-1.50646e-05
5.01531
-3.51947e-05
4.98253
-0.000185979
4.95025
-0.000843936
4.92008
-0.00398567
4.89926
-0.0188386
4.91092
-0.10425
-0.350399
5.0324
113.581
0.113835
113.572
0.0427905
113.55
0.106308
112.962
0.117047
112.354
0.0667822
111.99
0.0342335
111.776
0.0276142
111.565
0.028091
111.291
0.0258448
111.008
0.0210569
110.753
0.017547
110.518
0.0157696
110.283
0.0144002
110.04
0.0126747
109.799
0.0108103
109.56
0.00933894
109.319
0.00820997
109.074
0.00688662
108.828
0.00575286
108.583
0.00487098
108.338
0.00419488
108.093
0.00370118
107.846
0.00330293
107.591
0.00277063
107.332
0.0020003
107.074
0.00125726
106.82
0.000609422
106.566
-2.97699e-05
106.312
-0.000750634
106.058
-0.00124923
105.804
-0.00160323
105.548
-0.00185756
105.292
-0.00202793
105.034
-0.00217161
104.775
-0.00231499
104.514
-0.00247628
104.252
-0.00266651
103.988
-0.00289112
103.723
-0.00314996
103.455
-0.00343842
103.187
-0.00374781
102.917
-0.00406637
102.646
-0.00438068
102.373
-0.00467635
102.1
-0.00494022
101.827
-0.00516049
101.552
-0.00532891
101.277
-0.0054396
101.002
-0.00549111
100.726
-0.00548442
100.45
-0.00542385
100.173
-0.00531529
99.8947
-0.005166
99.6158
-0.00498383
99.3357
-0.00477608
99.0543
-0.00455025
98.7713
-0.00431192
98.4866
-0.00406543
98.1999
-0.003814
97.9113
-0.00356049
97.6206
-0.00332271
97.3278
-0.00312702
97.0331
-0.00298808
96.7364
-0.00290006
96.4379
-0.00284894
96.1376
-0.00282538
95.8358
-0.00282243
95.5327
-0.00283434
95.2287
-0.00287698
94.9241
-0.00287172
94.6193
-0.00281967
94.3148
-0.00272068
94.0111
-0.00243721
93.7093
-0.00208456
93.4105
-0.00151595
93.1152
-0.000860175
92.82
-0.000680727
92.5052
-0.00260526
92.1426
-0.0118529
91.7629
-0.0247348
91.4071
-0.0362319
91.0946
-0.043888
90.8146
-0.0498812
90.556
-0.0575268
90.3176
-0.0682349
90.1015
-0.0826838
89.912
-0.101106
89.7536
-0.123568
89.6302
-0.149899
89.5453
-0.179555
89.5007
-0.211491
89.4967
-0.244068
89.5312
-0.275084
89.6001
-0.301964
89.6973
-0.322239
89.8159
-0.33435
89.9491
-0.337715
90.0917
-0.333148
90.2406
-0.322411
90.3945
-0.307571
90.5532
-0.2904
90.7163
-0.271627
90.8819
-0.25159
91.0464
-0.230192
91.2037
-0.207419
91.3463
-0.183808
91.4654
-0.159895
91.5522
-0.136382
91.5989
-0.11424
91.5999
-0.0942901
91.5524
-0.0770203
91.4564
-0.06243
91.3138
-0.0503351
91.1288
-0.0404074
90.9061