/*--------------------------------*- C++ -*----------------------------------*\
| =========                 |                                                 |
| \\      /  F ield         | OpenFOAM: The Open Source CFD Toolbox           |
|  \\    /   O peration     | Version:  3.0.x                                 |
|   \\  /    A nd           | Web:      www.OpenFOAM.org                      |
|    \\/     M anipulation  |                                                 |
\*---------------------------------------------------------------------------*/
FoamFile
{
    version     2.0;
    format      ascii;
    class       volScalarField;
    location    "0.53";
    object      rho;
}
// * * * * * * * * * * * * * * * * * * * * * * * * * * * * * * * * * * * * * //

dimensions      [1 -3 0 0 0 0 0];

internalField   nonuniform List<scalar> 
27600
(
51.1493
51.1508
51.1531
51.1553
51.1573
51.1592
51.1609
51.1626
51.1642
51.1657
51.167
51.1684
51.1696
51.1708
51.1719
51.1731
51.1742
51.1753
51.1765
51.1776
51.1788
51.18
51.1812
51.1824
51.1837
51.185
51.1864
51.1878
51.1892
51.1907
51.1922
51.1937
51.1953
51.1969
51.1985
51.2002
51.2019
51.2037
51.2054
51.2073
51.2091
51.211
51.2129
51.2149
51.2169
51.2189
51.221
51.2231
51.2252
51.2274
51.2296
51.2319
51.2341
51.2364
51.2388
51.2412
51.2436
51.246
51.2485
51.2511
51.2536
51.2562
51.2588
51.2615
51.2642
51.2669
51.2697
51.2725
51.2753
51.2782
51.2811
51.284
51.287
51.29
51.293
51.2961
51.2992
51.3024
51.3055
51.3087
51.312
51.3152
51.3186
51.3219
51.3253
51.3287
51.3321
51.3356
51.3391
51.3426
51.3461
51.3497
51.3533
51.3569
51.3606
51.3643
51.3681
51.3719
51.3757
51.3796
51.3835
51.3875
51.3915
51.3955
51.3995
51.4036
51.4077
51.4119
51.416
51.4202
51.4244
51.4286
51.4328
51.4371
51.4414
51.4457
51.4501
51.4545
51.4589
51.4634
51.4679
51.4725
51.477
51.4816
51.4863
51.4909
51.4956
51.5003
51.505
51.5098
51.5146
51.5195
51.5244
51.5293
51.5342
51.5392
51.5442
51.5492
51.5542
51.5593
51.5644
51.5695
51.5746
51.5797
51.5849
51.59
51.5952
51.6005
51.6057
51.611
51.6163
51.6217
51.6271
51.6325
51.638
51.6434
51.6489
51.6545
51.66
51.6656
51.6712
51.6768
51.6824
51.6881
51.6937
51.6994
51.7051
51.7109
51.7166
51.7224
51.7282
51.734
51.7399
51.7457
51.7516
51.7575
51.7634
51.7693
51.7753
51.7813
51.7873
51.7933
51.7993
51.8054
51.8114
51.8175
51.8236
51.8298
51.8359
51.8421
51.8482
51.8544
51.8606
51.8669
51.8731
51.8794
51.8856
51.8919
51.8982
51.9046
51.9109
51.9172
51.9236
51.93
51.9364
51.9428
51.9492
51.9556
51.9621
51.9685
51.975
51.9815
51.988
51.9945
52.001
52.0076
52.0141
52.0207
52.0272
52.0338
52.0404
52.047
52.0536
52.0602
52.0668
52.0735
52.0801
52.0867
52.0934
52.1001
52.1067
52.1134
52.1201
52.1268
52.1335
52.1402
52.1469
52.1537
52.1604
52.1671
52.1739
52.1806
52.1873
52.1941
52.2009
52.2076
52.2144
52.2211
52.2279
52.2347
52.2415
52.2483
52.255
52.2618
52.2686
52.2754
52.2822
52.289
52.2958
52.3026
52.3094
52.3162
52.323
52.3298
52.3366
52.3434
52.3502
52.357
52.3637
52.3705
52.3773
52.3841
52.3909
52.3977
52.4045
52.4113
52.418
52.4248
52.4316
52.4383
52.4451
52.4519
52.4586
52.4654
52.4721
52.4789
52.4856
52.4923
52.4991
52.5058
52.5125
52.5192
52.5259
52.5326
52.5393
52.546
52.5527
52.5593
52.566
52.5727
52.5793
52.5859
52.5926
52.5992
52.6058
52.6124
52.619
52.6256
52.6322
52.6388
52.6453
52.6519
52.6584
52.665
52.6715
52.678
52.6845
52.691
52.6975
52.704
52.7104
52.7169
52.7233
52.7297
52.7362
52.7426
52.749
52.7553
52.7617
52.7681
52.7744
52.7807
52.7871
52.7934
52.7997
52.8059
52.8122
52.8185
52.8247
52.8309
52.8371
52.8433
52.8495
52.8557
52.8618
52.868
52.8741
52.8802
52.8863
52.8924
52.8985
52.9045
52.9106
52.9166
52.9226
52.9286
52.9346
52.9405
52.9465
52.9524
52.9583
52.9642
52.9701
52.976
52.9818
52.9876
52.9935
52.9992
53.005
53.0108
53.0166
53.0222
53.028
53.0336
53.0394
53.0449
53.0507
53.0562
53.062
53.0674
53.0732
53.0785
53.0843
53.0895
53.0953
53.1005
53.1063
53.1114
53.1172
53.1222
53.128
53.133
53.1387
53.1436
53.1493
53.1543
53.1599
53.1648
53.1704
53.1748
51.1499
51.1514
51.1537
51.1558
51.1579
51.1597
51.1615
51.1632
51.1647
51.1662
51.1676
51.1689
51.1702
51.1713
51.1725
51.1736
51.1748
51.1759
51.177
51.1781
51.1793
51.1805
51.1817
51.183
51.1843
51.1856
51.1869
51.1883
51.1897
51.1912
51.1927
51.1942
51.1958
51.1974
51.199
51.2007
51.2024
51.2042
51.206
51.2078
51.2096
51.2115
51.2134
51.2154
51.2174
51.2194
51.2215
51.2236
51.2257
51.2279
51.2301
51.2324
51.2346
51.2369
51.2393
51.2417
51.2441
51.2465
51.249
51.2516
51.2541
51.2567
51.2593
51.262
51.2647
51.2674
51.2702
51.273
51.2758
51.2787
51.2816
51.2845
51.2875
51.2905
51.2935
51.2966
51.2997
51.3028
51.306
51.3092
51.3125
51.3157
51.319
51.3224
51.3257
51.3292
51.3326
51.3361
51.3395
51.3431
51.3466
51.3502
51.3538
51.3574
51.3611
51.3648
51.3685
51.3723
51.3762
51.3801
51.384
51.3879
51.3919
51.3959
51.4
51.4041
51.4082
51.4123
51.4165
51.4206
51.4248
51.429
51.4333
51.4375
51.4418
51.4462
51.4505
51.4549
51.4594
51.4638
51.4683
51.4729
51.4774
51.482
51.4867
51.4913
51.496
51.5007
51.5054
51.5102
51.515
51.5199
51.5248
51.5297
51.5346
51.5396
51.5446
51.5496
51.5546
51.5597
51.5648
51.5699
51.575
51.5801
51.5853
51.5905
51.5957
51.6009
51.6061
51.6114
51.6167
51.6221
51.6275
51.6329
51.6383
51.6438
51.6493
51.6548
51.6604
51.666
51.6715
51.6772
51.6828
51.6884
51.6941
51.6998
51.7055
51.7112
51.717
51.7228
51.7286
51.7344
51.7402
51.7461
51.7519
51.7578
51.7637
51.7697
51.7756
51.7816
51.7876
51.7936
51.7997
51.8057
51.8118
51.8179
51.824
51.8301
51.8362
51.8424
51.8486
51.8548
51.861
51.8672
51.8735
51.8797
51.886
51.8923
51.8986
51.9049
51.9112
51.9176
51.924
51.9303
51.9367
51.9431
51.9496
51.956
51.9624
51.9689
51.9754
51.9819
51.9884
51.9949
52.0014
52.0079
52.0145
52.021
52.0276
52.0342
52.0407
52.0473
52.0539
52.0606
52.0672
52.0738
52.0804
52.0871
52.0938
52.1004
52.1071
52.1138
52.1205
52.1272
52.1339
52.1406
52.1473
52.154
52.1607
52.1675
52.1742
52.1809
52.1877
52.1944
52.2012
52.208
52.2147
52.2215
52.2283
52.235
52.2418
52.2486
52.2554
52.2622
52.269
52.2758
52.2825
52.2893
52.2961
52.3029
52.3097
52.3165
52.3233
52.3301
52.3369
52.3437
52.3505
52.3573
52.3641
52.3709
52.3777
52.3845
52.3913
52.398
52.4048
52.4116
52.4184
52.4252
52.4319
52.4387
52.4455
52.4522
52.459
52.4657
52.4725
52.4792
52.4859
52.4927
52.4994
52.5061
52.5128
52.5196
52.5263
52.533
52.5396
52.5463
52.553
52.5597
52.5663
52.573
52.5796
52.5863
52.5929
52.5995
52.6062
52.6128
52.6194
52.626
52.6325
52.6391
52.6457
52.6522
52.6588
52.6653
52.6718
52.6784
52.6849
52.6914
52.6978
52.7043
52.7108
52.7172
52.7237
52.7301
52.7365
52.7429
52.7493
52.7557
52.762
52.7684
52.7747
52.7811
52.7874
52.7937
52.8
52.8063
52.8125
52.8188
52.825
52.8313
52.8375
52.8437
52.8499
52.856
52.8622
52.8683
52.8745
52.8806
52.8867
52.8927
52.8988
52.9049
52.9109
52.9169
52.9229
52.9289
52.9349
52.9409
52.9468
52.9527
52.9587
52.9645
52.9704
52.9763
52.9821
52.988
52.9938
52.9996
53.0054
53.0111
53.0169
53.0226
53.0284
53.034
53.0398
53.0453
53.0511
53.0565
53.0623
53.0677
53.0735
53.0788
53.0846
53.0899
53.0957
53.1008
53.1066
53.1117
53.1175
53.1225
53.1283
53.1333
53.139
53.144
53.1497
53.1546
53.1602
53.1651
53.1707
53.1754
51.1499
51.1514
51.1537
51.1558
51.1579
51.1597
51.1615
51.1632
51.1647
51.1662
51.1676
51.1689
51.1702
51.1713
51.1725
51.1736
51.1748
51.1759
51.177
51.1781
51.1793
51.1805
51.1817
51.183
51.1842
51.1856
51.1869
51.1883
51.1897
51.1912
51.1927
51.1942
51.1958
51.1974
51.199
51.2007
51.2024
51.2042
51.206
51.2078
51.2096
51.2115
51.2134
51.2154
51.2174
51.2194
51.2215
51.2236
51.2257
51.2279
51.2301
51.2324
51.2346
51.2369
51.2393
51.2417
51.2441
51.2465
51.249
51.2516
51.2541
51.2567
51.2593
51.262
51.2647
51.2674
51.2702
51.273
51.2758
51.2787
51.2816
51.2845
51.2875
51.2905
51.2935
51.2966
51.2997
51.3028
51.306
51.3092
51.3125
51.3157
51.319
51.3224
51.3257
51.3292
51.3326
51.3361
51.3395
51.3431
51.3466
51.3502
51.3538
51.3574
51.3611
51.3648
51.3685
51.3723
51.3762
51.3801
51.384
51.3879
51.3919
51.3959
51.4
51.4041
51.4082
51.4123
51.4165
51.4206
51.4248
51.429
51.4333
51.4375
51.4418
51.4462
51.4505
51.4549
51.4594
51.4638
51.4683
51.4729
51.4774
51.482
51.4867
51.4913
51.496
51.5007
51.5054
51.5102
51.515
51.5199
51.5248
51.5297
51.5346
51.5396
51.5446
51.5496
51.5546
51.5597
51.5648
51.5699
51.575
51.5801
51.5853
51.5905
51.5957
51.6009
51.6061
51.6114
51.6167
51.6221
51.6275
51.6329
51.6383
51.6438
51.6493
51.6548
51.6604
51.666
51.6715
51.6772
51.6828
51.6884
51.6941
51.6998
51.7055
51.7112
51.717
51.7228
51.7286
51.7344
51.7402
51.7461
51.7519
51.7578
51.7637
51.7697
51.7756
51.7816
51.7876
51.7936
51.7997
51.8057
51.8118
51.8179
51.824
51.8301
51.8362
51.8424
51.8486
51.8548
51.861
51.8672
51.8735
51.8797
51.886
51.8923
51.8986
51.9049
51.9112
51.9176
51.924
51.9303
51.9367
51.9431
51.9496
51.956
51.9624
51.9689
51.9754
51.9819
51.9884
51.9949
52.0014
52.0079
52.0145
52.021
52.0276
52.0342
52.0407
52.0473
52.0539
52.0606
52.0672
52.0738
52.0804
52.0871
52.0938
52.1004
52.1071
52.1138
52.1205
52.1272
52.1339
52.1406
52.1473
52.154
52.1607
52.1675
52.1742
52.1809
52.1877
52.1944
52.2012
52.208
52.2147
52.2215
52.2283
52.235
52.2418
52.2486
52.2554
52.2622
52.269
52.2758
52.2826
52.2893
52.2961
52.3029
52.3097
52.3165
52.3233
52.3301
52.3369
52.3437
52.3505
52.3573
52.3641
52.3709
52.3777
52.3845
52.3913
52.398
52.4048
52.4116
52.4184
52.4252
52.4319
52.4387
52.4455
52.4522
52.459
52.4657
52.4725
52.4792
52.4859
52.4927
52.4994
52.5061
52.5128
52.5196
52.5263
52.533
52.5396
52.5463
52.553
52.5597
52.5663
52.573
52.5796
52.5863
52.5929
52.5995
52.6062
52.6128
52.6194
52.626
52.6325
52.6391
52.6457
52.6522
52.6588
52.6653
52.6718
52.6784
52.6849
52.6914
52.6978
52.7043
52.7108
52.7172
52.7237
52.7301
52.7365
52.7429
52.7493
52.7557
52.762
52.7684
52.7747
52.7811
52.7874
52.7937
52.8
52.8063
52.8125
52.8188
52.825
52.8313
52.8375
52.8437
52.8499
52.856
52.8622
52.8683
52.8745
52.8806
52.8867
52.8928
52.8988
52.9049
52.9109
52.9169
52.9229
52.9289
52.9349
52.9409
52.9468
52.9527
52.9587
52.9646
52.9704
52.9763
52.9821
52.988
52.9938
52.9996
53.0054
53.0111
53.0169
53.0226
53.0284
53.034
53.0398
53.0453
53.0511
53.0565
53.0623
53.0677
53.0735
53.0788
53.0846
53.0899
53.0957
53.1008
53.1066
53.1117
53.1175
53.1225
53.1283
53.1333
53.139
53.144
53.1497
53.1546
53.1602
53.1651
53.1707
53.1754
51.1499
51.1514
51.1537
51.1558
51.1578
51.1597
51.1615
51.1632
51.1647
51.1662
51.1676
51.1689
51.1702
51.1713
51.1724
51.1736
51.1747
51.1759
51.177
51.1781
51.1793
51.1805
51.1817
51.183
51.1842
51.1856
51.1869
51.1883
51.1897
51.1912
51.1927
51.1942
51.1958
51.1974
51.199
51.2007
51.2024
51.2042
51.2059
51.2078
51.2096
51.2115
51.2134
51.2154
51.2174
51.2194
51.2215
51.2236
51.2257
51.2279
51.2301
51.2323
51.2346
51.2369
51.2393
51.2417
51.2441
51.2465
51.249
51.2515
51.2541
51.2567
51.2593
51.262
51.2647
51.2674
51.2702
51.273
51.2758
51.2787
51.2816
51.2845
51.2875
51.2905
51.2935
51.2966
51.2997
51.3028
51.306
51.3092
51.3124
51.3157
51.319
51.3224
51.3257
51.3291
51.3326
51.3361
51.3395
51.343
51.3466
51.3502
51.3538
51.3574
51.3611
51.3648
51.3685
51.3723
51.3762
51.3801
51.384
51.3879
51.3919
51.3959
51.4
51.4041
51.4082
51.4123
51.4164
51.4206
51.4248
51.429
51.4333
51.4375
51.4418
51.4462
51.4505
51.4549
51.4594
51.4638
51.4683
51.4729
51.4774
51.482
51.4867
51.4913
51.496
51.5007
51.5054
51.5102
51.515
51.5199
51.5248
51.5297
51.5346
51.5396
51.5446
51.5496
51.5546
51.5597
51.5648
51.5699
51.575
51.5801
51.5853
51.5905
51.5957
51.6009
51.6061
51.6114
51.6167
51.6221
51.6275
51.6329
51.6383
51.6438
51.6493
51.6548
51.6604
51.666
51.6715
51.6772
51.6828
51.6884
51.6941
51.6998
51.7055
51.7112
51.717
51.7228
51.7286
51.7344
51.7402
51.7461
51.7519
51.7578
51.7637
51.7697
51.7756
51.7816
51.7876
51.7936
51.7997
51.8057
51.8118
51.8179
51.824
51.8301
51.8362
51.8424
51.8486
51.8548
51.861
51.8672
51.8735
51.8797
51.886
51.8923
51.8986
51.9049
51.9112
51.9176
51.924
51.9303
51.9367
51.9431
51.9496
51.956
51.9624
51.9689
51.9754
51.9819
51.9884
51.9949
52.0014
52.0079
52.0145
52.021
52.0276
52.0342
52.0407
52.0473
52.0539
52.0606
52.0672
52.0738
52.0804
52.0871
52.0938
52.1004
52.1071
52.1138
52.1205
52.1272
52.1339
52.1406
52.1473
52.154
52.1607
52.1675
52.1742
52.1809
52.1877
52.1944
52.2012
52.208
52.2147
52.2215
52.2283
52.235
52.2418
52.2486
52.2554
52.2622
52.269
52.2758
52.2826
52.2893
52.2961
52.3029
52.3097
52.3165
52.3233
52.3301
52.3369
52.3437
52.3505
52.3573
52.3641
52.3709
52.3777
52.3845
52.3913
52.398
52.4048
52.4116
52.4184
52.4252
52.4319
52.4387
52.4455
52.4522
52.459
52.4657
52.4725
52.4792
52.4859
52.4927
52.4994
52.5061
52.5128
52.5196
52.5263
52.533
52.5396
52.5463
52.553
52.5597
52.5663
52.573
52.5796
52.5863
52.5929
52.5995
52.6062
52.6128
52.6194
52.626
52.6325
52.6391
52.6457
52.6522
52.6588
52.6653
52.6718
52.6784
52.6849
52.6914
52.6978
52.7043
52.7108
52.7172
52.7237
52.7301
52.7365
52.7429
52.7493
52.7557
52.762
52.7684
52.7747
52.7811
52.7874
52.7937
52.8
52.8063
52.8125
52.8188
52.825
52.8313
52.8375
52.8437
52.8499
52.856
52.8622
52.8683
52.8745
52.8806
52.8867
52.8928
52.8988
52.9049
52.9109
52.9169
52.9229
52.9289
52.9349
52.9409
52.9468
52.9527
52.9587
52.9646
52.9704
52.9763
52.9821
52.988
52.9938
52.9996
53.0054
53.0111
53.0169
53.0226
53.0284
53.034
53.0398
53.0453
53.0511
53.0565
53.0623
53.0677
53.0735
53.0788
53.0846
53.0899
53.0957
53.1008
53.1066
53.1117
53.1175
53.1225
53.1283
53.1333
53.139
53.144
53.1497
53.1546
53.1602
53.1652
53.1706
53.1755
51.1499
51.1514
51.1537
51.1558
51.1578
51.1597
51.1615
51.1631
51.1647
51.1662
51.1676
51.1689
51.1701
51.1713
51.1724
51.1736
51.1747
51.1759
51.177
51.1781
51.1793
51.1805
51.1817
51.1829
51.1842
51.1855
51.1869
51.1883
51.1897
51.1912
51.1927
51.1942
51.1958
51.1974
51.199
51.2007
51.2024
51.2042
51.2059
51.2078
51.2096
51.2115
51.2134
51.2154
51.2174
51.2194
51.2215
51.2236
51.2257
51.2279
51.2301
51.2323
51.2346
51.2369
51.2393
51.2417
51.2441
51.2465
51.249
51.2515
51.2541
51.2567
51.2593
51.262
51.2647
51.2674
51.2702
51.273
51.2758
51.2787
51.2816
51.2845
51.2875
51.2905
51.2935
51.2966
51.2997
51.3028
51.306
51.3092
51.3124
51.3157
51.319
51.3224
51.3257
51.3291
51.3326
51.336
51.3395
51.343
51.3466
51.3502
51.3538
51.3574
51.3611
51.3648
51.3685
51.3723
51.3762
51.3801
51.384
51.3879
51.3919
51.3959
51.4
51.4041
51.4082
51.4123
51.4164
51.4206
51.4248
51.429
51.4333
51.4375
51.4418
51.4462
51.4505
51.4549
51.4594
51.4638
51.4683
51.4729
51.4774
51.482
51.4867
51.4913
51.496
51.5007
51.5054
51.5102
51.515
51.5199
51.5248
51.5297
51.5346
51.5396
51.5446
51.5496
51.5546
51.5597
51.5648
51.5699
51.575
51.5801
51.5853
51.5904
51.5956
51.6009
51.6061
51.6114
51.6167
51.6221
51.6275
51.6329
51.6383
51.6438
51.6493
51.6548
51.6604
51.666
51.6715
51.6772
51.6828
51.6884
51.6941
51.6998
51.7055
51.7112
51.717
51.7228
51.7286
51.7344
51.7402
51.7461
51.7519
51.7578
51.7637
51.7697
51.7756
51.7816
51.7876
51.7936
51.7997
51.8057
51.8118
51.8179
51.824
51.8301
51.8362
51.8424
51.8486
51.8548
51.861
51.8672
51.8735
51.8797
51.886
51.8923
51.8986
51.9049
51.9112
51.9176
51.924
51.9303
51.9367
51.9431
51.9496
51.956
51.9624
51.9689
51.9754
51.9819
51.9884
51.9949
52.0014
52.0079
52.0145
52.021
52.0276
52.0342
52.0407
52.0473
52.0539
52.0606
52.0672
52.0738
52.0804
52.0871
52.0938
52.1004
52.1071
52.1138
52.1205
52.1272
52.1339
52.1406
52.1473
52.154
52.1607
52.1675
52.1742
52.1809
52.1877
52.1944
52.2012
52.208
52.2147
52.2215
52.2283
52.235
52.2418
52.2486
52.2554
52.2622
52.269
52.2758
52.2826
52.2893
52.2961
52.3029
52.3097
52.3165
52.3233
52.3301
52.3369
52.3437
52.3505
52.3573
52.3641
52.3709
52.3777
52.3845
52.3913
52.398
52.4048
52.4116
52.4184
52.4252
52.4319
52.4387
52.4455
52.4522
52.459
52.4657
52.4725
52.4792
52.4859
52.4927
52.4994
52.5061
52.5128
52.5196
52.5263
52.533
52.5396
52.5463
52.553
52.5597
52.5663
52.573
52.5796
52.5863
52.5929
52.5995
52.6062
52.6128
52.6194
52.626
52.6325
52.6391
52.6457
52.6522
52.6588
52.6653
52.6718
52.6784
52.6849
52.6914
52.6978
52.7043
52.7108
52.7172
52.7237
52.7301
52.7365
52.7429
52.7493
52.7557
52.762
52.7684
52.7747
52.7811
52.7874
52.7937
52.8
52.8063
52.8125
52.8188
52.825
52.8313
52.8375
52.8437
52.8499
52.856
52.8622
52.8683
52.8745
52.8806
52.8867
52.8928
52.8988
52.9049
52.9109
52.9169
52.9229
52.9289
52.9349
52.9409
52.9468
52.9527
52.9587
52.9645
52.9704
52.9763
52.9821
52.988
52.9938
52.9996
53.0054
53.0111
53.0169
53.0226
53.0284
53.034
53.0398
53.0453
53.0511
53.0565
53.0623
53.0677
53.0735
53.0788
53.0846
53.0899
53.0957
53.1008
53.1066
53.1117
53.1175
53.1225
53.1283
53.1333
53.139
53.144
53.1497
53.1546
53.1602
53.1651
53.1707
53.1756
51.1499
51.1514
51.1537
51.1558
51.1578
51.1597
51.1615
51.1631
51.1647
51.1662
51.1676
51.1689
51.1701
51.1713
51.1724
51.1736
51.1747
51.1759
51.177
51.1781
51.1793
51.1805
51.1817
51.1829
51.1842
51.1855
51.1869
51.1883
51.1897
51.1912
51.1927
51.1942
51.1958
51.1974
51.199
51.2007
51.2024
51.2042
51.2059
51.2078
51.2096
51.2115
51.2134
51.2154
51.2174
51.2194
51.2215
51.2236
51.2257
51.2279
51.2301
51.2323
51.2346
51.2369
51.2393
51.2417
51.2441
51.2465
51.249
51.2515
51.2541
51.2567
51.2593
51.262
51.2647
51.2674
51.2702
51.273
51.2758
51.2787
51.2816
51.2845
51.2875
51.2905
51.2935
51.2966
51.2997
51.3028
51.306
51.3092
51.3124
51.3157
51.319
51.3224
51.3257
51.3291
51.3326
51.336
51.3395
51.343
51.3466
51.3502
51.3538
51.3574
51.3611
51.3648
51.3685
51.3723
51.3762
51.3801
51.384
51.3879
51.3919
51.3959
51.4
51.4041
51.4082
51.4123
51.4164
51.4206
51.4248
51.429
51.4333
51.4375
51.4418
51.4462
51.4505
51.4549
51.4594
51.4638
51.4683
51.4729
51.4774
51.482
51.4867
51.4913
51.496
51.5007
51.5054
51.5102
51.515
51.5199
51.5248
51.5297
51.5346
51.5396
51.5446
51.5496
51.5546
51.5597
51.5648
51.5699
51.575
51.5801
51.5853
51.5904
51.5956
51.6009
51.6061
51.6114
51.6167
51.6221
51.6275
51.6329
51.6383
51.6438
51.6493
51.6548
51.6604
51.666
51.6715
51.6772
51.6828
51.6884
51.6941
51.6998
51.7055
51.7112
51.717
51.7228
51.7286
51.7344
51.7402
51.7461
51.7519
51.7578
51.7637
51.7697
51.7756
51.7816
51.7876
51.7936
51.7997
51.8057
51.8118
51.8179
51.824
51.8301
51.8362
51.8424
51.8486
51.8548
51.861
51.8672
51.8735
51.8797
51.886
51.8923
51.8986
51.9049
51.9112
51.9176
51.924
51.9303
51.9367
51.9431
51.9496
51.956
51.9624
51.9689
51.9754
51.9819
51.9884
51.9949
52.0014
52.0079
52.0145
52.021
52.0276
52.0342
52.0407
52.0473
52.0539
52.0606
52.0672
52.0738
52.0804
52.0871
52.0938
52.1004
52.1071
52.1138
52.1205
52.1272
52.1339
52.1406
52.1473
52.154
52.1607
52.1675
52.1742
52.1809
52.1877
52.1944
52.2012
52.208
52.2147
52.2215
52.2283
52.235
52.2418
52.2486
52.2554
52.2622
52.269
52.2758
52.2826
52.2893
52.2961
52.3029
52.3097
52.3165
52.3233
52.3301
52.3369
52.3437
52.3505
52.3573
52.3641
52.3709
52.3777
52.3845
52.3913
52.398
52.4048
52.4116
52.4184
52.4252
52.4319
52.4387
52.4455
52.4522
52.459
52.4657
52.4725
52.4792
52.4859
52.4927
52.4994
52.5061
52.5128
52.5196
52.5263
52.533
52.5396
52.5463
52.553
52.5597
52.5663
52.573
52.5796
52.5863
52.5929
52.5995
52.6062
52.6128
52.6194
52.626
52.6325
52.6391
52.6457
52.6522
52.6588
52.6653
52.6718
52.6784
52.6849
52.6914
52.6978
52.7043
52.7108
52.7172
52.7237
52.7301
52.7365
52.7429
52.7493
52.7557
52.762
52.7684
52.7747
52.7811
52.7874
52.7937
52.8
52.8063
52.8125
52.8188
52.825
52.8313
52.8375
52.8437
52.8499
52.856
52.8622
52.8683
52.8745
52.8806
52.8867
52.8928
52.8988
52.9049
52.9109
52.9169
52.9229
52.9289
52.9349
52.9409
52.9468
52.9527
52.9587
52.9646
52.9704
52.9763
52.9821
52.988
52.9938
52.9996
53.0054
53.0111
53.0169
53.0226
53.0283
53.034
53.0397
53.0453
53.051
53.0566
53.0623
53.0678
53.0734
53.079
53.0844
53.0901
53.0955
53.101
53.1065
53.1119
53.1174
53.1227
53.1281
53.1335
53.1387
53.1443
53.1493
53.1549
53.16
53.1654
53.1704
53.1758
51.1499
51.1514
51.1537
51.1558
51.1578
51.1597
51.1615
51.1632
51.1647
51.1662
51.1676
51.1689
51.1702
51.1713
51.1724
51.1736
51.1747
51.1759
51.177
51.1781
51.1793
51.1805
51.1817
51.183
51.1842
51.1856
51.1869
51.1883
51.1897
51.1912
51.1927
51.1942
51.1958
51.1974
51.199
51.2007
51.2024
51.2042
51.2059
51.2078
51.2096
51.2115
51.2134
51.2154
51.2174
51.2194
51.2215
51.2236
51.2257
51.2279
51.2301
51.2323
51.2346
51.2369
51.2393
51.2417
51.2441
51.2465
51.249
51.2515
51.2541
51.2567
51.2593
51.262
51.2647
51.2674
51.2702
51.273
51.2758
51.2787
51.2816
51.2845
51.2875
51.2905
51.2935
51.2966
51.2997
51.3028
51.306
51.3092
51.3124
51.3157
51.319
51.3224
51.3257
51.3291
51.3326
51.3361
51.3395
51.343
51.3466
51.3502
51.3538
51.3574
51.3611
51.3648
51.3685
51.3723
51.3762
51.3801
51.384
51.3879
51.3919
51.3959
51.4
51.4041
51.4082
51.4123
51.4164
51.4206
51.4248
51.429
51.4333
51.4375
51.4418
51.4462
51.4505
51.4549
51.4594
51.4638
51.4683
51.4729
51.4774
51.482
51.4867
51.4913
51.496
51.5007
51.5054
51.5102
51.515
51.5199
51.5248
51.5297
51.5346
51.5396
51.5446
51.5496
51.5546
51.5597
51.5648
51.5699
51.575
51.5801
51.5853
51.5905
51.5957
51.6009
51.6061
51.6114
51.6167
51.6221
51.6275
51.6329
51.6383
51.6438
51.6493
51.6548
51.6604
51.666
51.6715
51.6772
51.6828
51.6884
51.6941
51.6998
51.7055
51.7112
51.717
51.7228
51.7286
51.7344
51.7402
51.7461
51.7519
51.7578
51.7637
51.7697
51.7756
51.7816
51.7876
51.7936
51.7997
51.8057
51.8118
51.8179
51.824
51.8301
51.8362
51.8424
51.8486
51.8548
51.861
51.8672
51.8735
51.8797
51.886
51.8923
51.8986
51.9049
51.9112
51.9176
51.924
51.9303
51.9367
51.9431
51.9496
51.956
51.9624
51.9689
51.9754
51.9819
51.9884
51.9949
52.0014
52.0079
52.0145
52.021
52.0276
52.0342
52.0407
52.0473
52.0539
52.0606
52.0672
52.0738
52.0804
52.0871
52.0938
52.1004
52.1071
52.1138
52.1205
52.1272
52.1339
52.1406
52.1473
52.154
52.1607
52.1675
52.1742
52.1809
52.1877
52.1944
52.2012
52.208
52.2147
52.2215
52.2283
52.235
52.2418
52.2486
52.2554
52.2622
52.269
52.2758
52.2826
52.2893
52.2961
52.3029
52.3097
52.3165
52.3233
52.3301
52.3369
52.3437
52.3505
52.3573
52.3641
52.3709
52.3777
52.3845
52.3913
52.398
52.4048
52.4116
52.4184
52.4252
52.4319
52.4387
52.4455
52.4522
52.459
52.4657
52.4725
52.4792
52.4859
52.4927
52.4994
52.5061
52.5128
52.5196
52.5263
52.533
52.5396
52.5463
52.553
52.5597
52.5663
52.573
52.5796
52.5863
52.5929
52.5995
52.6062
52.6128
52.6194
52.626
52.6325
52.6391
52.6457
52.6522
52.6588
52.6653
52.6718
52.6784
52.6849
52.6914
52.6978
52.7043
52.7108
52.7172
52.7237
52.7301
52.7365
52.7429
52.7493
52.7557
52.762
52.7684
52.7747
52.7811
52.7874
52.7937
52.8
52.8063
52.8125
52.8188
52.825
52.8313
52.8375
52.8437
52.8499
52.856
52.8622
52.8683
52.8745
52.8806
52.8867
52.8928
52.8988
52.9049
52.9109
52.9169
52.9229
52.9289
52.9349
52.9409
52.9468
52.9527
52.9587
52.9646
52.9704
52.9763
52.9821
52.988
52.9938
52.9996
53.0054
53.0111
53.0169
53.0226
53.0283
53.034
53.0397
53.0454
53.051
53.0567
53.0622
53.0679
53.0734
53.079
53.0845
53.0899
53.0956
53.1009
53.1065
53.1119
53.1172
53.1229
53.1279
53.1337
53.1386
53.1444
53.1493
53.1549
53.16
53.1654
53.1705
53.176
51.1499
51.1514
51.1537
51.1558
51.1579
51.1597
51.1615
51.1632
51.1647
51.1662
51.1676
51.1689
51.1702
51.1713
51.1725
51.1736
51.1748
51.1759
51.177
51.1781
51.1793
51.1805
51.1817
51.183
51.1842
51.1856
51.1869
51.1883
51.1897
51.1912
51.1927
51.1942
51.1958
51.1974
51.199
51.2007
51.2024
51.2042
51.206
51.2078
51.2096
51.2115
51.2134
51.2154
51.2174
51.2194
51.2215
51.2236
51.2257
51.2279
51.2301
51.2324
51.2346
51.2369
51.2393
51.2417
51.2441
51.2465
51.249
51.2516
51.2541
51.2567
51.2593
51.262
51.2647
51.2674
51.2702
51.273
51.2758
51.2787
51.2816
51.2845
51.2875
51.2905
51.2935
51.2966
51.2997
51.3028
51.306
51.3092
51.3125
51.3157
51.319
51.3224
51.3257
51.3292
51.3326
51.3361
51.3395
51.3431
51.3466
51.3502
51.3538
51.3574
51.3611
51.3648
51.3685
51.3723
51.3762
51.3801
51.384
51.3879
51.3919
51.3959
51.4
51.4041
51.4082
51.4123
51.4165
51.4206
51.4248
51.429
51.4333
51.4375
51.4418
51.4462
51.4505
51.4549
51.4594
51.4638
51.4683
51.4729
51.4774
51.482
51.4867
51.4913
51.496
51.5007
51.5054
51.5102
51.515
51.5199
51.5248
51.5297
51.5346
51.5396
51.5446
51.5496
51.5546
51.5597
51.5648
51.5699
51.575
51.5801
51.5853
51.5905
51.5957
51.6009
51.6061
51.6114
51.6167
51.6221
51.6275
51.6329
51.6383
51.6438
51.6493
51.6548
51.6604
51.666
51.6715
51.6772
51.6828
51.6884
51.6941
51.6998
51.7055
51.7112
51.717
51.7228
51.7286
51.7344
51.7402
51.7461
51.7519
51.7578
51.7637
51.7697
51.7756
51.7816
51.7876
51.7936
51.7997
51.8057
51.8118
51.8179
51.824
51.8301
51.8362
51.8424
51.8486
51.8548
51.861
51.8672
51.8735
51.8797
51.886
51.8923
51.8986
51.9049
51.9112
51.9176
51.924
51.9303
51.9367
51.9431
51.9496
51.956
51.9624
51.9689
51.9754
51.9819
51.9884
51.9949
52.0014
52.0079
52.0145
52.021
52.0276
52.0342
52.0407
52.0473
52.0539
52.0606
52.0672
52.0738
52.0804
52.0871
52.0938
52.1004
52.1071
52.1138
52.1205
52.1272
52.1339
52.1406
52.1473
52.154
52.1607
52.1675
52.1742
52.1809
52.1877
52.1944
52.2012
52.208
52.2147
52.2215
52.2283
52.235
52.2418
52.2486
52.2554
52.2622
52.269
52.2758
52.2826
52.2893
52.2961
52.3029
52.3097
52.3165
52.3233
52.3301
52.3369
52.3437
52.3505
52.3573
52.3641
52.3709
52.3777
52.3845
52.3913
52.398
52.4048
52.4116
52.4184
52.4252
52.4319
52.4387
52.4455
52.4522
52.459
52.4657
52.4725
52.4792
52.4859
52.4927
52.4994
52.5061
52.5128
52.5196
52.5263
52.533
52.5396
52.5463
52.553
52.5597
52.5663
52.573
52.5796
52.5863
52.5929
52.5995
52.6062
52.6128
52.6194
52.626
52.6325
52.6391
52.6457
52.6522
52.6588
52.6653
52.6718
52.6784
52.6849
52.6914
52.6978
52.7043
52.7108
52.7172
52.7237
52.7301
52.7365
52.7429
52.7493
52.7557
52.762
52.7684
52.7747
52.7811
52.7874
52.7937
52.8
52.8063
52.8125
52.8188
52.825
52.8313
52.8375
52.8437
52.8499
52.856
52.8622
52.8683
52.8745
52.8806
52.8867
52.8928
52.8988
52.9049
52.9109
52.9169
52.9229
52.9289
52.9349
52.9409
52.9468
52.9527
52.9587
52.9646
52.9704
52.9763
52.9821
52.988
52.9938
52.9996
53.0054
53.0111
53.0169
53.0226
53.0283
53.034
53.0397
53.0454
53.051
53.0567
53.0621
53.0679
53.0733
53.079
53.0844
53.0901
53.0954
53.1011
53.1063
53.1121
53.1171
53.1229
53.1279
53.1337
53.1386
53.1444
53.1493
53.155
53.1599
53.1655
53.1702
53.1761
51.1499
51.1514
51.1537
51.1558
51.1579
51.1597
51.1615
51.1632
51.1647
51.1662
51.1676
51.1689
51.1702
51.1713
51.1725
51.1736
51.1748
51.1759
51.177
51.1781
51.1793
51.1805
51.1817
51.183
51.1843
51.1856
51.1869
51.1883
51.1897
51.1912
51.1927
51.1942
51.1958
51.1974
51.199
51.2007
51.2024
51.2042
51.206
51.2078
51.2096
51.2115
51.2134
51.2154
51.2174
51.2194
51.2215
51.2236
51.2257
51.2279
51.2301
51.2324
51.2346
51.2369
51.2393
51.2417
51.2441
51.2465
51.249
51.2516
51.2541
51.2567
51.2593
51.262
51.2647
51.2674
51.2702
51.273
51.2758
51.2787
51.2816
51.2845
51.2875
51.2905
51.2935
51.2966
51.2997
51.3028
51.306
51.3092
51.3125
51.3157
51.319
51.3224
51.3257
51.3292
51.3326
51.3361
51.3395
51.3431
51.3466
51.3502
51.3538
51.3574
51.3611
51.3648
51.3685
51.3723
51.3762
51.3801
51.384
51.3879
51.3919
51.3959
51.4
51.4041
51.4082
51.4123
51.4165
51.4206
51.4248
51.429
51.4333
51.4375
51.4418
51.4462
51.4505
51.4549
51.4594
51.4638
51.4683
51.4729
51.4774
51.482
51.4867
51.4913
51.496
51.5007
51.5054
51.5102
51.515
51.5199
51.5248
51.5297
51.5346
51.5396
51.5446
51.5496
51.5546
51.5597
51.5648
51.5699
51.575
51.5801
51.5853
51.5905
51.5957
51.6009
51.6061
51.6114
51.6167
51.6221
51.6275
51.6329
51.6383
51.6438
51.6493
51.6548
51.6604
51.666
51.6715
51.6772
51.6828
51.6884
51.6941
51.6998
51.7055
51.7112
51.717
51.7228
51.7286
51.7344
51.7402
51.7461
51.7519
51.7578
51.7637
51.7697
51.7756
51.7816
51.7876
51.7936
51.7997
51.8057
51.8118
51.8179
51.824
51.8301
51.8362
51.8424
51.8486
51.8548
51.861
51.8672
51.8735
51.8797
51.886
51.8923
51.8986
51.9049
51.9112
51.9176
51.924
51.9303
51.9367
51.9431
51.9496
51.956
51.9624
51.9689
51.9754
51.9819
51.9884
51.9949
52.0014
52.0079
52.0145
52.021
52.0276
52.0342
52.0407
52.0473
52.0539
52.0606
52.0672
52.0738
52.0804
52.0871
52.0938
52.1004
52.1071
52.1138
52.1205
52.1272
52.1339
52.1406
52.1473
52.154
52.1607
52.1675
52.1742
52.1809
52.1877
52.1944
52.2012
52.208
52.2147
52.2215
52.2283
52.235
52.2418
52.2486
52.2554
52.2622
52.269
52.2758
52.2825
52.2893
52.2961
52.3029
52.3097
52.3165
52.3233
52.3301
52.3369
52.3437
52.3505
52.3573
52.3641
52.3709
52.3777
52.3845
52.3913
52.398
52.4048
52.4116
52.4184
52.4252
52.4319
52.4387
52.4455
52.4522
52.459
52.4657
52.4725
52.4792
52.4859
52.4927
52.4994
52.5061
52.5128
52.5196
52.5263
52.533
52.5396
52.5463
52.553
52.5597
52.5663
52.573
52.5796
52.5863
52.5929
52.5995
52.6062
52.6128
52.6194
52.626
52.6325
52.6391
52.6457
52.6522
52.6588
52.6653
52.6718
52.6784
52.6849
52.6914
52.6978
52.7043
52.7108
52.7172
52.7237
52.7301
52.7365
52.7429
52.7493
52.7557
52.762
52.7684
52.7747
52.7811
52.7874
52.7937
52.8
52.8063
52.8125
52.8188
52.825
52.8313
52.8375
52.8437
52.8499
52.856
52.8622
52.8683
52.8745
52.8806
52.8867
52.8927
52.8988
52.9049
52.9109
52.9169
52.9229
52.9289
52.9349
52.9409
52.9468
52.9527
52.9587
52.9646
52.9704
52.9763
52.9821
52.988
52.9938
52.9996
53.0054
53.0111
53.0169
53.0226
53.0283
53.034
53.0397
53.0454
53.0509
53.0567
53.0621
53.0679
53.0733
53.0791
53.0843
53.0901
53.0953
53.1012
53.1063
53.1121
53.1171
53.1229
53.1279
53.1337
53.1386
53.1444
53.1493
53.155
53.1599
53.1655
53.1701
53.1761
51.1493
51.1508
51.1531
51.1553
51.1573
51.1592
51.1609
51.1626
51.1642
51.1657
51.167
51.1684
51.1696
51.1708
51.1719
51.1731
51.1742
51.1753
51.1765
51.1776
51.1788
51.18
51.1812
51.1824
51.1837
51.185
51.1864
51.1878
51.1892
51.1907
51.1922
51.1937
51.1953
51.1969
51.1985
51.2002
51.2019
51.2037
51.2054
51.2073
51.2091
51.211
51.2129
51.2149
51.2169
51.2189
51.221
51.2231
51.2252
51.2274
51.2296
51.2319
51.2341
51.2364
51.2388
51.2412
51.2436
51.246
51.2485
51.2511
51.2536
51.2562
51.2588
51.2615
51.2642
51.2669
51.2697
51.2725
51.2753
51.2782
51.2811
51.284
51.287
51.29
51.293
51.2961
51.2992
51.3024
51.3055
51.3087
51.312
51.3152
51.3186
51.3219
51.3253
51.3287
51.3321
51.3356
51.3391
51.3426
51.3461
51.3497
51.3533
51.3569
51.3606
51.3643
51.3681