/*--------------------------------*- C++ -*----------------------------------*\
| =========                 |                                                 |
| \\      /  F ield         | OpenFOAM: The Open Source CFD Toolbox           |
|  \\    /   O peration     | Version:  3.0.x                                 |
|   \\  /    A nd           | Web:      www.OpenFOAM.org                      |
|    \\/     M anipulation  |                                                 |
\*---------------------------------------------------------------------------*/
FoamFile
{
    version     2.0;
    format      ascii;
    class       volScalarField;
    location    "0.53";
    object      T;
}
// * * * * * * * * * * * * * * * * * * * * * * * * * * * * * * * * * * * * * //

dimensions      [0 0 0 1 0 0 0];

internalField   nonuniform List<scalar> 
27600
(
775.342
775.327
775.301
775.279
775.259
775.241
775.226
775.213
775.202
775.193
775.186
775.181
775.177
775.176
775.175
775.176
775.176
775.178
775.18
775.183
775.186
775.189
775.193
775.197
775.201
775.204
775.209
775.213
775.217
775.222
775.226
775.231
775.235
775.24
775.245
775.25
775.256
775.261
775.266
775.272
775.277
775.283
775.289
775.295
775.301
775.307
775.313
775.32
775.326
775.333
775.339
775.346
775.353
775.36
775.367
775.374
775.382
775.389
775.397
775.404
775.412
775.42
775.428
775.436
775.444
775.452
775.461
775.469
775.478
775.486
775.495
775.504
775.513
775.522
775.531
775.541
775.55
775.56
775.569
775.579
775.589
775.599
775.609
775.619
775.629
775.639
775.65
775.66
775.671
775.682
775.694
775.705
775.717
775.728
775.74
775.751
775.763
775.774
775.786
775.797
775.808
775.82
775.831
775.843
775.855
775.866
775.878
775.891
775.903
775.916
775.929
775.942
775.955
775.969
775.982
775.996
776.009
776.023
776.036
776.05
776.064
776.077
776.091
776.105
776.119
776.133
776.147
776.161
776.176
776.19
776.204
776.218
776.232
776.246
776.261
776.275
776.29
776.304
776.319
776.334
776.349
776.365
776.38
776.396
776.412
776.428
776.444
776.46
776.477
776.493
776.509
776.525
776.541
776.557
776.573
776.589
776.605
776.621
776.638
776.654
776.671
776.687
776.704
776.721
776.738
776.755
776.772
776.789
776.806
776.824
776.841
776.858
776.876
776.894
776.911
776.929
776.947
776.965
776.983
777.001
777.019
777.037
777.055
777.073
777.091
777.11
777.128
777.146
777.165
777.183
777.202
777.221
777.239
777.258
777.277
777.296
777.314
777.333
777.352
777.371
777.39
777.409
777.429
777.448
777.467
777.486
777.505
777.525
777.544
777.563
777.583
777.602
777.622
777.641
777.661
777.681
777.7
777.72
777.739
777.759
777.779
777.799
777.819
777.838
777.858
777.878
777.898
777.918
777.938
777.958
777.978
777.998
778.018
778.038
778.058
778.078
778.098
778.118
778.138
778.158
778.179
778.199
778.219
778.239
778.259
778.28
778.3
778.32
778.34
778.361
778.381
778.401
778.421
778.442
778.462
778.482
778.502
778.523
778.543
778.563
778.584
778.604
778.624
778.645
778.665
778.685
778.705
778.726
778.746
778.766
778.786
778.807
778.827
778.847
778.867
778.888
778.908
778.928
778.948
778.968
778.988
779.009
779.029
779.049
779.069
779.089
779.109
779.129
779.149
779.169
779.189
779.209
779.229
779.249
779.269
779.289
779.309
779.328
779.348
779.368
779.388
779.408
779.427
779.447
779.467
779.486
779.506
779.525
779.545
779.565
779.584
779.603
779.623
779.642
779.662
779.681
779.7
779.72
779.739
779.758
779.777
779.796
779.815
779.835
779.854
779.873
779.892
779.91
779.929
779.948
779.967
779.986
780.004
780.023
780.042
780.06
780.079
780.097
780.116
780.134
780.153
780.171
780.189
780.208
780.226
780.244
780.262
780.28
780.298
780.316
780.334
780.352
780.37
780.388
780.406
780.423
780.441
780.459
780.476
780.494
780.511
780.529
780.546
780.564
780.581
780.598
780.615
780.632
780.649
780.667
780.683
780.701
780.717
780.735
780.75
780.768
780.783
780.802
780.816
780.835
780.849
780.868
780.881
780.901
780.913
780.934
780.945
780.966
780.977
780.999
781.009
781.03
781.04
781.062
781.072
781.093
781.103
781.125
781.135
781.16
775.334
775.318
775.293
775.27
775.25
775.233
775.217
775.204
775.193
775.185
775.178
775.173
775.169
775.167
775.167
775.167
775.168
775.17
775.172
775.175
775.178
775.181
775.185
775.189
775.192
775.196
775.2
775.205
775.209
775.213
775.218
775.223
775.227
775.232
775.237
775.242
775.248
775.253
775.258
775.264
775.269
775.275
775.281
775.287
775.293
775.299
775.306
775.312
775.318
775.325
775.332
775.338
775.345
775.352
775.36
775.367
775.374
775.382
775.389
775.397
775.405
775.412
775.42
775.428
775.437
775.445
775.453
775.462
775.47
775.479
775.488
775.497
775.506
775.515
775.524
775.533
775.543
775.552
775.562
775.572
775.582
775.592
775.602
775.612
775.622
775.632
775.643
775.653
775.664
775.675
775.687
775.698
775.709
775.721
775.733
775.744
775.756
775.767
775.779
775.79
775.801
775.813
775.824
775.836
775.848
775.86
775.872
775.884
775.896
775.909
775.922
775.935
775.948
775.962
775.975
775.989
776.003
776.016
776.03
776.044
776.057
776.071
776.085
776.098
776.112
776.127
776.141
776.155
776.169
776.184
776.198
776.212
776.226
776.24
776.255
776.269
776.284
776.299
776.313
776.328
776.343
776.359
776.374
776.39
776.406
776.422
776.438
776.454
776.471
776.487
776.503
776.52
776.536
776.552
776.568
776.584
776.6
776.616
776.632
776.649
776.665
776.682
776.698
776.715
776.732
776.749
776.766
776.783
776.801
776.818
776.836
776.853
776.871
776.888
776.906
776.924
776.942
776.959
776.977
776.995
777.013
777.031
777.05
777.068
777.086
777.104
777.123
777.141
777.16
777.178
777.197
777.215
777.234
777.253
777.272
777.29
777.309
777.328
777.347
777.366
777.385
777.404
777.423
777.442
777.462
777.481
777.5
777.519
777.539
777.558
777.578
777.597
777.617
777.636
777.656
777.675
777.695
777.715
777.734
777.754
777.774
777.793
777.813
777.833
777.853
777.873
777.893
777.913
777.933
777.953
777.973
777.993
778.013
778.033
778.053
778.073
778.093
778.113
778.133
778.153
778.173
778.194
778.214
778.234
778.254
778.274
778.295
778.315
778.335
778.355
778.376
778.396
778.416
778.436
778.457
778.477
778.497
778.518
778.538
778.558
778.578
778.599
778.619
778.639
778.66
778.68
778.7
778.72
778.741
778.761
778.781
778.801
778.822
778.842
778.862
778.882
778.903
778.923
778.943
778.963
778.983
779.003
779.023
779.044
779.064
779.084
779.104
779.124
779.144
779.164
779.184
779.204
779.224
779.244
779.264
779.284
779.303
779.323
779.343
779.363
779.383
779.402
779.422
779.442
779.461
779.481
779.501
779.52
779.54
779.559
779.579
779.598
779.618
779.637
779.657
779.676
779.695
779.714
779.734
779.753
779.772
779.791
779.81
779.829
779.848
779.867
779.886
779.905
779.924
779.943
779.962
779.981
779.999
780.018
780.037
780.055
780.074
780.092
780.111
780.129
780.148
780.166
780.184
780.203
780.221
780.239
780.257
780.275
780.293
780.311
780.329
780.347
780.365
780.383
780.401
780.418
780.436
780.454
780.471
780.489
780.506
780.524
780.541
780.558
780.576
780.593
780.61
780.627
780.644
780.662
780.678
780.696
780.712
780.73
780.745
780.763
780.778
780.797
780.811
780.83
780.844
780.863
780.876
780.896
780.908
780.929
780.94
780.961
780.972
780.994
781.004
781.025
781.035
781.057
781.067
781.088
781.098
781.12
781.13
781.153
775.334
775.318
775.293
775.27
775.25
775.233
775.217
775.204
775.193
775.185
775.178
775.173
775.169
775.167
775.167
775.167
775.168
775.17
775.172
775.175
775.178
775.181
775.185
775.189
775.192
775.196
775.201
775.205
775.209
775.214
775.218
775.223
775.228
775.232
775.237
775.242
775.248
775.253
775.258
775.264
775.27
775.275
775.281
775.287
775.293
775.299
775.306
775.312
775.318
775.325
775.332
775.339
775.345
775.352
775.36
775.367
775.374
775.382
775.389
775.397
775.405
775.412
775.42
775.428
775.437
775.445
775.453
775.462
775.47
775.479
775.488
775.497
775.506
775.515
775.524
775.533
775.543
775.552
775.562
775.572
775.582
775.592
775.602
775.612
775.622
775.632
775.643
775.653
775.664
775.675
775.687
775.698
775.71
775.721
775.733
775.744
775.756
775.767
775.779
775.79
775.801
775.813
775.824
775.836
775.848
775.86
775.872
775.884
775.896
775.909
775.922
775.935
775.948
775.962
775.975
775.989
776.003
776.016
776.03
776.044
776.057
776.071
776.085
776.098
776.112
776.127
776.141
776.155
776.169
776.184
776.198
776.212
776.226
776.24
776.255
776.269
776.284
776.299
776.313
776.328
776.343
776.359
776.374
776.39
776.406
776.422
776.438
776.454
776.471
776.487
776.503
776.52
776.536
776.552
776.568
776.584
776.6
776.616
776.632
776.649
776.665
776.682
776.698
776.715
776.732
776.749
776.766
776.783
776.801
776.818
776.836
776.853
776.871
776.888
776.906
776.924
776.942
776.959
776.977
776.995
777.013
777.031
777.05
777.068
777.086
777.104
777.123
777.141
777.16
777.178
777.197
777.215
777.234
777.253
777.272
777.29
777.309
777.328
777.347
777.366
777.385
777.404
777.423
777.442
777.462
777.481
777.5
777.519
777.539
777.558
777.578
777.597
777.617
777.636
777.656
777.675
777.695
777.715
777.734
777.754
777.774
777.793
777.813
777.833
777.853
777.873
777.893
777.913
777.933
777.953
777.972
777.993
778.013
778.033
778.053
778.073
778.093
778.113
778.133
778.153
778.173
778.194
778.214
778.234
778.254
778.274
778.295
778.315
778.335
778.355
778.376
778.396
778.416
778.436
778.457
778.477
778.497
778.518
778.538
778.558
778.578
778.599
778.619
778.639
778.66
778.68
778.7
778.72
778.741
778.761
778.781
778.801
778.822
778.842
778.862
778.882
778.903
778.923
778.943
778.963
778.983
779.003
779.023
779.044
779.064
779.084
779.104
779.124
779.144
779.164
779.184
779.204
779.224
779.244
779.264
779.284
779.303
779.323
779.343
779.363
779.383
779.402
779.422
779.442
779.461
779.481
779.501
779.52
779.54
779.559
779.579
779.598
779.618
779.637
779.657
779.676
779.695
779.714
779.734
779.753
779.772
779.791
779.81
779.829
779.848
779.867
779.886
779.905
779.924
779.943
779.962
779.981
779.999
780.018
780.037
780.055
780.074
780.092
780.111
780.129
780.148
780.166
780.184
780.203
780.221
780.239
780.257
780.275
780.293
780.311
780.329
780.347
780.365
780.383
780.401
780.418
780.436
780.454
780.471
780.489
780.506
780.524
780.541
780.558
780.576
780.593
780.61
780.627
780.644
780.662
780.678
780.696
780.712
780.73
780.745
780.763
780.778
780.797
780.811
780.83
780.844
780.863
780.876
780.896
780.908
780.929
780.94
780.961
780.972
780.994
781.004
781.025
781.035
781.057
781.067
781.088
781.098
781.12
781.13
781.152
775.334
775.318
775.293
775.271
775.25
775.233
775.218
775.205
775.194
775.185
775.178
775.173
775.169
775.168
775.167
775.168
775.168
775.17
775.172
775.175
775.178
775.182
775.185
775.189
775.193
775.197
775.201
775.205
775.209
775.214
775.218
775.223
775.228
775.233
775.238
775.243
775.248
775.253
775.259
775.264
775.27
775.275
775.281
775.287
775.293
775.299
775.306
775.312
775.319
775.325
775.332
775.339
775.346
775.353
775.36
775.367
775.374
775.382
775.389
775.397
775.405
775.413
775.421
775.429
775.437
775.445
775.453
775.462
775.471
775.479
775.488
775.497
775.506
775.515
775.524
775.534
775.543
775.553
775.562
775.572
775.582
775.592
775.602
775.612
775.622
775.632
775.643
775.653
775.664
775.675
775.687
775.698
775.71
775.721
775.733
775.744
775.756
775.768
775.779
775.79
775.802
775.813
775.825
775.836
775.848
775.86
775.872
775.884
775.896
775.909
775.922
775.935
775.949
775.962
775.976
775.989
776.003
776.016
776.03
776.044
776.057
776.071
776.085
776.099
776.113
776.127
776.141
776.155
776.169
776.184
776.198
776.212
776.226
776.241
776.255
776.269
776.284
776.299
776.313
776.328
776.343
776.359
776.374
776.39
776.406
776.422
776.438
776.454
776.471
776.487
776.503
776.52
776.536
776.552
776.568
776.584
776.6
776.616
776.632
776.649
776.665
776.682
776.698
776.715
776.732
776.749
776.766
776.783
776.801
776.818
776.836
776.853
776.871
776.888
776.906
776.924
776.942
776.959
776.977
776.995
777.013
777.031
777.05
777.068
777.086
777.104
777.123
777.141
777.16
777.178
777.197
777.215
777.234
777.253
777.272
777.29
777.309
777.328
777.347
777.366
777.385
777.404
777.423
777.442
777.462
777.481
777.5
777.519
777.539
777.558
777.578
777.597
777.617
777.636
777.656
777.675
777.695
777.715
777.734
777.754
777.774
777.793
777.813
777.833
777.853
777.873
777.893
777.913
777.933
777.953
777.972
777.993
778.013
778.033
778.053
778.073
778.093
778.113
778.133
778.153
778.173
778.194
778.214
778.234
778.254
778.274
778.295
778.315
778.335
778.355
778.376
778.396
778.416
778.436
778.457
778.477
778.497
778.518
778.538
778.558
778.578
778.599
778.619
778.639
778.66
778.68
778.7
778.72
778.741
778.761
778.781
778.801
778.822
778.842
778.862
778.882
778.903
778.923
778.943
778.963
778.983
779.003
779.023
779.044
779.064
779.084
779.104
779.124
779.144
779.164
779.184
779.204
779.224
779.244
779.264
779.284
779.303
779.323
779.343
779.363
779.383
779.402
779.422
779.442
779.461
779.481
779.501
779.52
779.54
779.559
779.579
779.598
779.618
779.637
779.657
779.676
779.695
779.714
779.734
779.753
779.772
779.791
779.81
779.829
779.848
779.867
779.886
779.905
779.924
779.943
779.962
779.981
779.999
780.018
780.037
780.055
780.074
780.092
780.111
780.129
780.148
780.166
780.184
780.203
780.221
780.239
780.257
780.275
780.293
780.311
780.329
780.347
780.365
780.383
780.401
780.418
780.436
780.454
780.471
780.489
780.506
780.524
780.541
780.558
780.576
780.593
780.61
780.627
780.644
780.662
780.678
780.696
780.712
780.73
780.745
780.763
780.778
780.797
780.811
780.83
780.844
780.863
780.876
780.896
780.908
780.929
780.94
780.961
780.972
780.993
781.004
781.025
781.035
781.057
781.067
781.088
781.099
781.118
781.132
781.149
775.334
775.318
775.293
775.271
775.251
775.233
775.218
775.205
775.194
775.185
775.178
775.173
775.169
775.168
775.168
775.168
775.168
775.17
775.172
775.175
775.178
775.182
775.185
775.189
775.193
775.197
775.201
775.205
775.209
775.214
775.218
775.223
775.228
775.233
775.238
775.243
775.248
775.253
775.259
775.264
775.27
775.276
775.281
775.287
775.293
775.3
775.306
775.312
775.319
775.325
775.332
775.339
775.346
775.353
775.36
775.367
775.374
775.382
775.389
775.397
775.405
775.413
775.421
775.429
775.437
775.445
775.454
775.462
775.471
775.479
775.488
775.497
775.506
775.515
775.524
775.534
775.543
775.553
775.562
775.572
775.582
775.592
775.602
775.612
775.622
775.632
775.643
775.653
775.664
775.676
775.687
775.698
775.71
775.721
775.733
775.744
775.756
775.768
775.779
775.79
775.802
775.813
775.825
775.836
775.848
775.86
775.872
775.884
775.897
775.909
775.922
775.935
775.949
775.962
775.976
775.989
776.003
776.016
776.03
776.044
776.057
776.071
776.085
776.099
776.113
776.127
776.141
776.155
776.169
776.184
776.198
776.212
776.226
776.241
776.255
776.269
776.284
776.299
776.313
776.328
776.343
776.359
776.374
776.39
776.406
776.422
776.438
776.454
776.471
776.487
776.503
776.52
776.536
776.552
776.568
776.584
776.6
776.616
776.632
776.649
776.665
776.682
776.698
776.715
776.732
776.749
776.766
776.783
776.801
776.818
776.836
776.853
776.871
776.888
776.906
776.924
776.942
776.959
776.977
776.995
777.013
777.031
777.05
777.068
777.086
777.104
777.123
777.141
777.16
777.178
777.197
777.215
777.234
777.253
777.272
777.29
777.309
777.328
777.347
777.366
777.385
777.404
777.423
777.442
777.462
777.481
777.5
777.519
777.539
777.558
777.578
777.597
777.617
777.636
777.656
777.675
777.695
777.715
777.734
777.754
777.774
777.793
777.813
777.833
777.853
777.873
777.893
777.913
777.933
777.953
777.972
777.993
778.013
778.033
778.053
778.073
778.093
778.113
778.133
778.153
778.173
778.194
778.214
778.234
778.254
778.274
778.295
778.315
778.335
778.355
778.376
778.396
778.416
778.436
778.457
778.477
778.497
778.518
778.538
778.558
778.578
778.599
778.619
778.639
778.66
778.68
778.7
778.72
778.741
778.761
778.781
778.801
778.822
778.842
778.862
778.882
778.903
778.923
778.943
778.963
778.983
779.003
779.023
779.044
779.064
779.084
779.104
779.124
779.144
779.164
779.184
779.204
779.224
779.244
779.264
779.284
779.303
779.323
779.343
779.363
779.383
779.402
779.422
779.442
779.461
779.481
779.501
779.52
779.54
779.559
779.579
779.598
779.618
779.637
779.657
779.676
779.695
779.714
779.734
779.753
779.772
779.791
779.81
779.829
779.848
779.867
779.886
779.905
779.924
779.943
779.962
779.981
779.999
780.018
780.037
780.055
780.074
780.092
780.111
780.129
780.148
780.166
780.184
780.203
780.221
780.239
780.257
780.275
780.293
780.311
780.329
780.347
780.365
780.383
780.401
780.418
780.436
780.454
780.471
780.489
780.506
780.524
780.541
780.558
780.576
780.593
780.61
780.627
780.644
780.662
780.678
780.696
780.711
780.73
780.745
780.763
780.778
780.797
780.811
780.83
780.844
780.863
780.876
780.896
780.908
780.929
780.94
780.961
780.972
780.993
781.004
781.025
781.035
781.057
781.067
781.088
781.098
781.119
781.13
781.151
775.334
775.318
775.293
775.271
775.251
775.233
775.218
775.205
775.194
775.185
775.178
775.173
775.169
775.168
775.168
775.168
775.168
775.17
775.172
775.175
775.178
775.182
775.185
775.189
775.193
775.197
775.201
775.205
775.209
775.214
775.218
775.223
775.228
775.233
775.238
775.243
775.248
775.253
775.259
775.264
775.27
775.276
775.281
775.287
775.293
775.3
775.306
775.312
775.319
775.325
775.332
775.339
775.346
775.353
775.36
775.367
775.374
775.382
775.389
775.397
775.405
775.413
775.421
775.429
775.437
775.445
775.454
775.462
775.471
775.479
775.488
775.497
775.506
775.515
775.524
775.534
775.543
775.553
775.562
775.572
775.582
775.592
775.602
775.612
775.622
775.632
775.643
775.653
775.664
775.676
775.687
775.698
775.71
775.721
775.733
775.744
775.756
775.768
775.779
775.79
775.802
775.813
775.825
775.836
775.848
775.86
775.872
775.884
775.897
775.909
775.922
775.935
775.949
775.962
775.976
775.989
776.003
776.016
776.03
776.044
776.057
776.071
776.085
776.099
776.113
776.127
776.141
776.155
776.169
776.184
776.198
776.212
776.226
776.241
776.255
776.269
776.284
776.299
776.313
776.328
776.343
776.359
776.374
776.39
776.406
776.422
776.438
776.454
776.471
776.487
776.503
776.52
776.536
776.552
776.568
776.584
776.6
776.616
776.632
776.649
776.665
776.682
776.698
776.715
776.732
776.749
776.766
776.783
776.801
776.818
776.836
776.853
776.871
776.888
776.906
776.924
776.942
776.959
776.977
776.995
777.013
777.031
777.05
777.068
777.086
777.104
777.123
777.141
777.16
777.178
777.197
777.215
777.234
777.253
777.272
777.29
777.309
777.328
777.347
777.366
777.385
777.404
777.423
777.442
777.462
777.481
777.5
777.519
777.539
777.558
777.578
777.597
777.617
777.636
777.656
777.675
777.695
777.715
777.734
777.754
777.774
777.793
777.813
777.833
777.853
777.873
777.893
777.913
777.933
777.953
777.972
777.993
778.013
778.033
778.053
778.073
778.093
778.113
778.133
778.153
778.173
778.194
778.214
778.234
778.254
778.274
778.295
778.315
778.335
778.355
778.376
778.396
778.416
778.436
778.457
778.477
778.497
778.518
778.538
778.558
778.578
778.599
778.619
778.639
778.66
778.68
778.7
778.72
778.741
778.761
778.781
778.801
778.822
778.842
778.862
778.882
778.903
778.923
778.943
778.963
778.983
779.003
779.023
779.044
779.064
779.084
779.104
779.124
779.144
779.164
779.184
779.204
779.224
779.244
779.264
779.284
779.303
779.323
779.343
779.363
779.383
779.402
779.422
779.442
779.461
779.481
779.501
779.52
779.54
779.559
779.579
779.598
779.618
779.637
779.657
779.676
779.695
779.714
779.734
779.753
779.772
779.791
779.81
779.829
779.848
779.867
779.886
779.905
779.924
779.943
779.962
779.981
779.999
780.018
780.037
780.055
780.074
780.092
780.111
780.129
780.148
780.166
780.184
780.203
780.221
780.239
780.257
780.275
780.293
780.311
780.329
780.347
780.365
780.383
780.401
780.418
780.436
780.454
780.471
780.489
780.506
780.524
780.541
780.558
780.576
780.593
780.61
780.627
780.644
780.661
780.678
780.695
780.712
780.729
780.745
780.763
780.778
780.796
780.812
780.829
780.845
780.861
780.879
780.893
780.911
780.926
780.942
780.959
780.974
780.991
781.007
781.022
781.04
781.052
781.072
781.083
781.102
781.114
781.133
781.145
775.334
775.318
775.293
775.271
775.25
775.233
775.218
775.205
775.194
775.185
775.178
775.173
775.169
775.168
775.167
775.168
775.168
775.17
775.172
775.175
775.178
775.182
775.185
775.189
775.193
775.197
775.201
775.205
775.209
775.214
775.218
775.223
775.228
775.233
775.238
775.243
775.248
775.253
775.259
775.264
775.27
775.275
775.281
775.287
775.293
775.299
775.306
775.312
775.319
775.325
775.332
775.339
775.346
775.353
775.36
775.367
775.374
775.382
775.389
775.397
775.405
775.413
775.421
775.429
775.437
775.445
775.453
775.462
775.471
775.479
775.488
775.497
775.506
775.515
775.524
775.534
775.543
775.553
775.562
775.572
775.582
775.592
775.602
775.612
775.622
775.632
775.643
775.653
775.664
775.675
775.687
775.698
775.71
775.721
775.733
775.744
775.756
775.768
775.779
775.79
775.802
775.813
775.825
775.836
775.848
775.86
775.872
775.884
775.896
775.909
775.922
775.935
775.949
775.962
775.976
775.989
776.003
776.016
776.03
776.044
776.057
776.071
776.085
776.099
776.113
776.127
776.141
776.155
776.169
776.184
776.198
776.212
776.226
776.241
776.255
776.269
776.284
776.299
776.313
776.328
776.343
776.359
776.374
776.39
776.406
776.422
776.438
776.454
776.471
776.487
776.503
776.52
776.536
776.552
776.568
776.584
776.6
776.616
776.632
776.649
776.665
776.682
776.698
776.715
776.732
776.749
776.766
776.783
776.801
776.818
776.836
776.853
776.871
776.888
776.906
776.924
776.942
776.959
776.977
776.995
777.013
777.031
777.05
777.068
777.086
777.104
777.123
777.141
777.16
777.178
777.197
777.215
777.234
777.253
777.272
777.29
777.309
777.328
777.347
777.366
777.385
777.404
777.423
777.442
777.462
777.481
777.5
777.519
777.539
777.558
777.578
777.597
777.617
777.636
777.656
777.675
777.695
777.715
777.734
777.754
777.774
777.793
777.813
777.833
777.853
777.873
777.893
777.913
777.933
777.953
777.972
777.993
778.013
778.033
778.053
778.073
778.093
778.113
778.133
778.153
778.173
778.194
778.214
778.234
778.254
778.274
778.295
778.315
778.335
778.355
778.376
778.396
778.416
778.436
778.457
778.477
778.497
778.518
778.538
778.558
778.578
778.599
778.619
778.639
778.66
778.68
778.7
778.72
778.741
778.761
778.781
778.801
778.822
778.842
778.862
778.882
778.903
778.923
778.943
778.963
778.983
779.003
779.023
779.044
779.064
779.084
779.104
779.124
779.144
779.164
779.184
779.204
779.224
779.244
779.264
779.284
779.303
779.323
779.343
779.363
779.383
779.402
779.422
779.442
779.461
779.481
779.501
779.52
779.54
779.559
779.579
779.598
779.618
779.637
779.657
779.676
779.695
779.714
779.734
779.753
779.772
779.791
779.81
779.829
779.848
779.867
779.886
779.905
779.924
779.943
779.962
779.981
779.999
780.018
780.037
780.055
780.074
780.092
780.111
780.129
780.148
780.166
780.184
780.203
780.221
780.239
780.257
780.275
780.293
780.311
780.329
780.347
780.365
780.383
780.401
780.418
780.436
780.454
780.471
780.489
780.506
780.524
780.541
780.558
780.576
780.593
780.61
780.627
780.644
780.661
780.678
780.695
780.712
780.729
780.746
780.762
780.78
780.795
780.813
780.828
780.846
780.862
780.877
780.895
780.909
780.928
780.942
780.958
780.976
780.988
781.01
781.02
781.041
781.051
781.072
781.083
781.101
781.115
781.133
781.145
775.334
775.318
775.293
775.27
775.25
775.233
775.217
775.204
775.193
775.185
775.178
775.173
775.169
775.167
775.167
775.167
775.168
775.17
775.172
775.175
775.178
775.181
775.185
775.189
775.192
775.196
775.201
775.205
775.209
775.214
775.218
775.223
775.228
775.232
775.237
775.242
775.248
775.253
775.258
775.264
775.27
775.275
775.281
775.287
775.293
775.299
775.306
775.312
775.318
775.325
775.332
775.339
775.345
775.352
775.36
775.367
775.374
775.382
775.389
775.397
775.405
775.412
775.42
775.428
775.437
775.445
775.453
775.462
775.47
775.479
775.488
775.497
775.506
775.515
775.524
775.533
775.543
775.552
775.562
775.572
775.582
775.592
775.602
775.612
775.622
775.632
775.643
775.653
775.664
775.675
775.687
775.698
775.71
775.721
775.733
775.744
775.756
775.767
775.779
775.79
775.801
775.813
775.824
775.836
775.848
775.86
775.872
775.884
775.896
775.909
775.922
775.935
775.948
775.962
775.975
775.989
776.003
776.016
776.03
776.044
776.057
776.071
776.085
776.098
776.112
776.127
776.141
776.155
776.169
776.184
776.198
776.212
776.226
776.24
776.255
776.269
776.284
776.299
776.313
776.328
776.343
776.359
776.374
776.39
776.406
776.422
776.438
776.454
776.471
776.487
776.503
776.52
776.536
776.552
776.568
776.584
776.6
776.616
776.632
776.649
776.665
776.682
776.698
776.715
776.732
776.749
776.766
776.783
776.801
776.818
776.836
776.853
776.871
776.888
776.906
776.924
776.942
776.959
776.977
776.995
777.013
777.031
777.05
777.068
777.086
777.104
777.123
777.141
777.16
777.178
777.197
777.215
777.234
777.253
777.272
777.29
777.309
777.328
777.347
777.366
777.385
777.404
777.423
777.442
777.462
777.481
777.5
777.519
777.539
777.558
777.578
777.597
777.617
777.636
777.656
777.675
777.695
777.715
777.734
777.754
777.774
777.793
777.813
777.833
777.853
777.873
777.893
777.913
777.933
777.953
777.972
777.993
778.013
778.033
778.053
778.073
778.093
778.113
778.133
778.153
778.173
778.194
778.214
778.234
778.254
778.274
778.295
778.315
778.335
778.355
778.376
778.396
778.416
778.436
778.457
778.477
778.497
778.518
778.538
778.558
778.578
778.599
778.619
778.639
778.66
778.68
778.7
778.72
778.741
778.761
778.781
778.801
778.822
778.842
778.862
778.882
778.903
778.923
778.943
778.963
778.983
779.003
779.023
779.044
779.064
779.084
779.104
779.124
779.144
779.164
779.184
779.204
779.224
779.244
779.264
779.284
779.303
779.323
779.343
779.363
779.383
779.402
779.422
779.442
779.461
779.481
779.501
779.52
779.54
779.559
779.579
779.598
779.618
779.637
779.657
779.676
779.695
779.714
779.734
779.753
779.772
779.791
779.81
779.829
779.848
779.867
779.886
779.905
779.924
779.943
779.962
779.981
779.999
780.018
780.037
780.055
780.074
780.092
780.111
780.129
780.148
780.166
780.184
780.203
780.221
780.239
780.257
780.275
780.293
780.311
780.329
780.347
780.365
780.383
780.401
780.418
780.436
780.454
780.471
780.489
780.506
780.524
780.541
780.558
780.576
780.593
780.61
780.627
780.644
780.661
780.678
780.695
780.712
780.729
780.746
780.762
780.78
780.795
780.814
780.827
780.847
780.86
780.879
780.893
780.912
780.925
780.945
780.956
780.978
780.988
781.009
781.02
781.041
781.051
781.072
781.082
781.104
781.113
781.135
781.143
775.334
775.318
775.293
775.27
775.25
775.233
775.217
775.204
775.193
775.185
775.178
775.173
775.169
775.167
775.167
775.167
775.168
775.17
775.172
775.175
775.178
775.181
775.185
775.189
775.192
775.196
775.2
775.205
775.209
775.213
775.218
775.223
775.227
775.232
775.237
775.242
775.248
775.253
775.258
775.264
775.269
775.275
775.281
775.287
775.293
775.299
775.306
775.312
775.318
775.325
775.332
775.338
775.345
775.352
775.36
775.367
775.374
775.382
775.389
775.397
775.405
775.412
775.42
775.428
775.437
775.445
775.453
775.462
775.47
775.479
775.488
775.497
775.506
775.515
775.524
775.533
775.543
775.552
775.562
775.572
775.582
775.592
775.602
775.612
775.622
775.632
775.643
775.653
775.664
775.675
775.687
775.698
775.709
775.721
775.733
775.744
775.756
775.767
775.779
775.79
775.801
775.813
775.824
775.836
775.848
775.86
775.872
775.884
775.896
775.909
775.922
775.935
775.948
775.962
775.975
775.989
776.003
776.016
776.03
776.044
776.057
776.071
776.085
776.098
776.112
776.127
776.141
776.155
776.169
776.184
776.198
776.212
776.226
776.24
776.255
776.269
776.284
776.299
776.313
776.328
776.343
776.359
776.374
776.39
776.406
776.422
776.438
776.454
776.471
776.487
776.503
776.52
776.536
776.552
776.568
776.584
776.6
776.616
776.632
776.649
776.665
776.682
776.698
776.715
776.732
776.749
776.766
776.783
776.801
776.818
776.836
776.853
776.871
776.888
776.906
776.924
776.942
776.959
776.977
776.995
777.013
777.031
777.05
777.068
777.086
777.104
777.123
777.141
777.16
777.178
777.197
777.215
777.234
777.253
777.272
777.29
777.309
777.328
777.347
777.366
777.385
777.404
777.423
777.442
777.462
777.481
777.5
777.519
777.539
777.558
777.578
777.597
777.617
777.636
777.656
777.675
777.695
777.715
777.734
777.754
777.774
777.793
777.813
777.833
777.853
777.873
777.893
777.913
777.933
777.953
777.973
777.993
778.013
778.033
778.053
778.073
778.093
778.113
778.133
778.153
778.173
778.194
778.214
778.234
778.254
778.274
778.295
778.315
778.335
778.355
778.376
778.396
778.416
778.436
778.457
778.477
778.497
778.518
778.538
778.558
778.578
778.599
778.619
778.639
778.66
778.68
778.7
778.72
778.741
778.761
778.781
778.801
778.822
778.842
778.862
778.882
778.903
778.923
778.943
778.963
778.983
779.003
779.023
779.044
779.064
779.084
779.104
779.124
779.144
779.164
779.184
779.204
779.224
779.244
779.264
779.284
779.303
779.323
779.343
779.363
779.383
779.402
779.422
779.442
779.461
779.481
779.501
779.52
779.54
779.559
779.579
779.598
779.618
779.637
779.657
779.676
779.695
779.714
779.734
779.753
779.772
779.791
779.81
779.829
779.848
779.867
779.886
779.905
779.924
779.943
779.962
779.981
779.999
780.018
780.037
780.055
780.074
780.092
780.111
780.129
780.148
780.166
780.184
780.203
780.221
780.239
780.257
780.275
780.293
780.311
780.329
780.347
780.365
780.383
780.401
780.418
780.436
780.454
780.471
780.489
780.506
780.524
780.541
780.558
780.576
780.593
780.61
780.627
780.644
780.661
780.678
780.695
780.712
780.729
780.746
780.762
780.78
780.794
780.814
780.827
780.847
780.86
780.88
780.892
780.913
780.924
780.945
780.956
780.978
780.988
781.01
781.02
781.041
781.051
781.072
781.082
781.104
781.113
781.137
781.143
775.342
775.327
775.301
775.279
775.259
775.241
775.226
775.213
775.202
775.193
775.186
775.181
775.177
775.176
775.175
775.176
775.176
775.178
775.18
775.183
775.186
775.189
775.193
775.197
775.201
775.204
775.209
775.213
775.217
775.222
775.226
775.231
775.235
775.24
775.245
775.25
775.256
775.261
775.266
775.272
775.277
775.283
775.289
775.295
775.301
775.307
775.313
775.32
775.326
775.333
775.339
775.346
775.353
775.36
775.367
775.374
775.382
775.389
775.397
775.404
775.412
775.42
775.428
775.436
775.444
775.452
775.461
775.469
775.478
775.486
775.495
775.504
775.513
775.522
775.531
775.541
775.55
775.56
775.569
775.579