/*--------------------------------*- C++ -*----------------------------------*\
| =========                 |                                                 |
| \\      /  F ield         | OpenFOAM: The Open Source CFD Toolbox           |
|  \\    /   O peration     | Version:  3.0.x                                 |
|   \\  /    A nd           | Web:      www.OpenFOAM.org                      |
|    \\/     M anipulation  |                                                 |
\*---------------------------------------------------------------------------*/
FoamFile
{
    version     2.0;
    format      ascii;
    class       surfaceScalarField;
    location    "0.56";
    object      phi;
}
// * * * * * * * * * * * * * * * * * * * * * * * * * * * * * * * * * * * * * //

dimensions      [1 0 -1 0 0 0 0];

internalField   nonuniform List<scalar> 
12415
(
5.98542
0.000330438
5.94637
0.000240133
5.90728
0.000233002
5.86813
0.000236381
5.82893
0.000238442
5.78968
0.000239841
5.7504
0.000241143
5.71108
0.000242265
5.67171
0.000243168
5.63231
0.000243887
5.59289
0.000244445
5.55348
0.000244902
5.51406
0.000245239
5.47464
0.000245504
5.43522
0.00024569
5.39582
0.000245841
5.35645
0.000245962
5.3171
0.000246065
5.27778
0.00024615
5.23849
0.000246233
5.19924
0.000246306
5.16003
0.000246384
5.12086
0.000246456
5.08173
0.00024653
5.04265
0.000246606
5.00361
0.000246682
4.96463
0.000246756
4.92571
0.000246842
4.88684
0.000246913
4.84803
0.000247
4.80928
0.000247084
4.7706
0.000247162
4.73199
0.000247258
4.69345
0.00024734
4.65498
0.000247437
4.61659
0.000247532
4.57828
0.000247626
4.54005
0.000247732
4.50191
0.000247839
4.46385
0.000247941
4.42589
0.000248059
4.38802
0.000248185
4.35025
0.000248321
4.31257
0.000248458
4.27499
0.000248598
4.23752
0.000248736
4.20015
0.00024886
4.16289
0.000249011
4.12574
0.000249163
4.08871
0.000249361
4.05179
0.000249581
4.01499
0.000249815
3.97829
0.000250056
3.94171
0.000250287
3.90524
0.000250499
3.86889
0.000250704
3.83266
0.000250912
3.79654
0.000251123
3.76055
0.000251335
3.72468
0.00025155
3.68894
0.000251761
3.65332
0.000251968
3.61783
0.000252178
3.58248
0.000252403
3.54725
0.000252634
3.51216
0.000252844
3.4772
0.000253
3.44238
0.00025306
3.40769
0.000252988
3.37314
0.000252753
3.33873
0.000252335
3.30448
0.000251713
3.27038
0.00025086
3.23643
0.000249737
3.20265
0.000248294
3.16903
0.000246465
3.13557
0.000244181
3.10229
0.000241364
3.06919
0.000237945
3.03626
0.00023386
3.00351
0.000229058
2.97094
0.000223501
2.93857
0.000217169
2.90639
0.000210056
2.8744
0.00020218
2.84262
0.000193574
2.81104
0.000184293
2.77966
0.000174409
2.7485
0.00016401
2.71754
0.000153199
2.6868
0.000142091
2.65627
0.00013081
2.62596
0.000119482
2.59586
0.000108236
2.56598
9.71961e-05
2.53632
8.64792e-05
2.50688
7.61908e-05
2.47765
6.64216e-05
2.44864
5.72455e-05
2.41985
4.87177e-05
2.39127
4.08751e-05
2.36291
3.37371e-05
2.33476
2.73081e-05
2.30683
2.15761e-05
2.2791
1.65175e-05
2.25159
1.20969e-05
2.2243
8.27195e-06
2.19721
4.99414e-06
2.17033
2.20817e-06
2.14367
-2.03096e-07
2.11721
-2.11798e-06
2.09097
-3.73862e-06
2.06494
-5.07111e-06
2.03912
-6.15712e-06
2.01351
-7.03623e-06
1.98812
-7.7427e-06
1.96294
-8.30798e-06
1.93797
-8.75892e-06
1.91322
-9.11941e-06
1.88869
-9.40854e-06
1.86438
-9.64104e-06
1.84029
-9.82992e-06
1.81642
-9.98471e-06
1.79277
-1.0115e-05
1.76934
-1.0227e-05
1.74614
-1.03244e-05
1.72316
-1.04104e-05
1.70041
-1.04871e-05
1.67789
-1.0558e-05
1.65559
-1.06264e-05
1.63351
-1.06927e-05
1.61166
-1.0758e-05
1.59005
-1.08215e-05
1.56865
-1.08836e-05
1.54749
-1.09451e-05
1.52655
-1.10067e-05
1.50584
-1.10697e-05
1.48535
-1.11338e-05
1.46509
-1.11986e-05
1.44506
-1.12632e-05
1.42525
-1.13265e-05
1.40567
-1.13895e-05
1.38631
-1.14535e-05
1.36718
-1.1518e-05
1.34827
-1.15836e-05
1.32959
-1.16504e-05
1.31113
-1.17186e-05
1.29289
-1.17877e-05
1.27488
-1.18575e-05
1.25709
-1.19268e-05
1.23952
-1.19956e-05
1.22217
-1.20638e-05
1.20504
-1.2131e-05
1.18813
-1.21995e-05
1.17144
-1.22682e-05
1.15497
-1.23381e-05
1.13872
-1.24078e-05
1.12269
-1.2478e-05
1.10688
-1.2545e-05
1.09128
-1.26133e-05
1.0759
-1.26812e-05
1.06074
-1.27522e-05
1.04579
-1.28212e-05
1.03106
-1.28908e-05
1.01654
-1.29579e-05
1.00224
-1.3026e-05
0.988157
-1.30909e-05
0.974286
-1.31614e-05
0.960627
-1.32241e-05
0.947181
-1.32993e-05
0.933946
-1.3358e-05
0.920921
-1.34381e-05
0.908105
-1.34883e-05
0.895496
-1.35773e-05
0.883094
-1.36122e-05
0.870896
-1.37271e-05
0.858902
-1.37248e-05
0.847111
-1.39055e-05
0.83552
-1.37952e-05
0.824128
-1.41405e-05
0.812934
-1.3776e-05
0.801937
-1.44814e-05
0.791134
-1.36393e-05
0.780527
-1.49619e-05
0.770109
-1.3321e-05
0.759886
-1.55956e-05
0.74985
-1.19291e-05
0.740006
-1.74059e-05
0.730347
-1.00533e-05
0.720878
-1.94616e-05
0.711592
-9.43452e-06
0.702492
-1.95416e-05
0.693575
-1.06504e-05
0.684836
-1.66046e-05
0.676271
-3.65129e-06
0.667825
4.60347e-05
0.659279
0.000325903
0.649271
0.0019597
0.622158
0.0192258
0.0421565
0.572282
11.9716
0.000262604
11.894
0.000218869
11.8163
0.000197396
11.7386
0.000202518
11.6607
0.000204918
11.5827
0.000205738
11.5046
0.000206769
11.4265
0.000207753
11.3483
0.000208541
11.27
0.000209168
11.1917
0.000209661
11.1134
0.000210063
11.0351
0.000210368
10.9568
0.000210605
10.8785
0.000210779
10.8002
0.000210922
10.722
0.000211039
10.6438
0.00021114
10.5657
0.000211228
10.4876
0.000211311
10.4097
0.000211388
10.3318
0.000211467
10.2539
0.000211543
10.1762
0.000211619
10.0986
0.000211698
10.021
0.000211777
9.9436
0.000211854
9.86628
0.000211939
9.78907
0.000212016
9.71198
0.000212102
9.63501
0.000212187
9.55818
0.00021227
9.48148
0.000212363
9.40493
0.000212449
9.32853
0.000212544
9.25227
0.00021264
9.17618
0.000212735
9.10026
0.000212838
9.0245
0.000212944
8.94892
0.000213047
8.87352
0.00021316
8.79831
0.000213282
8.7233
0.000213411
8.64848
0.000213542
8.57385
0.000213675
8.49944
0.000213807
8.42523
0.000213931
8.35124
0.000214074
8.27748
0.000214223
8.20395
0.000214404
8.13064
0.000214606
8.05757
0.000214819
7.98471
0.000215038
7.91209
0.00021525
7.83969
0.000215448
7.76752
0.000215641
7.69559
0.000215836
7.6239
0.000216032
7.55245
0.000216228
7.48125
0.000216425
7.41029
0.00021662
7.3396
0.000216812
7.26916
0.000217008
7.19899
0.000217214
7.12908
0.000217423
7.05944
0.000217612
6.99006
0.000217752
6.92095
0.00021781
6.85212
0.000217752
6.78356
0.000217551
6.71529
0.00021719
6.64732
0.000216648
6.57965
0.000215901
6.51229
0.000214914
6.44525
0.000213643
6.37854
0.000212032
6.31216
0.00021002
6.24611
0.000207541
6.1804
0.000204535
6.11504
0.000200947
6.05004
0.000196734
5.98539
0.000191864
5.92111
0.000186322
5.8572
0.000180105
5.79366
0.00017323
5.73051
0.000165728
5.66774
0.00015765
5.60536
0.000149059
5.54338
0.000140034
5.4818
0.000130667
5.42062
0.000121058
5.35984
0.000111315
5.29947
0.000101548
5.23952
9.18682e-05
5.17997
8.23826e-05
5.12083
7.31904e-05
5.06211
6.43811e-05
5.0038
5.60311e-05
4.9459
4.82019e-05
4.88842
4.09386e-05
4.83135
3.42706e-05
4.7747
2.82124e-05
4.71846
2.27651e-05
4.66264
1.79167e-05
4.60723
1.36469e-05
4.55224
9.92591e-06
4.49766
6.71564e-06
4.44349
3.97505e-06
4.38975
1.6492e-06
4.33642
-5.2546e-07
4.2835
-2.00008e-06
4.23101
-3.34779e-06
4.17893
-4.46027e-06
4.12728
-5.36573e-06
4.07605
-6.09815e-06
4.02524
-6.68709e-06
3.97486
-7.15839e-06
3.92492
-7.53489e-06
3.8754
-7.83614e-06
3.82632
-8.0783e-06
3.77767
-8.27348e-06
3.72947
-8.4324e-06
3.68171
-8.5631e-06
3.63439
-8.67338e-06
3.58751
-8.76836e-06
3.54109
-8.85125e-06
3.49511
-8.92449e-06
3.44958
-8.99013e-06
3.40451
-9.05066e-06
3.35988
-9.10927e-06
3.31571
-9.16602e-06
3.272
-9.22199e-06
3.22873
-9.27641e-06
3.18592
-9.32967e-06
3.14357
-9.38243e-06
3.10167
-9.43525e-06
3.06022
-9.48923e-06
3.01922
-9.54433e-06
2.97868
-9.59968e-06
2.93859
-9.65546e-06
2.89895
-9.70932e-06
2.85976
-9.76378e-06
2.82103
-9.81841e-06
2.78274
-9.87378e-06
2.7449
-9.93019e-06
2.70751
-9.98748e-06
2.67056
-1.00458e-05
2.63406
-1.01051e-05
2.59801
-1.01651e-05
2.5624
-1.02245e-05
2.52723
-1.02832e-05
2.49251
-1.03423e-05
2.45823
-1.03994e-05
2.42438
-1.04585e-05
2.39098
-1.0517e-05
2.35801
-1.05776e-05
2.32549
-1.06363e-05
2.29339
-1.0698e-05
2.26174
-1.0754e-05
2.23052
-1.08144e-05
2.19973
-1.08702e-05
2.16938
-1.09331e-05
2.13946
-1.09911e-05
2.10997
-1.10527e-05
2.08091
-1.11074e-05
2.05228
-1.11686e-05
2.02408
-1.12199e-05
1.99631
-1.12887e-05
1.96897
-1.13299e-05
1.94204
-1.14105e-05
1.91554
-1.14402e-05
1.88947
-1.15374e-05
1.8638
-1.15421e-05
1.83856
-1.16699e-05
1.81372
-1.16265e-05
1.7893
-1.18336e-05
1.76528
-1.1667e-05
1.74167
-1.2079e-05
1.71846
-1.15783e-05
1.69564
-1.25085e-05
1.67323
-1.1228e-05
1.6512
-1.32564e-05
1.62957
-1.05184e-05
1.60832
-1.44114e-05
1.58745
-9.25465e-06
1.56698
-1.60373e-05
1.54687
-4.58844e-06
1.52715
-2.13605e-05
1.5078
1.4519e-06
1.48884
-2.73413e-05
1.47023
3.71572e-06
1.452
-2.74595e-05
1.43413
1.17992e-06
1.41663
-2.00502e-05
1.39946
2.92714e-05
1.38255
0.000156299
1.36539
0.00104545
1.34538
0.00586189
1.3095
0.0393445
0.0792045
1.25701
143.659
-0.000262604
142.728
-0.000218869
141.796
-0.000197396
140.863
-0.000202518
139.928
-0.000204918
138.992
-0.000205738
138.055
-0.000206769
137.118
-0.000207753
136.179
-0.000208541
135.24
-0.000209168
134.3
-0.000209661
133.361
-0.000210063
132.421
-0.000210368
131.481
-0.000210605
130.541
-0.000210779
129.602
-0.000210922
128.663
-0.000211039
127.725
-0.00021114
126.788
-0.000211228
125.851
-0.000211311
124.916
-0.000211388
123.981
-0.000211467
123.047
-0.000211543
122.114
-0.000211619
121.183
-0.000211698
120.252
-0.000211777
119.323
-0.000211854
118.395
-0.000211939
117.469
-0.000212016
116.544
-0.000212102
115.62
-0.000212187
114.698
-0.00021227
113.778
-0.000212363
112.859
-0.000212449
111.942
-0.000212544
111.027
-0.00021264
110.114
-0.000212735
109.203
-0.000212838
108.294
-0.000212944
107.387
-0.000213047
106.482
-0.00021316
105.58
-0.000213282
104.68
-0.000213411
103.782
-0.000213542
102.886
-0.000213675
101.993
-0.000213807
101.103
-0.000213931
100.215
-0.000214074
99.3299
-0.000214223
98.4475
-0.000214404
97.5678
-0.000214606
96.6909
-0.000214819
95.8167
-0.000215038
94.9452
-0.00021525
94.0764
-0.000215448
93.2104
-0.000215641
92.3472
-0.000215836
91.4869
-0.000216032
90.6295
-0.000216228
89.7751
-0.000216425
88.9237
-0.00021662
88.0754
-0.000216812
87.2302
-0.000217008
86.3881
-0.000217214
85.5493
-0.000217423
84.7135
-0.000217612
83.881
-0.000217752
83.0517
-0.00021781
82.2257
-0.000217752
81.4031
-0.000217551
80.5838
-0.00021719
79.7681
-0.000216648
78.9561
-0.000215901
78.1478
-0.000214914
77.3434
-0.000213643
76.5428
-0.000212032
75.7463
-0.00021002
74.9537
-0.000207541
74.1653
-0.000204535
73.381
-0.000200947
72.6009
-0.000196734
71.8251
-0.000191864
71.0537
-0.000186322
70.2868
-0.000180105
69.5244
-0.00017323
68.7665
-0.000165728
68.0133
-0.00015765
67.2648
-0.000149059
66.521
-0.000140034
65.782
-0.000130667
65.0478
-0.000121058
64.3185
-0.000111315
63.5941
-0.000101548
62.8746
-9.18682e-05
62.16
-8.23826e-05
61.4503
-7.31904e-05
60.7456
-6.43811e-05
60.0459
-5.60311e-05
59.3511
-4.82019e-05
58.6613
-4.09386e-05
57.9765
-3.42706e-05
57.2967
-2.82124e-05
56.6218
-2.27651e-05
55.9519
-1.79167e-05
55.287
-1.36469e-05
54.6271
-9.92599e-06
53.9721
-6.71553e-06
53.3222
-3.97518e-06
52.6772
-1.64904e-06
52.0372
5.25298e-07
51.4022
2.00021e-06
50.7723
3.34765e-06
50.1474
4.46041e-06
49.5275
5.36558e-06
48.9128
6.0983e-06
48.3031
6.68694e-06
47.6986
7.15853e-06
47.0992
7.53476e-06
46.505
7.83626e-06
45.916
8.07818e-06
45.3323
8.27361e-06
44.7538
8.43227e-06
44.1807
8.5632e-06
43.6128
8.67331e-06
43.0504
8.7684e-06
42.4932
8.85116e-06
41.9415
8.92475e-06
41.3952
8.98965e-06
40.8543
9.05131e-06
40.3188
9.10859e-06
39.7888
9.16659e-06
39.2642
9.2216e-06
38.745
9.27662e-06
38.2313
9.32963e-06
37.723
9.38238e-06
37.2202
9.43525e-06
36.7228
9.48938e-06
36.2309
9.54391e-06
35.7444
9.60054e-06
35.2633
9.65413e-06
34.7876
9.71059e-06
34.3174
9.7632e-06
33.8525
9.81832e-06
33.3931
9.87393e-06
32.939
9.93051e-06
32.4903
9.98655e-06
32.0469
1.00471e-05
31.609
1.0104e-05
31.1763
1.01657e-05
30.749
1.0224e-05
30.327
1.02843e-05
29.9103
1.03409e-05
29.4989
1.04004e-05
29.0928
1.04574e-05
28.692
1.05191e-05
28.2964
1.05746e-05
27.906
1.06408e-05
27.5209
1.06927e-05
27.1411
1.07596e-05
26.7664
1.08057e-05
26.397
1.08811e-05
26.0327
1.09262e-05
25.6737
1.0997e-05
25.3198
1.10401e-05
24.9711
1.11205e-05
24.6276
1.11571e-05
24.2892
1.12392e-05
23.9559
1.12606e-05
23.6278
1.13647e-05
23.3047
1.13669e-05
22.9867
1.14995e-05
22.6738
1.14556e-05
22.3659
1.16481e-05
22.0629
1.15244e-05
21.7649
1.18392e-05
21.4718
1.15203e-05
21.1836
1.21448e-05
20.9002
1.13226e-05
20.6217
1.27614e-05
20.3479
1.06751e-05
20.0789
1.3963e-05
19.8146
9.27124e-06
19.555
1.6009e-05
19.3
7.21266e-06
19.0497
1.83399e-05
18.8039
4.90792e-06
18.5627
2.01915e-05
18.326
5.62778e-07
18.0939
2.44601e-05
17.8662
-3.54293e-06
17.643
2.95973e-05
17.4242
-7.51751e-06
17.2098
3.49106e-05
16.9998
-5.92145e-06
16.794
4.00364e-05
16.5927
1.95091e-05
16.3964
1.10801e-05
16.21
-0.000970981
16.0548
0.00538288
-0.0354728
15.9842
11.9716
-0.000330438
11.894
-0.000240133
11.8163
-0.000233002
11.7386
-0.000236381
11.6607
-0.000238442
11.5827
-0.000239841
11.5046
-0.000241143
11.4265
-0.000242265
11.3483
-0.000243168
11.27
-0.000243887
11.1917
-0.000244445
11.1134
-0.000244902
11.0351
-0.000245239
10.9568
-0.000245504
10.8785
-0.00024569
10.8002
-0.000245841
10.722
-0.000245962
10.6438
-0.000246065
10.5657
-0.00024615
10.4876
-0.000246233
10.4097
-0.000246306
10.3318
-0.000246384
10.2539
-0.000246456
10.1762
-0.00024653
10.0986
-0.000246606
10.021
-0.000246682
9.9436
-0.000246756
9.86628
-0.000246842
9.78907
-0.000246913
9.71198
-0.000247
9.63501
-0.000247084
9.55818
-0.000247162
9.48148
-0.000247258
9.40493
-0.00024734
9.32853
-0.000247437
9.25227
-0.000247532
9.17618
-0.000247626
9.10026
-0.000247732
9.0245
-0.000247839
8.94892
-0.000247941
8.87352
-0.000248059
8.79831
-0.000248185
8.7233
-0.000248321
8.64848
-0.000248458
8.57385
-0.000248598
8.49944
-0.000248736
8.42523
-0.00024886
8.35124
-0.000249011
8.27748
-0.000249163
8.20395
-0.000249361
8.13064
-0.000249581
8.05757
-0.000249815
7.98471
-0.000250056
7.91209
-0.000250287
7.83969
-0.000250499
7.76752
-0.000250704
7.69559
-0.000250912
7.6239
-0.000251123
7.55245
-0.000251335
7.48125
-0.00025155
7.41029
-0.000251761
7.3396
-0.000251968
7.26916
-0.000252178
7.19899
-0.000252403
7.12908
-0.000252634
7.05944
-0.000252844
6.99006
-0.000253
6.92095
-0.00025306
6.85212
-0.000252988
6.78356
-0.000252753
6.71529
-0.000252335
6.64732
-0.000251713
6.57965
-0.00025086
6.51229
-0.000249737
6.44525
-0.000248294
6.37854
-0.000246465
6.31216
-0.000244181
6.24611
-0.000241364
6.1804
-0.000237945
6.11504
-0.00023386
6.05004
-0.000229058
5.98539
-0.000223501
5.92111
-0.000217169
5.8572
-0.000210056
5.79366
-0.00020218
5.73051
-0.000193574
5.66774
-0.000184293
5.60536
-0.000174409
5.54338
-0.00016401
5.4818
-0.000153199
5.42062
-0.000142091
5.35984
-0.00013081
5.29947
-0.000119482
5.23952
-0.000108236
5.17997
-9.71961e-05
5.12083
-8.64792e-05
5.06211
-7.61908e-05
5.0038
-6.64216e-05
4.9459
-5.72455e-05
4.88842
-4.87177e-05
4.83135
-4.08751e-05
4.7747
-3.37372e-05
4.71846
-2.73081e-05
4.66264
-2.15761e-05
4.60723
-1.65174e-05
4.55224
-1.2097e-05
4.49766
-8.27185e-06
4.44349
-4.99426e-06
4.38975
-2.20806e-06
4.33642
2.0299e-07
4.2835
2.11806e-06
4.23101
3.73857e-06
4.17893
5.07113e-06
4.12728
6.15713e-06
4.07605
7.03619e-06
4.02524
7.74274e-06
3.97486
8.30793e-06
3.92492
8.75895e-06
3.8754
9.11944e-06
3.82632
9.40843e-06
3.77767
9.64122e-06
3.72947
9.82972e-06
3.68171
9.98485e-06
3.63439
1.0115e-05
3.58751
1.02269e-05
3.54109
1.03245e-05
3.49511
1.04104e-05
3.44958
1.04869e-05
3.40451
1.05583e-05
3.35988
1.0626e-05
3.31571
1.0693e-05
3.272
1.07578e-05
3.22873
1.08216e-05
3.18592
1.08836e-05
3.14357
1.0945e-05
3.10167
1.10067e-05
3.06022
1.10697e-05
3.01922
1.11337e-05
2.97868
1.11989e-05
2.93859
1.12627e-05
2.89895
1.13268e-05
2.85976
1.13895e-05
2.82103
1.14533e-05
2.78274
1.1518e-05
2.7449
1.15839e-05
2.70751
1.16503e-05
2.67056
1.17189e-05
2.63406
1.17871e-05
2.59801
1.18577e-05
2.5624
1.19269e-05
2.52723
1.19961e-05
2.49251
1.20631e-05
2.45823
1.21313e-05
2.42438
1.21992e-05
2.39098
1.22689e-05
2.35801
1.23373e-05
2.32549
1.24092e-05
2.29339
1.24759e-05
2.26174
1.25468e-05
2.23052
1.26109e-05
2.19973
1.26852e-05
2.16938
1.27497e-05
2.13946
1.28227e-05
2.10997
1.28864e-05
2.08091
1.29625e-05
2.05228
1.30226e-05
2.02408
1.30975e-05
1.99631
1.31517e-05
1.96897
1.32357e-05
1.94204
1.32846e-05
1.91554
1.33784e-05
1.88947
1.34103e-05
1.8638
1.35238e-05
1.83856
1.35279e-05
1.81372
1.36839e-05
1.7893
1.36224e-05
1.76528
1.38862e-05
1.74167
1.36497e-05
1.71846
1.41974e-05
1.69564
1.35116e-05
1.67323
1.47205e-05
1.6512
1.30952e-05
1.62957
1.55634e-05
1.60832
1.24243e-05
1.58746
1.65354e-05
1.56697
1.13265e-05
1.54688
1.76492e-05
1.52715
1.00747e-05
1.50781
1.90108e-05
1.48883
9.12104e-06
1.47024
2.0506e-05
1.452
8.05239e-06
1.43414
2.22597e-05
1.41663
8.81754e-06
1.39949
2.45767e-05
1.38271
2.08586e-05
1.36623
4.01928e-05
1.34905
0.000107866
1.31874
0.0199239
0.0288962
1.23894
5.98542
5.94637
5.90728
5.86813
5.82893
5.78968
5.7504
5.71108
5.67171
5.63231
5.59289
5.55348
5.51406
5.47464
5.43522
5.39582
5.35645
5.3171
5.27778
5.23849
5.19924
5.16003
5.12086
5.08173
5.04265
5.00361
4.96463
4.92571
4.88684
4.84803
4.80928
4.7706
4.73199
4.69345
4.65498
4.61659
4.57828
4.54005
4.50191
4.46385
4.42589
4.38802
4.35025
4.31257
4.27499
4.23752
4.20015
4.16289
4.12574
4.08871
4.05179
4.01499
3.97829
3.94171
3.90524
3.86889
3.83266
3.79654
3.76055
3.72468
3.68894
3.65332
3.61783
3.58248
3.54725
3.51216
3.4772
3.44238
3.40769
3.37314
3.33873
3.30448
3.27038
3.23643
3.20265
3.16903
3.13557
3.10229
3.06919
3.03626
3.00351
2.97094
2.93857
2.90639
2.8744
2.84262
2.81104
2.77966
2.7485
2.71754
2.6868
2.65627
2.62596
2.59586
2.56598
2.53632
2.50688
2.47765
2.44864
2.41985
2.39127
2.36291
2.33476
2.30683
2.2791
2.25159
2.2243
2.19721
2.17033
2.14367
2.11721
2.09097
2.06494
2.03912
2.01351
1.98812
1.96294
1.93797
1.91322
1.88869
1.86438
1.84029
1.81642
1.79277
1.76934
1.74614
1.72316
1.70041
1.67789
1.65559
1.63351
1.61166
1.59005
1.56865
1.54749
1.52655
1.50584
1.48535
1.46509
1.44506
1.42525
1.40567
1.38631
1.36718
1.34827
1.32959
1.31113
1.29289
1.27488
1.25709
1.23952
1.22217
1.20504
1.18813
1.17144
1.15497
1.13872
1.12269
1.10688
1.09128
1.0759
1.06074
1.04579
1.03106
1.01654
1.00224
0.988157
0.974286
0.960627
0.947181
0.933946
0.920921
0.908105
0.895496
0.883094
0.870896
0.858902
0.84711
0.83552
0.824128
0.812935
0.801936
0.791136
0.780525
0.770111
0.759884
0.749852
0.740004
0.730349
0.720876
0.711594
0.702491
0.693576
0.684838
0.676286
0.667915
0.659729
0.651791
0.663834
0.685002
0.562661
0.00770077
0.574074
-0.0133244
0.588658
-0.0164882
0.60157
-0.0148102
0.597701
0.00197983
0.584222
0.0115963
0.592284
-0.00993625
0.670383
-0.0799626
0.818008
-0.149481
0.96185
-0.145698
0.996793
-0.0368007
0.932085
0.0628595
0.815445
0.114788
0.655727
0.15788
0.495269
0.158636
0.434657
0.0588069
0.560596
-0.127724
0.747512
-0.18869
0.981617
-0.235866
-0.365505
1.34536
1.26005
0.000913477
1.29009
-0.0471032
1.33197
-0.0620754
1.37235
-0.0588947
1.37465
-0.00400975
1.3501
0.0324742
1.33809
-0.00157618
1.43109
-0.176593
1.65746
-0.379481
1.96001
-0.451869
2.13153
-0.211947
2.12266
0.0681434
1.98265
0.251208
1.70269
0.434255
1.31542
0.542353
1.04042
0.330286
1.10831
-0.199099
1.2968
-0.380644
1.55001
-0.492527
-0.871786
2.05285
15.9602
-0.00997713
15.8912
-0.0127787
15.781
0.0134695
15.6528
0.0348132
15.5618
0.052717
15.4937
0.0663205
15.3821
0.0759221
15.0889
0.0826373
14.5897
0.0858765
14.0203
0.0837819
13.6973
0.0774513
13.6587
0.0733089
13.8028
0.0736488
14.1267
0.0770221
14.5547
0.0811908
14.7658
0.0861337
14.4361
0.0974254
13.9093
0.113191
13.2606
0.123334
0.112656
12.2434
1.21393
0.0129695
1.19963
-0.000534479
1.2051
0.0059578
1.22554
0.0123283
1.26001
0.0162184
1.30425
0.0200497
1.35458
0.0235778
1.40868
0.0265216
1.4642
0.028347
1.51779
0.0281898
1.56685
0.0264009
1.61338
0.02479
1.66059
0.0244541
1.71028
0.0253631
1.76222
0.0272879
1.81569
0.0306928
1.87444
0.0367216
1.94175
0.0439306
2.01831
0.0448316
0.0138145
2.11521
0.696988
0.695473
0.700455
0.71181
0.727058
0.746142
0.768756
0.794318
0.821708
0.848943
0.874393
0.898235
0.921743
0.946164
0.972513
1.00227
1.03806
1.08106
1.12496
1.13785
1.77077
-0.431135
1.59364
0.171666
1.49542
0.0929151
1.87801
-0.387757
2.20886
-0.336115
2.18131
0.0224619
2.06133
0.115069
2.34249
-0.285875
2.53352
-0.196001
2.4349
0.0938932
2.27063
0.159733
2.64677
-0.380438
2.88956
-0.247558
2.77216
0.113023
2.48428
0.283695
2.21916
0.261045
2.80146
-0.585987
3.2509
-0.454169
3.13649
0.110222
2.81186
0.320899
2.31797
0.490207
2.23977
0.0748397
3.10355
-0.867371
3.54763
-0.448862
3.38569
0.158003
3.04442
0.337877
2.6396
0.401555
2.92744
-0.290432
3.42531
-0.501832
3.43178
-0.0102877
3.3174
0.111342
3.21367
0.10093
3.14076
0.0702063
3.09663
0.0414992
3.06795
0.0261053
3.04227
0.0231548
3.00207
0.0377098
2.89727
0.102344
2.64201
0.252846
2.30802
0.3317
2.79498
-0.488694
3.37299
-0.581368
3.34762
0.0224244
3.23156
0.113793
3.13062
0.0987859
3.0639
0.0645951
3.02689
0.0349499
3.00579
0.0191199
2.99257
0.0113148
2.98326
0.00745421
2.97595
0.00551087
2.96966
0.004517
2.96389
0.00400587
2.95841
0.00373966
2.95308
0.00359507
2.94786
0.0034984
2.9428
0.00335577
2.93794
0.00318148
2.93325
0.00304956
2.92866
0.00297234
2.92414
0.00294407
2.91966
0.0029474
2.9152
0.00297237
2.91074
0.00301144
2.90628
0.00305866
2.90182
0.00310915
2.89735
0.00315805
2.89287
0.00320106
2.8884
0.00323495
2.88394
0.0032583
2.87951
0.00326687
2.8751
0.00325927
2.87075
0.00323595
2.86644
0.00320075
2.86221
0.00314586
2.85805
0.0030758
2.85397
0.00300778
2.84995
0.00294399
2.84598
0.00290072
2.84201
0.00290055
2.83797
0.00297518
2.83373
0.00317029
2.8291
0.00355451
2.82379
0.00423843
2.81728
0.00543902
2.80868
0.0075411
2.79618
0.0114365
2.77597
0.0191591
2.7398
0.0351244
2.6714
0.0673809
2.54884
0.121542
2.36527
0.182565
2.22548
0.138825
2.51413
-0.289393
2.91306
-0.400083
3.0509
-0.139136
2.98095
0.0688409
2.88072
0.0992963
2.78326
0.0965184
2.70168
0.0806498
2.63358
0.0671814
2.57449
0.058187
2.52201
0.0515454
2.47494
0.0461617
2.43145
0.0425973
2.38921
0.0413558
2.34525
0.0430814
2.29654
0.0478049
2.24031
0.0553201
2.17399
0.0654462
2.0952
0.0779383
2.00145
0.0928891
1.89004
0.110513
1.75855
0.130441
1.60604
0.151555
1.43452
0.170632
1.2515
0.182189
1.06905
0.181698
0.901143
0.167085
0.758703
0.14156
0.646186
0.111603
0.561851
0.0833984
0.500578
0.0603262
0.456649
0.0429724
0.425217
0.0304653
0.402635
0.021605
0.386301
0.0153476
0.37439
0.0109167
0.365622
0.00776691
0.359097
0.00552074
0.354173
0.00391602
0.350396
0.00276912
0.347439
0.00195023
0.345069
0.00136676
0.34312
0.000952265
0.341471
0.000658918
0.340038
0.000452201
0.33876
0.000307223
0.337595
0.000206062
0.336513
0.000135855
0.335493
8.74015e-05
0.334519
5.41555e-05
0.333581
3.14754e-05
0.332671
1.60959e-05
0.331785
5.67657e-06
0.330918
-1.35232e-06
0.330067
-6.00791e-06
0.329229
-9.05863e-06
0.328403
-1.10182e-05
0.327587
-1.23017e-05
0.326779
-1.31413e-05
0.325978
-1.36738e-05
0.325184
-1.40234e-05
0.324396
-1.42347e-05
0.323613
-1.4377e-05
0.322835
-1.44573e-05
0.322061
-1.45207e-05
0.321292
-1.45548e-05
0.320527
-1.45827e-05
0.319767
-1.45914e-05
0.31901
-1.4598e-05
0.318257
-1.45926e-05
0.317508
-1.4606e-05
0.316762
-1.45996e-05
0.316019
-1.46254e-05
0.315277
-1.46101e-05
0.314537
-1.46341e-05
0.313796
-1.46052e-05
0.313054
-1.46313e-05
0.31231
-1.45943e-05
0.311564
-1.4641e-05
0.310814
-1.4573e-05
0.31006
-1.46705e-05
0.309301
-1.45151e-05
0.308538
-1.4755e-05
0.307772
-1.44324e-05
0.307002
-1.49291e-05
0.306231
-1.42951e-05
0.305458
-1.5097e-05
0.304686
-1.40906e-05
0.303916
-1.5251e-05
0.30315
-1.3956e-05
0.30239
-1.53366e-05
0.301636
-1.39343e-05
0.300891
-1.5339e-05
0.300155
-1.4035e-05
0.299429
-1.53467e-05
0.298714
-1.38632e-05
0.298009
-1.57335e-05
0.297313
-1.35213e-05
0.296627
-1.57412e-05
0.295947
-1.36139e-05
0.295274
-1.43906e-05
0.294602
-9.91184e-06
0.293918
4.74796e-06
0.293163
7.73163e-05
0.292109
0.00037688
0.290208
0.00122172
0.296741
-0.00721096
-0.0151979
0.31126
2.95487
-1.34448
2.58557
0.530061
2.14661
0.521083
2.71241
-0.963836
3.41563
-1.04969
3.35223
0.0757854
2.8893
0.568102
3.31349
-0.719662
3.8111
-0.703323
3.60526
0.290456
3.0429
0.71295
3.65984
-1.00606
4.34453
-0.941542
4.21003
0.239039
3.45826
1.02718
2.63088
1.07995
3.63326
-1.59579
4.83192
-1.66191
4.85511
0.0790741
4.14681
1.02181
2.87581
1.75379
2.40057
0.543221
4.05899
-2.53286
5.36095
-1.75993
5.36893
0.142689
4.73182
0.968254
3.69769
1.42904
4.01676
-0.61497
5.20088
-1.69346
5.60363
-0.420037
5.60071
0.108369
5.51707
0.179016
5.44632
0.135581
5.40242
0.0801454
5.37074
0.0526441
5.33355
0.0552957
5.25801
0.108274
5.02598
0.329487
4.37488
0.899122
3.29867
1.40311
3.87135
-1.06506
5.21991
-1.93617
5.56245
-0.325374
5.52396
0.147882
5.42391
0.194582
5.34821
0.136077
5.30616
0.0728954
5.2817
0.0396255
5.26539
0.0238035
5.25288
0.0162715
5.24212
0.0126618
5.23214
0.0109405
5.22248
0.0101589
5.2129
0.00983146
5.20332
0.00970445
5.19375
0.00962157
5.18436
0.00933476
5.17528
0.00891107
5.16644
0.00858901
5.15778
0.00840489
5.14924
0.00834167
5.14077
0.00834804
5.13237
0.00839929
5.12401
0.00847864
5.1157
0.00857434
5.10742
0.00867768
5.09917
0.00877999
5.09095
0.00887447
5.08276
0.00895746
5.07459
0.00903155
5.06643
0.00908904
5.05827
0.00913163
5.05009
0.00916659
5.04187
0.00921366
5.03359
0.00925244
5.0252
0.00930423
5.01662
0.00943476
5.00776
0.00965932
4.99847
0.0100431
4.98855
0.010675
4.97771
0.0116783
4.9655
0.0132293
4.95131
0.0155904
4.93423
0.0191787
4.91273
0.0248014
4.88428
0.0338713
4.84396
0.0496405
4.78138
0.079632
4.6734
0.140999
4.47025
0.268445
4.08918
0.500524
3.46773
0.801976
2.84134
0.7633
3.15859
-0.608186
4.02226
-1.26604
4.60703
-0.726479
4.74694
-0.0732225
4.70419
0.140177
4.60327
0.195568
4.49429
0.187755
4.38627
0.173328
4.27978
0.16285
4.17604
0.153485
4.0762
0.144204
3.97868
0.138286
3.88006
0.138118
3.77521
0.146151
3.65892
0.162352
3.52688
0.185631
3.37612
0.214473
3.20533
0.246854
3.01462
0.281579
2.80445
0.318819
2.57601
0.357112
2.33283
0.393015
2.08113
0.420771
1.83285
0.428914
1.60223
0.410674
1.40115
0.366425
1.23605
0.304859
1.1069
0.238915
1.00914
0.17928
0.936496
0.131086
0.882885
0.0946728
0.84332
0.0680976
0.814003
0.0489691
0.792141
0.0352373
0.775708
0.0253615
0.763234
0.0182407
0.753647
0.0130969
0.74617
0.00937878
0.74023
0.00669295
0.735411
0.00475637
0.731408
0.00336399
0.727999
0.00236654
0.725023
0.00165507
0.722363
0.00115002
0.719936
0.000793372
0.717682
0.000542906
0.715557
0.000368026
0.713531
0.000246642
0.711583
0.00016291
0.709696
0.000105501
0.707859
6.6392e-05
0.706064
3.98681e-05
0.704303
2.20507e-05
0.702573
1.0179e-05
0.700868
2.2311e-06
0.699186
-2.91523e-06
0.697522
-6.32266e-06
0.695876
-8.56299e-06
0.694244
-9.99067e-06
0.692624
-1.09348e-05
0.691017
-1.1511e-05
0.689419
-1.1904e-05
0.687832
-1.21227e-05
0.686253
-1.22918e-05
0.684684
-1.23753e-05
0.683123
-1.2446e-05
0.68157
-1.24715e-05
0.680026
-1.24998e-05
0.678489
-1.24913e-05
0.67696
-1.25289e-05
0.675437
-1.2498e-05
0.673918
-1.25577e-05
0.672404
-1.25047e-05
0.670891
-1.25713e-05
0.669378
-1.24981e-05
0.667863
-1.25748e-05
0.666344
-1.24788e-05
0.66482
-1.2597e-05
0.663289
-1.24178e-05
0.661749
-1.26635e-05
0.660201
-1.22327e-05
0.658644
-1.29075e-05
0.65708
-1.19727e-05
0.655509
-1.33875e-05
0.653934
-1.15766e-05
0.652358
-1.38459e-05
0.650782
-1.1057e-05
0.649211
-1.41938e-05
0.647648
-1.07793e-05
0.646096
-1.4323e-05
0.644557
-1.07178e-05
0.643035
-1.43113e-05
0.641532
-1.08717e-05
0.640049
-1.44146e-05
0.638586
-1.02307e-05
0.637145
-1.56071e-05
0.635722
-9.17653e-06
0.634318
-1.56163e-05
0.632928
-9.40301e-06
0.63155
-1.16818e-05
0.630175
1.5727e-06
0.628773
4.704e-05
0.627222
0.00027366
0.625007
0.00123617
0.620375
0.00449826
0.602111
0.0096959
0.00988803
0.575665
10.4094
0.355986
10.4281
0.380734
10.3886
0.432087
8.90236
0.395766
7.47069
0.257988
7.20436
0.22065
7.38141
0.271609
6.26294
0.281467
5.27406
0.171153
5.2852
0.167288
5.65289
0.235058
4.3122
0.226501
3.16617
0.0997801
3.22317
0.0793868
4.00456
0.145921
4.72962
0.255535
2.83013
0.205423
1.03514
0.0392937
1.01535
0.00639679
1.90656
0.0403324
3.40758
0.164967
3.56166
0.301473
0.790465
0.150989
-1.00932
-0.0422023
-0.90603
-0.0440499
-0.0337979
0.0126755
1.1618
0.154794
0.289032
0.175011
-1.52433
0.0452336
-2.00892
-0.00708635
-1.97818
0.00835756
-1.88961
0.0239639
-1.8488
0.0305798
-1.86195
0.0307951
-1.89727
0.026665
-1.92176
0.0193681
-1.88389
0.0107826
-1.62379
0.0104838
-0.801676
0.0188459
0.407931
0.13699
-0.864509
0.147612
-2.86149
0.0103221
-3.15137
-0.0857565
-3.0436
-0.0109901
-2.9078
0.00791988
-2.8354
0.0135774
-2.82556
0.0141991
-2.84627
0.0130295
-2.87939
0.0112062
-2.9169
0.00942579
-2.95512
0.00757698
-2.99264
0.00585301
-3.02911
0.00444675
-3.06431
0.00313283
-3.09812
0.00187548
-3.13007
0.000262355
-3.15834
-0.00324724
-3.18443
-0.00525107
-3.20903
-0.00632557
-3.23231
-0.00699081
-3.25425
-0.00746386
-3.27483
-0.0078181
-3.29407
-0.00807038
-3.31202
-0.00822694
-3.32875
-0.0082897
-3.34437
-0.00826332
-3.35898
-0.00815656
-3.37271
-0.00798179
-3.38566
-0.00775825
-3.39796
-0.00751394
-3.40969
-0.00727279
-3.42094
-0.00706879
-3.43175
-0.00693787
-3.44211
-0.00692733
-3.45192
-0.00712356
-3.46115
-0.00742636
-3.46959
-0.00793651
-3.47701
-0.00865652
-3.48308
-0.00958151
-3.48738
-0.0107435
-3.48928
-0.0121949
-3.48784
-0.0140196
-3.48172
-0.0163749
-3.46889
-0.0195149
-3.44604
-0.0238807
-3.40788
-0.0300151
-3.3458
-0.0380386
-3.24551
-0.0460787
-3.08351
-0.0462271
-2.80856
-0.0314579
-2.32479
-0.0078914
-1.56836
0.0214324
-0.923751
0.0947573
-1.64045
0.0828987
-2.82504
-0.105563
-3.32563
-0.248824
-3.17837
-0.243188
-2.83485
-0.225922
-2.42561
-0.236087
-1.98675
-0.273378
-1.50768
-0.327859
-0.980301
-0.386461
-0.413661
-0.434917
0.167245
-0.4583
0.734049
-0.449978
1.26012
-0.409283
1.73749
-0.352412
2.17905
-0.300278
2.60986
-0.266119