/*--------------------------------*- C++ -*----------------------------------*\
| =========                 |                                                 |
| \\      /  F ield         | OpenFOAM: The Open Source CFD Toolbox           |
|  \\    /   O peration     | Version:  3.0.x                                 |
|   \\  /    A nd           | Web:      www.OpenFOAM.org                      |
|    \\/     M anipulation  |                                                 |
\*---------------------------------------------------------------------------*/
FoamFile
{
    version     2.0;
    format      ascii;
    class       volScalarField;
    location    "0.56";
    object      rho;
}
// * * * * * * * * * * * * * * * * * * * * * * * * * * * * * * * * * * * * * //

dimensions      [1 -3 0 0 0 0 0];

internalField   nonuniform List<scalar> 
6900
(
52.9086
52.912
52.9171
52.922
52.9266
52.9308
52.9349
52.9388
52.9425
52.9459
52.9491
52.9522
52.9554
52.9585
52.9616
52.9646
52.9678
52.971
52.9743
52.9777
52.9811
52.9847
52.9883
52.992
52.9957
52.9996
53.0035
53.0074
53.0115
53.0156
53.0198
53.024
53.0283
53.0327
53.0372
53.0417
53.0463
53.051
53.0557
53.0605
53.0654
53.0704
53.0754
53.0805
53.0856
53.0909
53.0961
53.1015
53.107
53.1126
53.1183
53.1241
53.13
53.1359
53.1418
53.1478
53.1538
53.1598
53.166
53.1721
53.1784
53.1847
53.1911
53.1977
53.2043
53.2109
53.2176
53.2243
53.2309
53.2376
53.2442
53.2509
53.2575
53.2643
53.271
53.2779
53.2847
53.2916
53.2985
53.3054
53.3123
53.3192
53.3261
53.333
53.3398
53.3467
53.3535
53.3604
53.3673
53.3741
53.381
53.3879
53.3948
53.4017
53.4086
53.4155
53.4224
53.4293
53.4362
53.4431
53.45
53.4569
53.4637
53.4706
53.4775
53.4843
53.4912
53.498
53.5049
53.5117
53.5185
53.5253
53.532
53.5388
53.5455
53.5522
53.5589
53.5656
53.5723
53.5789
53.5855
53.5921
53.5987
53.6052
53.6118
53.6183
53.6248
53.6312
53.6377
53.6441
53.6505
53.6569
53.6632
53.6695
53.6758
53.6821
53.6883
53.6945
53.7007
53.7068
53.7129
53.719
53.7251
53.7311
53.7371
53.743
53.7489
53.7548
53.7606
53.7664
53.7721
53.7778
53.7835
53.7891
53.7947
53.8003
53.8058
53.8112
53.8166
53.822
53.8273
53.8326
53.8378
53.843
53.8482
53.8533
53.8583
53.8633
53.8683
53.8732
53.8781
53.8829
53.8877
53.8924
53.8971
53.9018
53.9064
53.9109
53.9154
53.9198
53.9243
53.9285
53.933
53.937
53.9414
53.9453
53.9497
53.9533
53.9577
53.9612
53.9655
53.9688
53.9731
53.9763
53.9803
53.9836
53.9871
53.9909
53.9938
53.9972
52.9089
52.9122
52.9174
52.9223
52.9269
52.9311
52.9352
52.9391
52.9428
52.9462
52.9493
52.9525
52.9557
52.9588
52.9618
52.9649
52.968
52.9713
52.9745
52.9779
52.9814
52.9849
52.9885
52.9922
52.996
52.9998
53.0037
53.0077
53.0117
53.0158
53.02
53.0243
53.0286
53.033
53.0374
53.042
53.0465
53.0512
53.056
53.0608
53.0656
53.0706
53.0756
53.0807
53.0859
53.0911
53.0964
53.1017
53.1072
53.1128
53.1185
53.1243
53.1302
53.1361
53.142
53.148
53.154
53.16
53.1662
53.1723
53.1786
53.1849
53.1913
53.1978
53.2044
53.2111
53.2178
53.2245
53.2311
53.2378
53.2444
53.2511
53.2577
53.2645
53.2712
53.278
53.2849
53.2918
53.2987
53.3056
53.3125
53.3194
53.3263
53.3331
53.34
53.3468
53.3537
53.3606
53.3674
53.3743
53.3812
53.3881
53.395
53.4019
53.4087
53.4156
53.4225
53.4294
53.4363
53.4432
53.4501
53.457
53.4639
53.4708
53.4776
53.4845
53.4914
53.4982
53.505
53.5118
53.5186
53.5254
53.5322
53.5389
53.5457
53.5524
53.5591
53.5658
53.5724
53.5791
53.5857
53.5923
53.5989
53.6054
53.6119
53.6185
53.6249
53.6314
53.6378
53.6443
53.6506
53.657
53.6634
53.6697
53.676
53.6822
53.6885
53.6947
53.7008
53.707
53.7131
53.7192
53.7252
53.7312
53.7372
53.7432
53.7491
53.7549
53.7608
53.7666
53.7723
53.778
53.7837
53.7893
53.7949
53.8004
53.8059
53.8114
53.8168
53.8221
53.8275
53.8327
53.838
53.8432
53.8483
53.8534
53.8585
53.8635
53.8685
53.8734
53.8783
53.8831
53.8879
53.8926
53.8973
53.9019
53.9065
53.9111
53.9156
53.92
53.9244
53.9287
53.9331
53.9372
53.9416
53.9455
53.9499
53.9535
53.9579
53.9613
53.9657
53.969
53.9732
53.9764
53.9805
53.9836
53.9876
53.9906
53.9944
53.9974
52.9089
52.9122
52.9174
52.9223
52.9269
52.9311
52.9352
52.9391
52.9428
52.9461
52.9493
52.9525
52.9557
52.9588
52.9618
52.9649
52.968
52.9712
52.9745
52.9779
52.9814
52.9849
52.9885
52.9922
52.996
52.9998
53.0037
53.0077
53.0117
53.0158
53.02
53.0243
53.0286
53.033
53.0374
53.0419
53.0465
53.0512
53.056
53.0608
53.0656
53.0706
53.0756
53.0807
53.0859
53.0911
53.0963
53.1017
53.1072
53.1128
53.1185
53.1243
53.1302
53.1361
53.142
53.148
53.154
53.16
53.1662
53.1723
53.1786
53.1849
53.1913
53.1978
53.2044
53.2111
53.2178
53.2245
53.2311
53.2378
53.2444
53.2511
53.2577
53.2644
53.2712
53.278
53.2849
53.2918
53.2987
53.3056
53.3125
53.3194
53.3263
53.3331
53.34
53.3468
53.3537
53.3606
53.3674
53.3743
53.3812
53.3881
53.395
53.4019
53.4087
53.4156
53.4225
53.4294
53.4363
53.4432
53.4501
53.457
53.4639
53.4708
53.4776
53.4845
53.4914
53.4982
53.505
53.5118
53.5186
53.5254
53.5322
53.5389
53.5457
53.5524
53.5591
53.5658
53.5724
53.5791
53.5857
53.5923
53.5989
53.6054
53.6119
53.6185
53.6249
53.6314
53.6378
53.6443
53.6506
53.657
53.6634
53.6697
53.676
53.6822
53.6885
53.6947
53.7008
53.707
53.7131
53.7192
53.7252
53.7312
53.7372
53.7432
53.7491
53.7549
53.7608
53.7666
53.7723
53.778
53.7837
53.7893
53.7949
53.8004
53.8059
53.8114
53.8168
53.8221
53.8275
53.8327
53.838
53.8432
53.8483
53.8534
53.8585
53.8635
53.8685
53.8734
53.8783
53.8831
53.8879
53.8926
53.8973
53.9019
53.9065
53.9111
53.9156
53.92
53.9244
53.9287
53.9331
53.9373
53.9415
53.9456
53.9497
53.9537
53.9577
53.9616
53.9655
53.9692
53.9731
53.9765
53.9804
53.9839
53.9873
53.9908
53.9943
53.9975
52.9089
52.9122
52.9174
52.9223
52.9269
52.9311
52.9352
52.9391
52.9428
52.9462
52.9493
52.9525
52.9557
52.9588
52.9618
52.9649
52.968
52.9713
52.9745
52.9779
52.9814
52.9849
52.9885
52.9922
52.996
52.9998
53.0037
53.0077
53.0117
53.0158
53.02
53.0243
53.0286
53.033
53.0374
53.042
53.0465
53.0512
53.056
53.0608
53.0656
53.0706
53.0756
53.0807
53.0859
53.0911
53.0964
53.1017
53.1072
53.1128
53.1185
53.1243
53.1302
53.1361
53.142
53.148
53.154
53.16
53.1662
53.1723
53.1786
53.1849
53.1913
53.1978
53.2044
53.2111
53.2178
53.2245
53.2311
53.2378
53.2444
53.2511
53.2577
53.2645
53.2712
53.278
53.2849
53.2918
53.2987
53.3056
53.3125
53.3194
53.3263
53.3331
53.34
53.3468
53.3537
53.3606
53.3674
53.3743
53.3812
53.3881
53.395
53.4019
53.4087
53.4156
53.4225
53.4294
53.4363
53.4432
53.4501
53.457
53.4639
53.4708
53.4776
53.4845
53.4914
53.4982
53.505
53.5118
53.5186
53.5254
53.5322
53.5389
53.5457
53.5524
53.5591
53.5658
53.5724
53.5791
53.5857
53.5923
53.5989
53.6054
53.6119
53.6185
53.6249
53.6314
53.6378
53.6443
53.6506
53.657
53.6634
53.6697
53.676
53.6822
53.6885
53.6947
53.7008
53.707
53.7131
53.7192
53.7252
53.7312
53.7372
53.7432
53.7491
53.7549
53.7608
53.7666
53.7723
53.778
53.7837
53.7893
53.7949
53.8004
53.8059
53.8114
53.8168
53.8221
53.8275
53.8327
53.838
53.8432
53.8483
53.8534
53.8585
53.8635
53.8685
53.8734
53.8782
53.8831
53.8879
53.8926
53.8973
53.9019
53.9065
53.9111
53.9155
53.92
53.9244
53.9288
53.933
53.9374
53.9414
53.9458
53.9495
53.9539
53.9575
53.9618
53.9652
53.9695
53.9727
53.9769
53.98
53.9841
53.9871
53.991
53.9944
53.9971
52.9086
52.912
52.9171
52.922
52.9266
52.9308
52.9349
52.9388
52.9425
52.9459
52.9491
52.9522
52.9554
52.9585
52.9616
52.9646
52.9678
52.971
52.9743
52.9777
52.9811
52.9847
52.9883
52.992
52.9957
52.9996
53.0035
53.0074
53.0115
53.0156
53.0198
53.024
53.0283
53.0327
53.0372
53.0417
53.0463
53.051
53.0557
53.0605
53.0654
53.0704
53.0754
53.0805
53.0856
53.0909
53.0961
53.1015
53.107
53.1126
53.1183
53.1241
53.13
53.1359
53.1418
53.1478
53.1538
53.1598
53.166
53.1721
53.1784
53.1847
53.1911
53.1977
53.2043
53.2109
53.2176
53.2243
53.2309
53.2376
53.2442
53.2509
53.2575
53.2643
53.271
53.2779
53.2847
53.2916
53.2985
53.3054
53.3123
53.3192
53.3261
53.333
53.3398
53.3467
53.3535
53.3604
53.3673
53.3741
53.381
53.3879
53.3948
53.4017
53.4086
53.4155
53.4224
53.4293
53.4362
53.4431
53.45
53.4569
53.4637
53.4706
53.4775
53.4843
53.4912
53.498
53.5049
53.5117
53.5185
53.5253
53.532
53.5388
53.5455
53.5522
53.5589
53.5656
53.5723
53.5789
53.5855
53.5921
53.5987
53.6052
53.6118
53.6183
53.6248
53.6312
53.6377
53.6441
53.6505
53.6569
53.6632
53.6695
53.6758
53.6821
53.6883
53.6945
53.7007
53.7068
53.7129
53.719
53.7251
53.7311
53.7371
53.743
53.7489
53.7548
53.7606
53.7664
53.7721
53.7778
53.7835
53.7891
53.7947
53.8003
53.8058
53.8112
53.8166
53.822
53.8273
53.8326
53.8378
53.843
53.8482
53.8533
53.8583
53.8633
53.8683
53.8732
53.8781
53.8829
53.8877
53.8924
53.8971
53.9018
53.9064
53.9109
53.9154
53.9199
53.9242
53.9287
53.9328
53.9372
53.9412
53.9456
53.9494
53.9538
53.9573
53.9617
53.965
53.9693
53.9726
53.9767
53.9799
53.9839
53.987
53.9907
53.9945
53.9967
53.9993
54.0001
54.0009
54.0015
54.002
54.0026
54.0032
54.0041
54.0051
54.0058
54.0059
54.0056
54.0053
54.0045
54.0046
54.0054
54.0074
54.0091
54.0105
54.0122
53.9993
54
54.0007
54.0013
54.0018
54.0023
54.003
54.0041
54.0051
54.0057
54.0056
54.0054
54.0057
54.0054
54.0053
54.0062
54.0079
54.0092
54.0101
54.0108
53.9995
54.0001
54.0006
54.0011
54.0017
54.0021
54.0025
54.003
54.0033
54.0037
54.0041
54.0045
54.0045
54.0046
54.0048
54.0049
54.0044
54.0043
54.004
54.0038
53.9996
54.0001
54.0007
54.0012
54.0017
54.0022
54.0027
54.0032
54.0037
54.0041
54.0046
54.005
54.0054
54.0059
54.0064
54.0069
54.0072
54.0074
54.0075
54.0074
53.9987
53.9991
53.9996
54.0001
54.0007
54.0012
54.0017
54.0022
54.0027
54.0032
54.0036
54.0041
54.0046
54.0051
54.0056
54.0061
54.0065
54.007
54.0073
54.0076
54.0116
54.0097
54.0122
54.0178
54.0189
54.0168
54.0195
54.0267
54.028
54.0251
54.0274
54.0376
54.0386
54.0333
54.0342
54.0376
54.0536
54.0545
54.0428
54.0418
54.0453
54.0504
54.0721
54.0665
54.0516
54.0505
54.056
54.0679
54.0766
54.064
54.0582
54.0593
54.0607
54.0618
54.063
54.0641
54.0652
54.0666
54.0683
54.0717
54.0887
54.0955
54.079
54.0733
54.074
54.075
54.0757
54.0766
54.0774
54.0783
54.0792
54.0801
54.0809
54.0817
54.0825
54.0833
54.084
54.0847
54.0853
54.086
54.0866
54.0872
54.0878
54.0884
54.0889
54.0895
54.0901
54.0907
54.0913
54.0919
54.0925
54.0931
54.0937
54.0943
54.0948
54.0953
54.0959
54.0964
54.0969
54.0973
54.0978
54.0983
54.0987
54.0991
54.0994
54.0998
54.1001
54.1005
54.101
54.1016
54.1025
54.1035
54.1051
54.1113
54.114
54.1089
54.1045
54.1044
54.1053
54.1061
54.107
54.1078
54.1084
54.1087
54.1094
54.1103
54.1111
54.1114
54.111
54.1112
54.112
54.113
54.1133
54.1103
54.1062
54.1057
54.1071
54.1124
54.1182
54.1213
54.1222
54.1223
54.1219
54.1219
54.1219
54.1221
54.1223
54.1225
54.1228
54.1231
54.1234
54.1237
54.124
54.1243
54.1246
54.1249
54.1252
54.1254
54.1257
54.126
54.1262
54.1264
54.1267
54.1269
54.1271
54.1273
54.1275
54.1277
54.1279
54.128
54.1282
54.1284
54.1286
54.1287
54.1289
54.1291
54.1292
54.1294
54.1296
54.1297
54.1299
54.1301
54.1302
54.1304
54.1305
54.1307
54.1308
54.131
54.1312
54.1313
54.1315
54.1316
54.1318
54.132
54.1321
54.1323
54.1324
54.1326
54.1327
54.1329
54.1329
54.1332
54.1332
54.1334
54.1334
54.1336
54.1336
54.1338
54.1337
54.1339
54.1338
54.134
54.1339
54.134
54.1339
54.134
54.134
54.1338
54.134
54.134
54.0102
54.0098
54.0102
54.0124
54.0146
54.0146
54.0168
54.0191
54.0204
54.0205
54.0232
54.0286
54.0294
54.0274
54.0302
54.0322
54.0424
54.0435
54.0365
54.0385
54.0421
54.0421
54.06
54.0558
54.0462
54.0479
54.0531
54.0603
54.0674
54.0578
54.0556
54.0574
54.0591
54.0604
54.0616
54.0627
54.0639
54.0655
54.0675
54.0705
54.0811
54.0868
54.0736
54.071
54.0724
54.0736
54.0745
54.0754
54.0763
54.0772
54.0781
54.079
54.0799
54.0807
54.0815
54.0822
54.0829
54.0836
54.0842
54.0848
54.0854
54.086
54.0866
54.0873
54.0879
54.0885
54.0891
54.0898
54.0904
54.091
54.0916
54.0922
54.0928
54.0934
54.0939
54.0945
54.095
54.0955
54.0959
54.0964
54.0968
54.0972
54.0975
54.0978
54.0982
54.0986
54.0991
54.0995
54.0998
54.1001
54.1004
54.1007
54.1024
54.1087
54.1115
54.1066
54.1027
54.103
54.1039
54.1046
54.105
54.1057
54.1067
54.1076
54.1081
54.1077
54.1079
54.1086
54.1097
54.1104
54.11
54.1062
54.1033
54.103
54.1038
54.1067
54.1125
54.1173
54.1203
54.1216
54.1219
54.1217
54.1216
54.1217
54.1219
54.1221
54.1224
54.1226
54.1229
54.1232
54.1235
54.1238
54.1241
54.1244
54.1247
54.125
54.1253
54.1256
54.1258
54.1261
54.1263
54.1266
54.1268
54.127
54.1272
54.1274
54.1276
54.1278
54.128
54.1282
54.1284
54.1285
54.1287
54.1289
54.129
54.1292
54.1294
54.1295
54.1297
54.1299
54.13
54.1302
54.1303
54.1305
54.1307
54.1308
54.131
54.1311
54.1313
54.1315
54.1316
54.1318
54.1319
54.1321
54.1322
54.1324
54.1325
54.1327
54.1328
54.133
54.1331
54.1333
54.1333
54.1335
54.1335
54.1337
54.1337
54.1339
54.1339
54.134
54.134
54.1341
54.134
54.1341
54.134
54.1341
54.134
54.134
54.1342
54.1339
54.0018
54.0018
54.0014
54.0007
54.0003
54.0006
54.0008
54.0008
54.0014
54.0028
54.0041
54.0045
54.0061
54.0083
54.0102
54.012
54.0119
54.0136
54.0165
54.0184
54.0207
54.0218
54.0205
54.0224
54.0256
54.0274
54.031
54.0312
54.0311
54.034
54.0364
54.0384
54.0402
54.0418
54.0432
54.0445
54.0457
54.0468
54.0474
54.0488
54.0477
54.0479
54.0509
54.053
54.0546
54.0561
54.0573
54.0584
54.0595
54.0605
54.0615
54.0625
54.0633
54.0641
54.0649
54.0655
54.0662
54.0668
54.0675
54.0681
54.0687
54.0694
54.07
54.0706
54.0712
54.0717
54.0723
54.0728
54.0733
54.0738
54.0743
54.0746
54.0749
54.0752
54.0755
54.0758
54.076
54.0762
54.0763
54.0767
54.0775
54.0792
54.0814
54.084
54.0875
54.0907
54.0935
54.0959
54.098
54.0996
54.1007
54.1017
54.103
54.1029
54.1024
54.1027
54.1032
54.1038
54.1044
54.105
54.1057
54.1065
54.1073
54.1081
54.1089
54.1097
54.1105
54.1113
54.1121
54.1128
54.1136
54.1144
54.1153
54.1162
54.117
54.1177
54.1184
54.119
54.1195
54.1198
54.1202
54.1205
54.1209
54.1212
54.1215
54.1218
54.1222
54.1225
54.1228
54.1231
54.1235
54.1238
54.1241
54.1244
54.1247
54.125
54.1253
54.1256
54.1258
54.1261
54.1263
54.1266
54.1268
54.127
54.1272
54.1274
54.1276
54.1278
54.128
54.1282
54.1284
54.1285
54.1287
54.1289
54.129
54.1292
54.1294
54.1295
54.1297
54.1299
54.13
54.1302
54.1303
54.1305
54.1307
54.1308
54.131
54.1311
54.1313
54.1315
54.1316
54.1318
54.1319
54.1321
54.1322
54.1324
54.1326
54.1327
54.1329
54.133
54.1331
54.1332
54.1334
54.1335
54.1336
54.1337
54.1338
54.1338
54.134
54.1339
54.1341
54.134
54.1341
54.1341
54.1341
54.134
54.1341
54.134
54.134
54.134
54.0078
54.0091
54.0101
54.0119
54.0137
54.0152
54.0158
54.017
54.0189
54.0211
54.0224
54.0235
54.0253
54.0277
54.0298
54.0304
54.0317
54.0333
54.036
54.0387
54.04
54.0403
54.0406
54.0417
54.0442
54.0472
54.0489
54.0498
54.0502
54.0516
54.0536
54.0554
54.0569
54.0585
54.06
54.0616
54.0633
54.0651
54.0668
54.0675
54.0682
54.0681
54.0687
54.0705
54.0721
54.0733
54.0744
54.0754
54.0764
54.0774
54.0783
54.0793
54.0802
54.081
54.0818
54.0826
54.0833
54.084
54.0847
54.0854
54.086
54.0867
54.0873
54.0879
54.0885
54.0891
54.0897
54.0903
54.0908
54.0914
54.092
54.0925
54.093
54.0936
54.0942
54.0947
54.0952
54.0957
54.0962
54.0968
54.0972
54.0977
54.0982
54.0988
54.0992
54.0996
54.1002
54.1009
54.1016
54.1023
54.1032
54.1041
54.1045
54.104
54.1029
54.1023
54.103
54.1039
54.1045
54.1048
54.105
54.1054
54.1057
54.105
54.1043
54.1043
54.1044
54.1035
54.102
54.1017
54.1024
54.104
54.108
54.113
54.1169
54.1195
54.1206
54.1209
54.1208
54.1208
54.1209
54.1211
54.1213
54.1215
54.1217
54.122
54.1223
54.1226
54.1229
54.1232
54.1235
54.1238
54.1241
54.1244
54.1247
54.125
54.1253
54.1256
54.1258
54.1261
54.1263
54.1266
54.1268
54.127
54.1272
54.1274
54.1276
54.1278
54.128
54.1282
54.1284
54.1285
54.1287
54.1289
54.129
54.1292
54.1294
54.1295
54.1297
54.1299
54.13
54.1302
54.1303
54.1305
54.1307
54.1308
54.131
54.1311
54.1313
54.1315
54.1316
54.1318
54.1319
54.1321
54.1322
54.1324
54.1326
54.1327
54.1329
54.133
54.1332
54.1332
54.1334
54.1334
54.1336
54.1336
54.1338
54.1338
54.134
54.1339
54.1341
54.134
54.1341
54.134
54.1341
54.134
54.1341
54.134
54.1341
54.134
54.0091
54.0121
54.014
54.0155
54.0169
54.0184
54.0197
54.0206
54.0215
54.0231
54.0245
54.0251
54.0258
54.0275
54.0294
54.0304
54.0307
54.0311
54.0329
54.0353
54.037
54.0373
54.0366
54.0367
54.0385
54.0412
54.0434
54.0441
54.0441
54.0451
54.0468
54.0484
54.0498
54.0512
54.0526
54.0541
54.0556
54.0572
54.059
54.0602
54.0605
54.0602
54.0604
54.062
54.0635
54.0646
54.0656
54.0666
54.0676
54.0686
54.0696
54.0705
54.0714
54.0723
54.0731
54.0739
54.0746
54.0753
54.076
54.0766
54.0772
54.0779
54.0785
54.0791
54.0797
54.0803
54.081
54.0816
54.0822
54.0828
54.0834
54.0841
54.0847
54.0853
54.0859
54.0865
54.0871
54.0876
54.0882
54.0887
54.0893
54.0898
54.0902
54.0907
54.0912
54.0917
54.0921
54.0926
54.0931
54.0938
54.0948
54.0958
54.0962
54.0958
54.0953
54.0952
54.0962
54.0969
54.0966
54.097
54.0981
54.0994
54.0992
54.0944
54.0922
54.0931
54.0972
54.1032
54.1075
54.1106
54.1128
54.1145
54.1157
54.1166
54.1173
54.1179
54.1185
54.1189
54.1193
54.1197
54.1201
54.1204
54.1207
54.1211
54.1214
54.1217
54.122
54.1224
54.1227
54.123
54.1233
54.1236
54.124
54.1243
54.1246
54.1249
54.1251
54.1254
54.1257
54.1259
54.1262
54.1264
54.1267
54.1269
54.1271
54.1273
54.1275
54.1277
54.1279
54.128
54.1282
54.1284
54.1286
54.1287
54.1289
54.1291
54.1292
54.1294
54.1296
54.1297
54.1299
54.13
54.1302
54.1304
54.1305
54.1307
54.1308
54.131
54.1312
54.1313
54.1315
54.1316
54.1318
54.1319
54.1321
54.1322
54.1324
54.1325
54.1327
54.1328
54.133
54.1331
54.1333
54.1333
54.1335
54.1335
54.1337
54.1337
54.1338
54.1338
54.1339
54.1339
54.134
54.134
54.1339
54.134
54.1338
54.1339
54.134
54.1339
54.1338
54.1337
54.1335
54.1334
54.1334
54.1333
54.1333
54.1332
54.1332
54.1332
54.1332
54.1333
54.1334
54.1334
54.1334
54.1334
54.1334
54.1335
54.1335
54.1336
54.1338
54.1338
54.1337
54.1337
54.1338
54.1338
54.1338
54.1338
54.1338
54.1339
54.134
54.134
54.1339
54.1338
54.1337
54.1337
54.1336
54.1336
54.1335
54.1333
54.134
54.134
54.134
54.134
54.134
54.1339
54.1339
54.1338
54.1336
54.1334
54.1333
54.1331
54.1328
54.1326
54.1322
54.1316
54.1311
54.1308
54.1304
54.1301
54.134
54.134
54.1339
54.1339
54.1339
54.1339
54.1338
54.1336
54.1333
54.133
54.133
54.1332
54.1335
54.1338
54.1339
54.1336
54.1328
54.1322
54.1317
54.1314
54.1338
54.1338
54.1337
54.1337
54.1337
54.1337
54.1336
54.1334
54.1332
54.1329
54.1329
54.1331
54.1334
54.1337
54.1341
54.1341
54.1335
54.1328
54.1318
54.131
54.1337
54.1337
54.1334
54.1331
54.1327
54.1318
54.1308
54.1302
54.1299
54.1298
54.1286
54.127
54.1266
54.1267
54.1263
54.1243
54.1223
54.1224
54.1231
54.123
54.121
54.1183
54.1175
54.1189
54.1202
54.1197
54.1175
54.115
54.1139
54.1154
54.1178
54.1181
54.1165
54.1142
54.112
54.11
54.1085
54.1069
54.1072
54.1084
54.1088
54.109
54.1092
54.1093
54.1094
54.1095
54.1097
54.1098
54.1099
54.11
54.1101
54.1102
54.1103
54.1104
54.1104
54.1105
54.1106
54.1106
54.1107
54.1108
54.1109
54.111
54.1111
54.1113
54.1114
54.1115
54.1117
54.1119
54.1123
54.1129
54.1138
54.1152
54.1171
54.1183
54.118
54.116
54.1137
54.1122
54.1106
54.1107
54.1118
54.1128
54.1134
54.114
54.1144
54.1147
54.1151
54.1155
54.1158
54.1156
54.116
54.1167
54.1149
54.1076
54.107
54.1134
54.1193
54.121
54.1211
54.1219
54.1321
54.1304
54.1296
54.1286
54.1263
54.1238
54.123
54.1233
54.1235
54.122
54.12
54.12
54.1211
54.1211
54.1187
54.1177
54.1184
54.1206
54.1209
54.1181
54.1158
54.1153
54.1176
54.1203
54.1207
54.1174
54.1147
54.1138
54.115
54.1188
54.1204
54.1189
54.1153
54.1131
54.1116
54.1117
54.1128
54.1124
54.1135
54.1147
54.1149
54.1149
54.1151
54.1153
54.1156
54.116
54.1163
54.1166
54.1169
54.1171
54.1174
54.1176
54.1178
54.1179
54.1181
54.1183
54.1184
54.1186
54.1188
54.1189
54.1191
54.1192
54.1194
54.1195
54.1196
54.1197
54.1198
54.1199
54.1202
54.1206
54.1214
54.1227
54.1239
54.1241
54.1224
54.1206
54.1188
54.1176
54.1162
54.1175
54.1193
54.1206
54.1212
54.1217
54.1222
54.1224
54.1225
54.1227
54.1229
54.1231
54.1229
54.123
54.123
54.122
54.12
54.12
54.1202
54.1199
54.1179
54.1182
54.1282
54.1239
54.1206
54.118
54.1155
54.1128
54.1103
54.1082
54.1068
54.1054
54.1044
54.1033
54.1031
54.1023
54.1017
54.1013
54.1009
54.1009
54.1005
54.1002
54.1006
54.1007
54.1005
54.1002
54.1002
54.1002
54.1008
54.1009
54.1002
54.0999
54.1001
54.1
54.1
54.0997
54.0993
54.0978
54.0956
54.096
54.0977
54.0991
54.1005
54.1015
54.102
54.1022
54.1023
54.1024
54.1024
54.1024
54.1024
54.1023
54.1023
54.1023
54.1023
54.1023
54.1022
54.1021
54.102
54.1019
54.1019
54.1018
54.1018
54.1017
54.1015
54.1015
54.1014
54.1012
54.1009
54.1007
54.1008
54.1014
54.1023
54.1033
54.105
54.1075
54.1101
54.1126
54.1146
54.1151
54.116
54.1178
54.1192
54.1204
54.1213
54.1216
54.1217
54.1217
54.1218
54.122
54.1223
54.1227
54.1234
54.1239
54.1248
54.1254
54.1261
54.1269
54.1275
54.1281
54.1289
54.1297
54.1298
54.1271
54.1267
54.1267
54.1271
54.124
54.1184
54.119
54.1201
54.1213
54.1159
54.117
54.1154
54.1194
54.1152
54.1143
54.1149
54.1145
54.118
54.1127
54.1115
54.1151
54.1109
54.1154
54.1165
54.1117
54.112
54.1168
54.113
54.1127
54.1173
54.1157
54.1129
54.1142
54.1201
54.133
54.1409
54.1259
54.1154
54.1174
54.1196
54.1201
54.1199
54.1197
54.1195
54.1194
54.1193
54.1192
54.1191
54.1191
54.119
54.119
54.1189
54.1189
54.1189
54.1188
54.1188
54.1188
54.1188
54.1187
54.1188
54.1188
54.1189
54.1189
54.119
54.1191
54.1192
54.1193
54.1194
54.1194
54.1196
54.1204
54.1225
54.1222
54.1211
54.1259
54.1345
54.143
54.137
54.1218
54.1187
54.1201
54.1208
54.121
54.1212
54.1214
54.1216
54.1218
54.1222
54.1227
54.1231
54.1236
54.1242
54.1249
54.1253
54.1251
54.1248
54.125
54.1253
54.1256
54.1305
54.1305
54.1308
54.1293
54.1287
54.1289
54.1285
54.1286
54.1251
54.1253
54.1264
54.1298
54.1242
54.1243
54.1255
54.1282
54.1277
54.1208
54.1223
54.1244
54.1253
54.1266
54.1199
54.1171
54.1219
54.1245
54.1242
54.1272
54.1218
54.1151
54.1184
54.1246
54.1244
54.1243
54.129
54.1414
54.1493
54.1321
54.1157
54.1172
54.1204
54.1212
54.1212
54.1208
54.1206
54.1204
54.1203
54.1202
54.1201
54.1201
54.12
54.12
54.1199
54.1199
54.1199
54.1199
54.1199
54.1199
54.1199
54.1199
54.1199
54.1199
54.1199
54.12
54.12
54.1201
54.1202
54.1202
54.1203
54.1203
54.1204
54.121
54.1225
54.125
54.1268
54.1309
54.138
54.1463
54.1402
54.1243
54.12
54.1217
54.1224
54.1226
54.1225
54.1225
54.1227
54.1231
54.1235
54.124
54.1246
54.1252
54.1259
54.1263
54.1267
54.1271
54.1275
54.1278
54.1278
54.1274
54.1197
54.1194
54.1195
54.1202
54.1211
54.1221
54.1233
54.1254
54.1282
54.1303
54.1306
54.1301
54.1306
54.1315
54.1324
54.133
54.1334
54.1337
54.1339
54.134
54.1163
54.1159
54.1159
54.1163
54.1168
54.1175
54.1181
54.1191
54.1204
54.1225
54.1241
54.1256
54.1276
54.1293
54.1306
54.1319
54.133
54.1336
54.1338
54.1334
54.1299
54.1294
54.1291
54.1291
54.1292
54.1294
54.1297
54.13
54.1304
54.1307
54.131
54.1312
54.1312
54.1311
54.1309
54.1306
54.1302
54.1299
54.13
54.1303
54.125
54.1246
54.1242
54.1238
54.1228
54.1215
54.1201
54.1189
54.1179
54.1173
54.1168
54.1164
54.1159
54.1156
54.1154
54.1156
54.1164
54.1175
54.119
54.125
54.1272
54.1273
54.1271
54.127
54.1271
54.1272
54.1275
54.1278
54.1282
54.1287
54.1292
54.1286
54.1269
54.1245
54.1219
54.1194
54.1171
54.1159
54.1157
54.1192
54.1343
54.1349
54.135
54.1349
54.1341
54.1337
54.1336
54.1338
54.1339
54.1332
54.1324
54.1323
54.1329
54.1332
54.1323
54.131
54.1299
54.1303
54.1313
54.132
54.1316
54.13
54.1282
54.1271
54.1277
54.1292
54.1304
54.1306
54.1295
54.128
54.127
54.1261
54.1252
54.1245
54.1242
54.1225
54.1224
54.1237
54.1246
54.1251
54.1256
54.126
54.1264
54.1267
54.1271
54.1275
54.1279
54.1284
54.1289
54.1296
54.13
54.1304
54.1312
54.1323
54.1335
54.135
54.137
54.1393
54.1404
54.1405
54.1401
54.1383
54.1362
54.1369
54.1398
54.1417
54.1417
54.1402
54.1387
54.1376
54.1369
54.1362
54.1369
54.1383
54.1394
54.1402
54.141
54.142
54.1429
54.1436
54.1439
54.1448
54.1449
54.1374
54.134
54.1439
54.1511
54.154
54.1565
54.1587
54.1605
54.162
54.1631
54.164
54.1647
54.1653
54.1659
54.1664
54.1668
54.1673
54.1677
54.1681
54.1685
54.1689
54.1693
54.1697
54.1701
54.1705
54.1709
54.1713
54.1716
54.172
54.1724
54.1728
54.1731
54.1735
54.1738
54.1742
54.1745
54.1749
54.1752
54.1755
54.1759
54.1762
54.1765
54.1768
54.1772
54.1775
54.1778
54.1781
54.1784
54.1787
54.179
54.1793
54.1796
54.1799
54.1802
54.1805
54.1808
54.1811
54.1813
54.1816
54.1819
54.1821
54.1824
54.1827
54.1829
54.1832
54.1834
54.1836
54.1839
54.1841
54.1843
54.1845
54.1847
54.1849
54.1851
54.1853
54.1855
54.1857
54.1859
54.1861
54.1863
54.1865
54.1866
54.1868
54.187
54.1871
54.1873
54.1875
54.1876
54.1878
54.1879
54.188
54.1882
54.1883
54.1885
54.1886
54.1887
54.1888
54.189
54.189
54.1892
54.1892
54.1894
54.1894
54.1896
54.1895
54.1898
54.1897
54.1899
54.1898
54.1901
54.19
54.1901
54.1903
54.1901
54.1903
54.1904
54.1903
54.1316
54.1315
54.1312
54.1295
54.1267
54.1259
54.1264
54.1268
54.1255
54.1233
54.1236
54.1255
54.1264
54.125
54.1223
54.122
54.124
54.1276
54.1288
54.1279
54.1241
54.1223
54.1219
54.124
54.1283
54.1305
54.1308
54.1278
54.1247
54.1231
54.1224
54.1221
54.1231
54.1261
54.1276
54.1268
54.1272
54.1284
54.1288
54.1291
54.1296
54.1302
54.1308
54.1315
54.1322
54.1329
54.1336
54.1343
54.1352
54.136
54.1366
54.1373
54.1383
54.1394
54.1406
54.1421
54.1437
54.1446
54.1446
54.1434
54.1402
54.1387
54.1382
54.1393
54.1429
54.1445
54.1443
54.1433
54.1422
54.1414
54.1413
54.1422
54.1441
54.1459
54.1471
54.148
54.1488
54.1495
54.1499
54.1506
54.1511
54.1513
54.1518
54.1515
54.149
54.1487
54.1493
54.1497
54.1487
54.1477
54.1483
54.1512
54.1591
54.1644
54.1662
54.1668
54.1669
54.1671
54.1674
54.1677
54.168
54.1684
54.1687
54.1691
54.1695
54.1698
54.1702
54.1706
54.171
54.1714
54.1718
54.1721
54.1725
54.1729
54.1732
54.1736
54.1739
54.1743
54.1746
54.175
54.1753
54.1756
54.176
54.1763
54.1766
54.1769
54.1773
54.1776
54.1779
54.1782
54.1785
54.1788
54.1791
54.1794
54.1797
54.18
54.1803
54.1806
54.1809
54.1812
54.1814
54.1817
54.182
54.1822
54.1825
54.1828
54.183
54.1833
54.1835
54.1837
54.184
54.1842
54.1844
54.1846
54.1848
54.185
54.1852
54.1855
54.1856
54.1858
54.186
54.1862
54.1864
54.1866
54.1867
54.1869
54.1871
54.1872
54.1874
54.1876
54.1877
54.1879
54.188
54.1881
54.1883
54.1884
54.1886
54.1887
54.1888
54.1889
54.1891
54.1891
54.1893
54.1893
54.1895
54.1895
54.1897
54.1896
54.1899
54.1898
54.19
54.19
54.1902
54.1901
54.1903
54.1902
54.1904
54.1903
54.1905
54.1905
54.1284
54.1248
54.1218
54.1195
54.1171
54.1147
54.1127
54.1114
54.11
54.1092
54.1088
54.1087
54.1086
54.1081
54.1085
54.1094
54.1095
54.1095
54.1092
54.1095
54.1103
54.1114
54.1119
54.1114
54.1109
54.1111
54.1116
54.112
54.1125
54.1128
54.113
54.1131
54.1129
54.1121
54.1103
54.11
54.1118
54.1133
54.1149
54.1163
54.1173
54.1179
54.1185
54.1189
54.1193
54.1196
54.1199
54.1202
54.1205
54.121
54.1202
54.1212
54.1216
54.1217
54.1218
54.1218
54.1214
54.1201
54.1193
54.1197
54.1209
54.1225
54.1239
54.1262
54.1297
54.1338
54.1373
54.1403
54.1423
54.1427
54.1424
54.1429
54.1443
54.1455
54.1467
54.1476
54.1483
54.1488
54.1494
54.1501
54.1509
54.1518
54.1529
54.154
54.155
54.156
54.1569
54.1577
54.1584
54.1592
54.1602
54.1612
54.1623
54.1633
54.1642
54.1652
54.1659
54.1665
54.167
54.1674
54.1678
54.1682
54.1686
54.169
54.1694
54.1698
54.1702
54.1706
54.171
54.1714
54.1717
54.1721
54.1725
54.1729
54.1732
54.1736
54.1739
54.1743
54.1746
54.175
54.1753
54.1756
54.176
54.1763
54.1766
54.1769
54.1773
54.1776
54.1779
54.1782
54.1785
54.1788
54.1791
54.1794
54.1797
54.18
54.1803
54.1806
54.1809
54.1812
54.1814
54.1817
54.182
54.1822
54.1825
54.1828
54.183
54.1833
54.1835
54.1837
54.184
54.1842
54.1844
54.1846
54.1848
54.185
54.1852
54.1855
54.1856
54.1858
54.186
54.1862
54.1864
54.1866
54.1867
54.1869
54.1871
54.1872
54.1874
54.1876
54.1877
54.1879
54.188
54.1881
54.1883
54.1884
54.1886
54.1887
54.1888
54.1889
54.189
54.1891
54.1893
54.1893
54.1895
54.1895
54.1896
54.1897
54.1898
54.1898
54.19
54.19
54.1901
54.1902
54.1902
54.1903
54.1904
54.1904
54.1904
54.1904
54.1292
54.1278
54.128
54.1293
54.128
54.1216
54.1212
54.1234
54.125
54.1191
54.1179
54.1186
54.1238
54.1215
54.1144
54.116
54.1168
54.1195
54.1238
54.1213
54.1172
54.1167
54.1187
54.1181
54.1201
54.1251
54.1257
54.1241
54.1224
54.1219
54.1228
54.1249
54.1294
54.1391
54.1499
54.1439
54.1298
54.1307
54.1344
54.1359
54.1363
54.1363
54.1364
54.1365
54.1366
54.1368
54.1371
54.1374
54.1379
54.1394
54.1448
54.1392
54.1381
54.1382
54.1386
54.1395
54.1421
54.1416
54.1319
54.1266
54.1275
54.1311
54.133
54.1322
54.1384
54.1424
54.1446
54.1486
54.1545
54.1632
54.1654
54.1532
54.1436
54.1448
54.1468
54.1478
54.1485
54.1489
54.1495
54.1502
54.151
54.1518
54.1527
54.1538
54.1547
54.1553
54.1553
54.1552
54.1557
54.1564
54.1569
54.1555
54.1512
54.1497
54.151
54.1572
54.1645
54.1676
54.1682
54.1681
54.1682
54.1685
54.1688
54.1691
54.1695
54.1699
54.1702
54.1706
54.171
54.1714
54.1718
54.1721
54.1725
54.1729
54.1732
54.1736
54.1739
54.1743
54.1746
54.175
54.1753
54.1756
54.176
54.1763
54.1766
54.1769
54.1773
54.1776
54.1779
54.1782
54.1785
54.1788
54.1791
54.1794
54.1797
54.18
54.1803
54.1806
54.1809
54.1812
54.1814
54.1817
54.182
54.1822
54.1825
54.1828
54.183
54.1833
54.1835
54.1837
54.184
54.1842
54.1844
54.1846
54.1848
54.185
54.1852
54.1855
54.1856
54.1858
54.186
54.1862
54.1864
54.1866
54.1867
54.1869
54.1871
54.1872
54.1874
54.1876
54.1877
54.1879
54.188
54.1882
54.1883
54.1884
54.1885
54.1887
54.1888
54.1889
54.189
54.1892
54.1892
54.1894
54.1894
54.1896
54.1896
54.1898
54.1897
54.19
54.1899
54.1901
54.19
54.1902
54.1901
54.1904
54.1903
54.1903
54.1906
54.1903
54.1292
54.1314
54.1318
54.1317
54.1321
54.1312
54.1304
54.1285
54.1292
54.1299
54.1305
54.1284
54.1284
54.1301
54.1298
54.1272
54.1264
54.123
54.1258
54.1305
54.1303
54.1264
54.1264
54.1251
54.1217
54.1236
54.1302
54.1332
54.1315
54.1301
54.1303
54.132
54.136
54.1454
54.1562
54.1483
54.1284
54.127
54.1336
54.1365
54.1374
54.1377
54.1376
54.1376
54.1378
54.138
54.1382
54.1384
54.1389
54.1402
54.1475
54.1408
54.1391
54.1392
54.1395
54.1404
54.142
54.1453
54.1451
54.1375
54.1357
54.1384
54.1397
54.1343
54.1364
54.1437
54.1485
54.1518
54.1565
54.1646
54.1668
54.1544
54.1437
54.1452
54.1481
54.1493
54.1499
54.1501
54.1507
54.1514
54.1522
54.1532
54.1542
54.1551
54.1558
54.1565
54.1572
54.1578
54.1585
54.1589
54.159
54.1595
54.1601
54.1597
54.1548
54.1531
54.1572
54.1657
54.1682
54.1685
54.1683