/*--------------------------------*- C++ -*----------------------------------*\
| =========                 |                                                 |
| \\      /  F ield         | OpenFOAM: The Open Source CFD Toolbox           |
|  \\    /   O peration     | Version:  3.0.x                                 |
|   \\  /    A nd           | Web:      www.OpenFOAM.org                      |
|    \\/     M anipulation  |                                                 |
\*---------------------------------------------------------------------------*/
FoamFile
{
    version     2.0;
    format      ascii;
    class       volVectorField;
    location    "0.56";
    object      U;
}
// * * * * * * * * * * * * * * * * * * * * * * * * * * * * * * * * * * * * * //

dimensions      [0 1 -1 0 0 0 0];

internalField   nonuniform List<vector> 
6900
(
(42.5914 9.81457e-05 0)
(42.3239 9.05603e-05 0)
(42.0108 8.89327e-05 0)
(41.7155 9.03751e-05 0)
(41.4351 9.16136e-05 0)
(41.1568 9.25289e-05 0)
(40.8764 9.32819e-05 0)
(40.5948 9.38944e-05 0)
(40.313 9.43775e-05 0)
(40.0315 9.47542e-05 0)
(39.7499 9.5043e-05 0)
(39.4684 9.52685e-05 0)
(39.187 9.54372e-05 0)
(38.9055 9.55644e-05 0)
(38.6241 9.56546e-05 0)
(38.3429 9.5724e-05 0)
(38.0617 9.57767e-05 0)
(37.7807 9.5818e-05 0)
(37.4999 9.58503e-05 0)
(37.2193 9.58781e-05 0)
(36.939 9.59013e-05 0)
(36.6588 9.59235e-05 0)
(36.3789 9.59436e-05 0)
(36.0994 9.5963e-05 0)
(35.8201 9.59823e-05 0)
(35.5411 9.60013e-05 0)
(35.2625 9.60194e-05 0)
(34.9843 9.604e-05 0)
(34.7065 9.6058e-05 0)
(34.429 9.60784e-05 0)
(34.1521 9.6099e-05 0)
(33.8755 9.61185e-05 0)
(33.5995 9.61415e-05 0)
(33.3239 9.61625e-05 0)
(33.0488 9.61865e-05 0)
(32.7743 9.62109e-05 0)
(32.5003 9.62352e-05 0)
(32.227 9.62625e-05 0)
(31.9542 9.6291e-05 0)
(31.682 9.63188e-05 0)
(31.4105 9.63506e-05 0)
(31.1396 9.63857e-05 0)
(30.8695 9.6424e-05 0)
(30.6 9.64637e-05 0)
(30.3312 9.65046e-05 0)
(30.0632 9.65456e-05 0)
(29.7959 9.6584e-05 0)
(29.5293 9.66285e-05 0)
(29.2636 9.6676e-05 0)
(28.9986 9.67356e-05 0)
(28.7344 9.68041e-05 0)
(28.4711 9.68781e-05 0)
(28.2085 9.69546e-05 0)
(27.9468 9.70294e-05 0)
(27.686 9.70991e-05 0)
(27.426 9.71663e-05 0)
(27.1668 9.72344e-05 0)
(26.9085 9.73037e-05 0)
(26.6511 9.73736e-05 0)
(26.3946 9.74445e-05 0)
(26.139 9.75146e-05 0)
(25.8843 9.75832e-05 0)
(25.6305 9.7652e-05 0)
(25.3777 9.77233e-05 0)
(25.1258 9.77947e-05 0)
(24.8749 9.78582e-05 0)
(24.625 9.79017e-05 0)
(24.376 9.79119e-05 0)
(24.1281 9.78748e-05 0)
(23.8812 9.77788e-05 0)
(23.6354 9.76145e-05 0)
(23.3907 9.73725e-05 0)
(23.1471 9.70411e-05 0)
(22.9046 9.6605e-05 0)
(22.6633 9.60444e-05 0)
(22.4232 9.53355e-05 0)
(22.1843 9.44518e-05 0)
(21.9466 9.33654e-05 0)
(21.7102 9.20496e-05 0)
(21.4751 9.04806e-05 0)
(21.2413 8.86387e-05 0)
(21.0089 8.65093e-05 0)
(20.7779 8.40839e-05 0)
(20.5482 8.13606e-05 0)
(20.32 7.83447e-05 0)
(20.0933 7.50493e-05 0)
(19.868 7.14946e-05 0)
(19.6442 6.7708e-05 0)
(19.422 6.37233e-05 0)
(19.2012 5.95799e-05 0)
(18.982 5.53218e-05 0)
(18.7644 5.09966e-05 0)
(18.5483 4.66533e-05 0)
(18.3338 4.23414e-05 0)
(18.1209 3.81089e-05 0)
(17.9096 3.4001e-05 0)
(17.6998 3.00577e-05 0)
(17.4916 2.63123e-05 0)
(17.285 2.27917e-05 0)
(17.08 1.95159e-05 0)
(16.8765 1.64979e-05 0)
(16.6746 1.37439e-05 0)
(16.4743 1.12546e-05 0)
(16.2755 9.02476e-06 0)
(16.0783 7.04494e-06 0)
(15.8826 5.30154e-06 0)
(15.6884 3.77619e-06 0)
(15.4958 2.44206e-06 0)
(15.3047 1.25545e-06 0)
(15.1152 9.39565e-08 0)
(14.9272 -5.44831e-07 0)
(14.7407 -1.11327e-06 0)
(14.5557 -1.58485e-06 0)
(14.3723 -1.9726e-06 0)
(14.1904 -2.28857e-06 0)
(14.01 -2.54356e-06 0)
(13.8312 -2.74806e-06 0)
(13.654 -2.91129e-06 0)
(13.4783 -3.04167e-06 0)
(13.3041 -3.146e-06 0)
(13.1316 -3.22966e-06 0)
(12.9606 -3.29733e-06 0)
(12.7913 -3.35254e-06 0)
(12.6235 -3.39877e-06 0)
(12.4573 -3.4383e-06 0)
(12.2927 -3.47254e-06 0)
(12.1298 -3.50272e-06 0)
(11.9684 -3.52957e-06 0)
(11.8087 -3.55444e-06 0)
(11.6506 -3.57836e-06 0)
(11.4942 -3.60165e-06 0)
(11.3393 -3.62458e-06 0)
(11.1861 -3.64697e-06 0)
(11.0345 -3.66894e-06 0)
(10.8846 -3.6907e-06 0)
(10.7362 -3.71259e-06 0)
(10.5895 -3.73496e-06 0)
(10.4444 -3.75775e-06 0)
(10.301 -3.78084e-06 0)
(10.1591 -3.80383e-06 0)
(10.0189 -3.82643e-06 0)
(9.88027 -3.8489e-06 0)
(9.74327 -3.87173e-06 0)
(9.60787 -3.89476e-06 0)
(9.47407 -3.91812e-06 0)
(9.34188 -3.94195e-06 0)
(9.21128 -3.96624e-06 0)
(9.08227 -3.99087e-06 0)
(8.95486 -4.01574e-06 0)
(8.82903 -4.04054e-06 0)
(8.70478 -4.06517e-06 0)
(8.58211 -4.08956e-06 0)
(8.46101 -4.11376e-06 0)
(8.34148 -4.13834e-06 0)
(8.22352 -4.16315e-06 0)
(8.10711 -4.18831e-06 0)
(7.99226 -4.21366e-06 0)
(7.87897 -4.23902e-06 0)
(7.76722 -4.26364e-06 0)
(7.65702 -4.28845e-06 0)
(7.54836 -4.31357e-06 0)
(7.44123 -4.33947e-06 0)
(7.33565 -4.36501e-06 0)
(7.2316 -4.39058e-06 0)
(7.12907 -4.41575e-06 0)
(7.02808 -4.44092e-06 0)
(6.9286 -4.46566e-06 0)
(6.83064 -4.49114e-06 0)
(6.73418 -4.51616e-06 0)
(6.63923 -4.54259e-06 0)
(6.54578 -4.56727e-06 0)
(6.45382 -4.5942e-06 0)
(6.36333 -4.61794e-06 0)
(6.27432 -4.64567e-06 0)
(6.18676 -4.66793e-06 0)
(6.10066 -4.69863e-06 0)
(6.016 -4.71791e-06 0)
(5.93277 -4.75559e-06 0)
(5.85096 -4.76382e-06 0)
(5.77056 -4.81793e-06 0)
(5.69156 -4.80101e-06 0)
(5.61395 -4.89421e-06 0)
(5.53772 -4.83217e-06 0)
(5.46285 -4.99301e-06 0)
(5.38936 -4.85771e-06 0)
(5.31718 -5.12249e-06 0)
(5.2464 -4.79372e-06 0)
(5.17689 -5.45312e-06 0)
(5.10877 -4.94816e-06 0)
(5.0419 -5.80577e-06 0)
(4.97642 -4.97417e-06 0)
(4.91216 -5.85425e-06 0)
(4.84927 -5.16915e-06 0)
(4.78757 -5.4501e-06 0)
(4.72718 -6.15306e-06 0)
(4.66784 -4.59273e-07 0)
(4.6089 7.24833e-06 0)
(4.54619 8.02678e-05 0)
(4.4862 0.00323416 0)
(4.09185 0.00711709 0)
(42.5931 0.00012446 0)
(42.3274 9.68986e-05 0)
(42.0161 8.60576e-05 0)
(41.7225 8.60612e-05 0)
(41.4439 8.65733e-05 0)
(41.1674 8.67704e-05 0)
(40.8889 8.70119e-05 0)
(40.6091 8.72686e-05 0)
(40.3292 8.74877e-05 0)
(40.0494 8.7666e-05 0)
(39.7698 8.78061e-05 0)
(39.4901 8.79237e-05 0)
(39.2105 8.80106e-05 0)
(38.9309 8.80782e-05 0)
(38.6514 8.81245e-05 0)
(38.372 8.81636e-05 0)
(38.0927 8.81954e-05 0)
(37.8136 8.82235e-05 0)
(37.5346 8.82478e-05 0)
(37.2559 8.82726e-05 0)
(36.9774 8.82954e-05 0)
(36.6991 8.83205e-05 0)
(36.4211 8.83449e-05 0)
(36.1434 8.83702e-05 0)
(35.866 8.83967e-05 0)
(35.5889 8.84238e-05 0)
(35.3122 8.84499e-05 0)
(35.0358 8.84804e-05 0)
(34.7598 8.85067e-05 0)
(34.4843 8.85374e-05 0)
(34.2091 8.85678e-05 0)
(33.9345 8.85963e-05 0)
(33.6603 8.86302e-05 0)
(33.3866 8.86602e-05 0)
(33.1134 8.86945e-05 0)
(32.8407 8.87287e-05 0)
(32.5686 8.87621e-05 0)
(32.2971 8.87996e-05 0)
(32.0262 8.88377e-05 0)
(31.7559 8.88738e-05 0)
(31.4862 8.8915e-05 0)
(31.2173 8.89595e-05 0)
(30.9489 8.9007e-05 0)
(30.6813 8.9055e-05 0)
(30.4144 8.91034e-05 0)
(30.1483 8.91511e-05 0)
(29.8828 8.91939e-05 0)
(29.6182 8.92455e-05 0)
(29.3543 8.92989e-05 0)
(29.0912 8.93675e-05 0)
(28.8289 8.9445e-05 0)
(28.5674 8.95269e-05 0)
(28.3068 8.96107e-05 0)
(28.0469 8.96912e-05 0)
(27.788 8.97643e-05 0)
(27.5298 8.98345e-05 0)
(27.2726 8.99061e-05 0)
(27.0162 8.99781e-05 0)
(26.7606 9.00499e-05 0)
(26.506 9.01223e-05 0)
(26.2523 9.01932e-05 0)
(25.9995 9.02629e-05 0)
(25.7476 9.03341e-05 0)
(25.4966 9.04106e-05 0)
(25.2466 9.04897e-05 0)
(24.9976 9.05611e-05 0)
(24.7496 9.06117e-05 0)
(24.5025 9.06269e-05 0)
(24.2565 9.05926e-05 0)
(24.0115 9.04978e-05 0)
(23.7676 9.03356e-05 0)
(23.5248 9.00987e-05 0)
(23.283 8.97772e-05 0)
(23.0424 8.93576e-05 0)
(22.803 8.88211e-05 0)
(22.5647 8.81447e-05 0)
(22.3276 8.73023e-05 0)
(22.0917 8.62668e-05 0)
(21.8571 8.50124e-05 0)
(21.6238 8.35167e-05 0)
(21.3917 8.17613e-05 0)
(21.161 7.97337e-05 0)
(20.9316 7.74269e-05 0)
(20.7036 7.48404e-05 0)
(20.4769 7.19809e-05 0)
(20.2516 6.88621e-05 0)
(20.0277 6.55042e-05 0)
(19.8053 6.19341e-05 0)
(19.5843 5.81844e-05 0)
(19.3647 5.42928e-05 0)
(19.1466 5.03012e-05 0)
(18.93 4.6254e-05 0)
(18.7148 4.21973e-05 0)
(18.5012 3.81771e-05 0)
(18.289 3.42379e-05 0)
(18.0783 3.04212e-05 0)
(17.8692 2.67633e-05 0)
(17.6615 2.32944e-05 0)
(17.4553 2.00389e-05 0)
(17.2507 1.70147e-05 0)
(17.0475 1.4233e-05 0)
(16.8459 1.16994e-05 0)
(16.6458 9.41393e-06 0)
(16.4472 7.37084e-06 0)
(16.2501 5.5601e-06 0)
(16.0544 3.97282e-06 0)
(15.8604 2.60582e-06 0)
(15.6678 1.45715e-06 0)
(15.4767 5.212e-07 0)
(15.2871 -2.93401e-07 0)
(15.0991 -9.2421e-07 0)
(14.9125 -1.4985e-06 0)
(14.7275 -1.97628e-06 0)
(14.544 -2.36518e-06 0)
(14.362 -2.67906e-06 0)
(14.1816 -2.93081e-06 0)
(14.0027 -3.13194e-06 0)
(13.8254 -3.29234e-06 0)
(13.6496 -3.42059e-06 0)
(13.4754 -3.52359e-06 0)
(13.3027 -3.60658e-06 0)
(13.1317 -3.67414e-06 0)
(12.9622 -3.72969e-06 0)
(12.7943 -3.77659e-06 0)
(12.6281 -3.817e-06 0)
(12.4634 -3.85225e-06 0)
(12.3003 -3.88341e-06 0)
(12.1389 -3.91126e-06 0)
(11.9791 -3.93698e-06 0)
(11.8209 -3.96183e-06 0)
(11.6643 -3.98593e-06 0)
(11.5094 -4.00964e-06 0)
(11.3561 -4.03268e-06 0)
(11.2044 -4.0552e-06 0)
(11.0543 -4.07747e-06 0)
(10.9059 -4.09976e-06 0)
(10.7591 -4.12254e-06 0)
(10.6139 -4.14576e-06 0)
(10.4703 -4.16914e-06 0)
(10.3284 -4.19257e-06 0)
(10.188 -4.2153e-06 0)
(10.0493 -4.23811e-06 0)
(9.91221 -4.26111e-06 0)
(9.7767 -4.28437e-06 0)
(9.6428 -4.30805e-06 0)
(9.5105 -4.33209e-06 0)
(9.3798 -4.35663e-06 0)
(9.25069 -4.38146e-06 0)
(9.12317 -4.40667e-06 0)
(8.99723 -4.43154e-06 0)
(8.87287 -4.45617e-06 0)
(8.7501 -4.48078e-06 0)
(8.62889 -4.50469e-06 0)
(8.50925 -4.52928e-06 0)
(8.39118 -4.55374e-06 0)
(8.27466 -4.57883e-06 0)
(8.1597 -4.60345e-06 0)
(8.0463 -4.62878e-06 0)
(7.93444 -4.65225e-06 0)
(7.82413 -4.67681e-06 0)
(7.71535 -4.70037e-06 0)
(7.60812 -4.72591e-06 0)
(7.50243 -4.75015e-06 0)
(7.39826 -4.77504e-06 0)
(7.29563 -4.79813e-06 0)
(7.19451 -4.8226e-06 0)
(7.09492 -4.84441e-06 0)
(6.99685 -4.87127e-06 0)
(6.90028 -4.88997e-06 0)
(6.80522 -4.92062e-06 0)
(6.71165 -4.93577e-06 0)
(6.61957 -4.97132e-06 0)
(6.52897 -4.97874e-06 0)
(6.43984 -5.02346e-06 0)
(6.35217 -5.01625e-06 0)
(6.26596 -5.08519e-06 0)
(6.18118 -5.0405e-06 0)
(6.09783 -5.17204e-06 0)
(6.0159 -5.02445e-06 0)
(5.93538 -5.31426e-06 0)
(5.85627 -4.92335e-06 0)
(5.77854 -5.55115e-06 0)
(5.70219 -4.69844e-06 0)
(5.6272 -5.90795e-06 0)
(5.55359 -4.27385e-06 0)
(5.4813 -6.39414e-06 0)
(5.41039 -2.63716e-06 0)
(5.34077 -7.82736e-06 0)
(5.27253 -2.64227e-07 0)
(5.20554 -9.71649e-06 0)
(5.13993 3.68076e-07 0)
(5.07555 -9.73176e-06 0)
(5.01254 -5.93375e-07 0)
(4.95072 -7.1515e-06 0)
(4.89021 8.91122e-06 0)
(4.83073 5.55679e-05 0)
(4.77171 0.000374166 0)
(4.70903 0.00215398 0)
(4.6479 0.0150028 0)
(4.41222 0.0335903 0)
(42.5931 2.1504e-13 0)
(42.3273 -2.0785e-12 0)
(42.016 -3.18575e-12 0)
(41.7225 -4.19218e-12 0)
(41.4439 -6.73527e-12 0)
(41.1674 -9.40737e-12 0)
(40.8888 -1.17621e-11 0)
(40.609 -1.21489e-11 0)
(40.3291 -1.07963e-11 0)
(40.0494 -9.51675e-12 0)
(39.7697 -9.36047e-12 0)
(39.4901 -1.17399e-11 0)
(39.2105 -1.2811e-11 0)
(38.9309 -1.24706e-11 0)
(38.6513 -1.27861e-11 0)
(38.3719 -1.32914e-11 0)
(38.0927 -1.1413e-11 0)
(37.8136 -1.14091e-11 0)
(37.5346 -1.29267e-11 0)
(37.2559 -1.30169e-11 0)
(36.9774 -1.44847e-11 0)
(36.6991 -1.66489e-11 0)
(36.4211 -1.8613e-11 0)
(36.1434 -2.07064e-11 0)
(35.8659 -2.1625e-11 0)
(35.5889 -2.2209e-11 0)
(35.3121 -2.46183e-11 0)
(35.0358 -2.77963e-11 0)
(34.7598 -2.90773e-11 0)
(34.4842 -2.69328e-11 0)
(34.2091 -2.3789e-11 0)
(33.9344 -2.09495e-11 0)
(33.6603 -1.85179e-11 0)
(33.3865 -1.93014e-11 0)
(33.1134 -1.76723e-11 0)
(32.8407 -1.58255e-11 0)
(32.5686 -1.5451e-11 0)
(32.2971 -1.80029e-11 0)
(32.0262 -2.18813e-11 0)
(31.7559 -2.47807e-11 0)
(31.4863 -2.61096e-11 0)
(31.2173 -2.54796e-11 0)
(30.9489 -2.48334e-11 0)
(30.6813 -2.28487e-11 0)
(30.4144 -2.12978e-11 0)
(30.1483 -2.03559e-11 0)
(29.8828 -1.82646e-11 0)
(29.6182 -1.49888e-11 0)
(29.3543 -1.48324e-11 0)
(29.0912 -1.53294e-11 0)
(28.8289 -1.47299e-11 0)
(28.5674 -1.30126e-11 0)
(28.3068 -1.20447e-11 0)
(28.047 -1.03345e-11 0)
(27.788 -9.28626e-12 0)
(27.5299 -7.45594e-12 0)
(27.2726 -4.22743e-12 0)
(27.0162 -2.83886e-12 0)
(26.7607 -8.15541e-13 0)
(26.5061 3.43558e-13 0)
(26.2523 -1.36302e-12 0)
(25.9995 -9.7928e-13 0)
(25.7476 2.17348e-13 0)
(25.4967 1.49096e-12 0)
(25.2467 -3.98979e-13 0)
(24.9977 -2.8386e-12 0)
(24.7496 -4.99024e-12 0)
(24.5026 -7.69312e-12 0)
(24.2566 -8.55115e-12 0)
(24.0116 -9.66235e-12 0)
(23.7677 -1.04812e-11 0)
(23.5249 -1.24493e-11 0)
(23.2831 -1.2864e-11 0)
(23.0425 -1.24767e-11 0)
(22.8031 -1.03216e-11 0)
(22.5648 -7.89783e-12 0)
(22.3277 -8.49173e-12 0)
(22.0919 -1.01138e-11 0)
(21.8573 -1.31786e-11 0)
(21.6239 -1.97062e-11 0)
(21.3919 -2.76483e-11 0)
(21.1611 -3.47688e-11 0)
(20.9317 -3.98181e-11 0)
(20.7037 -4.40911e-11 0)
(20.477 -4.67156e-11 0)
(20.2517 -4.71756e-11 0)
(20.0279 -4.67532e-11 0)
(19.8054 -4.74148e-11 0)
(19.5844 -4.81546e-11 0)
(19.3648 -4.91283e-11 0)
(19.1467 -4.74206e-11 0)
(18.9301 -4.25535e-11 0)
(18.715 -3.91023e-11 0)
(18.5013 -3.79535e-11 0)
(18.2891 -3.65669e-11 0)
(18.0784 -3.31434e-11 0)
(17.8693 -2.81672e-11 0)
(17.6616 -2.67563e-11 0)
(17.4554 -2.3186e-11 0)
(17.2508 -2.50977e-11 0)
(17.0476 -2.00431e-11 0)
(16.846 -2.28509e-11 0)
(16.6459 -1.09155e-11 0)
(16.4472 -2.50444e-11 0)
(16.2501 -4.82466e-12 0)
(16.0545 -3.0691e-11 0)
(15.8604 4.95567e-13 0)
(15.6678 -3.0138e-11 0)
(15.4767 6.83797e-12 0)
(15.2872 -1.86761e-11 0)
(15.0991 5.83216e-11 0)
(14.9126 -3.13437e-11 0)
(14.7276 5.25394e-11 0)
(14.5441 -5.09121e-11 0)
(14.3621 5.85716e-11 0)
(14.1817 -6.22193e-11 0)
(14.0028 5.03481e-11 0)
(13.8254 -5.42808e-11 0)
(13.6497 2.50144e-11 0)
(13.4754 -2.93274e-11 0)
(13.3028 -3.23607e-12 0)
(13.1317 -1.62529e-11 0)
(12.9623 -3.10078e-12 0)
(12.7944 -2.11695e-11 0)
(12.6281 2.87325e-11 0)
(12.4635 -5.46923e-11 0)
(12.3004 9.57127e-11 0)
(12.139 -1.30729e-10 0)
(11.9792 1.74599e-10 0)
(11.821 -1.62264e-10 0)
(11.6644 1.66801e-10 0)
(11.5094 -9.42525e-11 0)
(11.3561 7.65013e-11 0)
(11.2044 1.27202e-11 0)
(11.0544 -4.58014e-12 0)
(10.906 4.29929e-12 0)
(10.7591 5.78104e-11 0)
(10.614 -1.31417e-10 0)
(10.4704 2.64624e-10 0)
(10.3284 -3.69729e-10 0)
(10.1881 3.95655e-10 0)
(10.0494 -2.26616e-10 0)
(9.91227 8.80848e-12 0)
(9.77676 9.94105e-11 0)
(9.64286 6.75838e-11 0)
(9.51056 -3.26725e-10 0)
(9.37986 3.90917e-10 0)
(9.25075 -2.75061e-10 0)
(9.12323 1.667e-10 0)
(8.99729 -2.2541e-10 0)
(8.87293 3.05903e-10 0)
(8.75016 -3.3971e-10 0)
(8.62895 2.96234e-10 0)
(8.50931 -3.49248e-10 0)
(8.39124 6.06e-10 0)
(8.27472 -9.78724e-10 0)
(8.15976 1.35727e-09 0)
(8.04636 -1.47224e-09 0)
(7.9345 1.64838e-09 0)
(7.82419 -2.75512e-09 0)
(7.71542 3.22456e-09 0)
(7.60818 -1.92202e-09 0)
(7.50249 1.88508e-09 0)
(7.39832 -3.79176e-09 0)
(7.29569 3.86125e-09 0)
(7.19458 -3.50642e-09 0)
(7.09498 5.81228e-09 0)
(6.99691 -8.42936e-09 0)
(6.90034 1.04666e-08 0)
(6.80528 -1.31085e-08 0)
(6.71171 1.77208e-08 0)
(6.61963 -2.46686e-08 0)
(6.52903 3.20249e-08 0)
(6.4399 -4.37553e-08 0)
(6.35223 6.41667e-08 0)
(6.26602 -9.53427e-08 0)
(6.18124 1.43662e-07 0)
(6.09789 -2.30717e-07 0)
(6.01596 3.5388e-07 0)
(5.93545 -5.62982e-07 0)
(5.85633 7.98116e-07 0)
(5.7786 -1.23797e-06 0)
(5.70225 1.4835e-06 0)
(5.62726 -2.25567e-06 0)
(5.55365 2.42639e-06 0)
(5.48137 -3.40374e-06 0)
(5.41044 4.35457e-06 0)
(5.34084 -6.10291e-06 0)
(5.27257 7.66612e-06 0)
(5.20562 -9.04865e-06 0)
(5.13998 9.85035e-06 0)
(5.07563 -1.04985e-05 0)
(5.01259 1.07922e-05 0)
(4.95079 -8.04703e-06 0)
(4.8903 2.33576e-05 0)
(4.83106 5.6114e-05 0)
(4.77318 0.000328695 0)
(4.71742 0.00142141 0)
(4.66825 0.00600849 0)
(4.61852 -0.00377974 0)
(42.5931 -0.00012446 0)
(42.3274 -9.68985e-05 0)
(42.0161 -8.60576e-05 0)
(41.7225 -8.60612e-05 0)
(41.4439 -8.65733e-05 0)
(41.1674 -8.67704e-05 0)
(40.8889 -8.70119e-05 0)
(40.6091 -8.72686e-05 0)
(40.3292 -8.74877e-05 0)
(40.0494 -8.7666e-05 0)
(39.7698 -8.78061e-05 0)
(39.4901 -8.79237e-05 0)
(39.2105 -8.80106e-05 0)
(38.9309 -8.80782e-05 0)
(38.6514 -8.81245e-05 0)
(38.372 -8.81636e-05 0)
(38.0927 -8.81954e-05 0)
(37.8136 -8.82235e-05 0)
(37.5346 -8.82478e-05 0)
(37.2559 -8.82726e-05 0)
(36.9774 -8.82954e-05 0)
(36.6991 -8.83204e-05 0)
(36.4211 -8.83449e-05 0)
(36.1434 -8.83702e-05 0)
(35.866 -8.83967e-05 0)
(35.5889 -8.84238e-05 0)
(35.3122 -8.84499e-05 0)
(35.0358 -8.84804e-05 0)
(34.7598 -8.85067e-05 0)
(34.4843 -8.85373e-05 0)
(34.2091 -8.85678e-05 0)
(33.9345 -8.85963e-05 0)
(33.6603 -8.86302e-05 0)
(33.3866 -8.86602e-05 0)
(33.1134 -8.86945e-05 0)
(32.8407 -8.87287e-05 0)
(32.5686 -8.87621e-05 0)
(32.2971 -8.87996e-05 0)
(32.0262 -8.88377e-05 0)
(31.7559 -8.88738e-05 0)
(31.4862 -8.8915e-05 0)
(31.2173 -8.89595e-05 0)
(30.9489 -8.9007e-05 0)
(30.6813 -8.9055e-05 0)
(30.4144 -8.91034e-05 0)
(30.1483 -8.91511e-05 0)
(29.8828 -8.91939e-05 0)
(29.6182 -8.92455e-05 0)
(29.3543 -8.92989e-05 0)
(29.0912 -8.93675e-05 0)
(28.8289 -8.9445e-05 0)
(28.5674 -8.95269e-05 0)
(28.3068 -8.96107e-05 0)
(28.0469 -8.96912e-05 0)
(27.788 -8.97643e-05 0)
(27.5298 -8.98345e-05 0)
(27.2726 -8.99061e-05 0)
(27.0162 -8.99781e-05 0)
(26.7606 -9.00499e-05 0)
(26.506 -9.01223e-05 0)
(26.2523 -9.01932e-05 0)
(25.9995 -9.02629e-05 0)
(25.7476 -9.03341e-05 0)
(25.4966 -9.04106e-05 0)
(25.2466 -9.04897e-05 0)
(24.9976 -9.05611e-05 0)
(24.7496 -9.06117e-05 0)
(24.5025 -9.06269e-05 0)
(24.2565 -9.05926e-05 0)
(24.0115 -9.04978e-05 0)
(23.7676 -9.03356e-05 0)
(23.5248 -9.00987e-05 0)
(23.283 -8.97772e-05 0)
(23.0424 -8.93576e-05 0)
(22.803 -8.88211e-05 0)
(22.5647 -8.81447e-05 0)
(22.3276 -8.73023e-05 0)
(22.0917 -8.62668e-05 0)
(21.8571 -8.50124e-05 0)
(21.6238 -8.35167e-05 0)
(21.3917 -8.17613e-05 0)
(21.161 -7.97337e-05 0)
(20.9316 -7.74268e-05 0)
(20.7036 -7.48404e-05 0)
(20.4769 -7.19809e-05 0)
(20.2516 -6.88621e-05 0)
(20.0277 -6.55042e-05 0)
(19.8053 -6.19341e-05 0)
(19.5843 -5.81844e-05 0)
(19.3647 -5.42928e-05 0)
(19.1466 -5.03012e-05 0)
(18.93 -4.6254e-05 0)
(18.7148 -4.21973e-05 0)
(18.5012 -3.81771e-05 0)
(18.289 -3.42379e-05 0)
(18.0783 -3.04212e-05 0)
(17.8692 -2.67633e-05 0)
(17.6615 -2.32944e-05 0)
(17.4553 -2.00389e-05 0)
(17.2507 -1.70147e-05 0)
(17.0475 -1.4233e-05 0)
(16.8459 -1.16994e-05 0)
(16.6458 -9.41391e-06 0)
(16.4472 -7.37085e-06 0)
(16.2501 -5.56007e-06 0)
(16.0544 -3.97285e-06 0)
(15.8604 -2.60577e-06 0)
(15.6678 -1.4572e-06 0)
(15.4767 -5.21139e-07 0)
(15.2871 2.9334e-07 0)
(15.0991 9.2426e-07 0)
(14.9125 1.49845e-06 0)
(14.7275 1.97633e-06 0)
(14.544 2.36514e-06 0)
(14.362 2.6791e-06 0)
(14.1816 2.93078e-06 0)
(14.0027 3.13197e-06 0)
(13.8254 3.29231e-06 0)
(13.6496 3.42062e-06 0)
(13.4754 3.52355e-06 0)
(13.3027 3.60664e-06 0)
(13.1317 3.67408e-06 0)
(12.9622 3.72974e-06 0)
(12.7943 3.77656e-06 0)
(12.6281 3.817e-06 0)
(12.4634 3.85224e-06 0)
(12.3003 3.88348e-06 0)
(12.1389 3.9111e-06 0)
(11.9791 3.9372e-06 0)
(11.8209 3.96159e-06 0)
(11.6643 3.98612e-06 0)
(11.5094 4.00951e-06 0)
(11.3561 4.03275e-06 0)
(11.2044 4.05518e-06 0)
(11.0543 4.07745e-06 0)
(10.9059 4.09976e-06 0)
(10.7591 4.12259e-06 0)
(10.6139 4.14563e-06 0)
(10.4703 4.16942e-06 0)
(10.3284 4.19213e-06 0)
(10.188 4.21571e-06 0)
(10.0493 4.23796e-06 0)
(9.91221 4.26106e-06 0)
(9.7767 4.28441e-06 0)
(9.6428 4.30817e-06 0)
(9.5105 4.3318e-06 0)
(9.3798 4.35703e-06 0)
(9.25069 4.38108e-06 0)
(9.12317 4.40688e-06 0)
(8.99723 4.43141e-06 0)
(8.87287 4.45654e-06 0)
(8.7501 4.4803e-06 0)
(8.62889 4.505e-06 0)
(8.50925 4.52893e-06 0)
(8.39118 4.55441e-06 0)
(8.27466 4.57786e-06 0)
(8.1597 4.60491e-06 0)
(8.0463 4.62701e-06 0)
(7.93444 4.65405e-06 0)
(7.82413 4.67401e-06 0)
(7.71535 4.70405e-06 0)
(7.60812 4.72365e-06 0)
(7.50243 4.752e-06 0)
(7.39826 4.7708e-06 0)
(7.29563 4.80248e-06 0)
(7.19451 4.8189e-06 0)
(7.09492 4.85083e-06 0)
(6.99685 4.86188e-06 0)
(6.90028 4.90149e-06 0)
(6.80522 4.90616e-06 0)
(6.71165 4.95549e-06 0)
(6.61957 4.94406e-06 0)
(6.52897 5.01394e-06 0)
(6.43984 4.97504e-06 0)
(6.35217 5.08695e-06 0)
(6.26596 4.98079e-06 0)
(6.18118 5.1992e-06 0)
(6.09783 4.9188e-06 0)
(6.0159 5.41688e-06 0)
(5.93539 4.69575e-06 0)
(5.85627 5.8225e-06 0)
(5.77854 4.19333e-06 0)
(5.70218 6.42925e-06 0)
(5.62721 3.43592e-06 0)
(5.55357 7.12072e-06 0)
(5.48132 2.55429e-06 0)
(5.41037 7.71919e-06 0)
(5.3408 8.93611e-07 0)
(5.27249 8.81666e-06 0)
(5.20558 -3.52427e-07 0)
(5.13989 1.05125e-05 0)
(5.07559 -1.70247e-06 0)
(5.0125 1.24999e-05 0)
(4.95077 -1.26905e-06 0)
(4.89021 1.45217e-05 0)
(4.83098 6.08841e-06 0)
(4.77264 -1.71593e-05 0)
(4.71312 -0.00042289 0)
(4.64551 0.0023652 0)
(4.38433 -0.0124315 0)
(42.5914 -9.81457e-05 0)
(42.3239 -9.05603e-05 0)
(42.0108 -8.89327e-05 0)
(41.7155 -9.03751e-05 0)
(41.4351 -9.16137e-05 0)
(41.1568 -9.25289e-05 0)
(40.8764 -9.32819e-05 0)
(40.5948 -9.38944e-05 0)
(40.313 -9.43775e-05 0)
(40.0315 -9.47542e-05 0)
(39.7499 -9.5043e-05 0)
(39.4684 -9.52685e-05 0)
(39.187 -9.54373e-05 0)
(38.9055 -9.55644e-05 0)
(38.6241 -9.56546e-05 0)
(38.3429 -9.5724e-05 0)
(38.0617 -9.57767e-05 0)
(37.7807 -9.5818e-05 0)
(37.4999 -9.58503e-05 0)
(37.2193 -9.58781e-05 0)
(36.939 -9.59014e-05 0)
(36.6588 -9.59235e-05 0)
(36.3789 -9.59436e-05 0)
(36.0994 -9.5963e-05 0)
(35.8201 -9.59823e-05 0)
(35.5411 -9.60013e-05 0)
(35.2625 -9.60194e-05 0)
(34.9843 -9.604e-05 0)
(34.7065 -9.6058e-05 0)
(34.429 -9.60784e-05 0)
(34.1521 -9.6099e-05 0)
(33.8755 -9.61185e-05 0)
(33.5995 -9.61415e-05 0)
(33.3239 -9.61625e-05 0)
(33.0488 -9.61865e-05 0)
(32.7743 -9.62109e-05 0)
(32.5003 -9.62352e-05 0)
(32.227 -9.62625e-05 0)
(31.9542 -9.6291e-05 0)
(31.682 -9.63188e-05 0)
(31.4105 -9.63506e-05 0)
(31.1396 -9.63857e-05 0)
(30.8695 -9.6424e-05 0)
(30.6 -9.64637e-05 0)
(30.3312 -9.65046e-05 0)
(30.0632 -9.65456e-05 0)
(29.7959 -9.6584e-05 0)
(29.5293 -9.66285e-05 0)
(29.2636 -9.6676e-05 0)
(28.9986 -9.67356e-05 0)
(28.7344 -9.68041e-05 0)
(28.4711 -9.68781e-05 0)
(28.2085 -9.69546e-05 0)
(27.9468 -9.70294e-05 0)
(27.686 -9.70991e-05 0)
(27.426 -9.71663e-05 0)
(27.1668 -9.72344e-05 0)
(26.9085 -9.73037e-05 0)
(26.6511 -9.73736e-05 0)
(26.3946 -9.74445e-05 0)
(26.139 -9.75146e-05 0)
(25.8843 -9.75832e-05 0)
(25.6305 -9.7652e-05 0)
(25.3777 -9.77233e-05 0)
(25.1258 -9.77947e-05 0)
(24.8749 -9.78582e-05 0)
(24.625 -9.79017e-05 0)
(24.376 -9.79119e-05 0)
(24.1281 -9.78748e-05 0)
(23.8812 -9.77788e-05 0)
(23.6354 -9.76145e-05 0)
(23.3907 -9.73725e-05 0)
(23.1471 -9.70411e-05 0)
(22.9046 -9.6605e-05 0)
(22.6633 -9.60444e-05 0)
(22.4232 -9.53355e-05 0)
(22.1843 -9.44518e-05 0)
(21.9466 -9.33654e-05 0)
(21.7102 -9.20496e-05 0)
(21.4751 -9.04807e-05 0)
(21.2413 -8.86387e-05 0)
(21.0089 -8.65094e-05 0)
(20.7779 -8.40839e-05 0)
(20.5482 -8.13606e-05 0)
(20.32 -7.83447e-05 0)
(20.0933 -7.50493e-05 0)
(19.868 -7.14946e-05 0)
(19.6442 -6.7708e-05 0)
(19.422 -6.37233e-05 0)
(19.2012 -5.95799e-05 0)
(18.982 -5.53219e-05 0)
(18.7644 -5.09966e-05 0)
(18.5483 -4.66533e-05 0)
(18.3338 -4.23414e-05 0)
(18.1209 -3.81089e-05 0)
(17.9096 -3.4001e-05 0)
(17.6998 -3.00577e-05 0)
(17.4916 -2.63123e-05 0)
(17.285 -2.27917e-05 0)
(17.08 -1.9516e-05 0)
(16.8765 -1.64979e-05 0)
(16.6746 -1.37439e-05 0)
(16.4743 -1.12546e-05 0)
(16.2755 -9.02477e-06 0)
(16.0783 -7.04492e-06 0)
(15.8826 -5.30156e-06 0)
(15.6884 -3.77616e-06 0)
(15.4958 -2.44209e-06 0)
(15.3047 -1.25541e-06 0)
(15.1152 -9.39627e-08 0)
(14.9272 5.44845e-07 0)
(14.7407 1.11326e-06 0)
(14.5557 1.58484e-06 0)
(14.3723 1.97262e-06 0)
(14.1904 2.28854e-06 0)
(14.01 2.54359e-06 0)
(13.8312 2.74803e-06 0)
(13.654 2.91131e-06 0)
(13.4783 3.04167e-06 0)
(13.3041 3.14597e-06 0)
(13.1316 3.22971e-06 0)
(12.9606 3.29726e-06 0)
(12.7913 3.35259e-06 0)
(12.6235 3.39876e-06 0)
(12.4573 3.43826e-06 0)
(12.2927 3.47258e-06 0)
(12.1298 3.5027e-06 0)
(11.9684 3.52956e-06 0)
(11.8087 3.5545e-06 0)
(11.6506 3.5783e-06 0)
(11.4942 3.60169e-06 0)
(11.3393 3.62456e-06 0)
(11.1861 3.64698e-06 0)
(11.0345 3.66894e-06 0)
(10.8846 3.6907e-06 0)
(10.7362 3.71259e-06 0)
(10.5895 3.73495e-06 0)
(10.4444 3.75776e-06 0)
(10.301 3.78086e-06 0)
(10.1591 3.80376e-06 0)
(10.0189 3.82646e-06 0)
(9.88027 3.84897e-06 0)
(9.74327 3.87167e-06 0)
(9.60787 3.8947e-06 0)
(9.47407 3.91819e-06 0)
(9.34188 3.94198e-06 0)
(9.21128 3.96625e-06 0)
(9.08227 3.99076e-06 0)
(8.95486 4.01577e-06 0)
(8.82903 4.04062e-06 0)
(8.70478 4.06523e-06 0)
(8.58211 4.08941e-06 0)
(8.46101 4.11378e-06 0)
(8.34148 4.13832e-06 0)
(8.22352 4.16321e-06 0)
(8.10711 4.18832e-06 0)
(7.99226 4.21376e-06 0)
(7.87897 4.23871e-06 0)
(7.76722 4.26379e-06 0)
(7.65702 4.28841e-06 0)
(7.54836 4.31404e-06 0)
(7.44123 4.33911e-06 0)
(7.33565 4.36499e-06 0)
(7.2316 4.39013e-06 0)
(7.12907 4.41626e-06 0)
(7.02808 4.44071e-06 0)
(6.9286 4.46628e-06 0)
(6.83064 4.49018e-06 0)
(6.73418 4.51724e-06 0)
(6.63923 4.54122e-06 0)
(6.54578 4.5693e-06 0)
(6.45382 4.59156e-06 0)
(6.36333 4.62116e-06 0)
(6.27432 4.64093e-06 0)
(6.18676 4.67458e-06 0)
(6.10066 4.68942e-06 0)
(6.016 4.73319e-06 0)
(5.93277 4.73266e-06 0)
(5.85096 4.80303e-06 0)
(5.77056 4.76139e-06 0)
(5.69156 4.90379e-06 0)
(5.61395 4.77202e-06 0)
(5.53771 5.08342e-06 0)
(5.46286 4.77191e-06 0)
(5.38934 5.28497e-06 0)
(5.31721 4.67842e-06 0)
(5.24637 5.53108e-06 0)
(5.17692 4.60992e-06 0)
(5.10874 5.8478e-06 0)
(5.04194 4.7678e-06 0)
(4.97638 6.02442e-06 0)
(4.9122 4.89632e-06 0)
(4.84923 6.30937e-06 0)
(4.78762 5.06251e-06 0)
(4.72719 6.27015e-06 0)
(4.66809 6.25317e-06 0)
(4.60995 2.25165e-05 0)
(4.5516 0.000242436 0)
(4.4901 0.00875603 0)
(4.74449 0.0211476 0)
(3.96314 0.152156 -3.63188e-15)
(3.89804 0.418441 7.26205e-15)
(3.94362 0.722578 -1.36093e-14)
(3.99955 1.0441 2.81129e-14)
(3.95322 1.35202 -2.90187e-14)
(3.78214 1.59198 -1.81374e-15)
(3.60251 1.82326 -3.653e-20)
(3.6903 2.24008 -2.53378e-14)
(4.14329 3.02432 -1.17163e-13)
(4.68034 4.09152 1.14909e-13)
(4.83188 4.97336 -2.87001e-14)
(4.43673 5.24016 -5.91981e-14)
(3.69665 4.96374 3.05511e-14)
(2.83432 4.31307 0)
(1.98176 3.33103 2.89757e-14)
(1.38896 2.63747 2.91058e-14)
(1.16906 3.11075 -2.90546e-14)
(1.12452 4.35343 2.89092e-14)
(0.987718 5.8936 2.24447e-16)
(0.67014 7.91467 -2.22276e-16)
(4.37248 0.198373 0)
(4.37969 0.517239 0)
(4.44354 0.901204 -1.8563e-15)
(4.49952 1.33706 -3.71016e-15)
(4.42513 1.83842 9.27618e-15)
(4.18544 2.26054 1.8549e-14)
(3.92449 2.50726 0)
(3.97195 2.6167 1.11081e-14)
(4.37515 2.98798 1.84369e-14)
(4.83026 3.90934 -4.40645e-14)
(4.80986 5.36912 2.9351e-14)
(4.18217 6.35804 1.46712e-14)
(3.20167 6.61075 -1.46629e-14)
(2.04747 6.32252 1.46836e-14)
(0.89928 5.34346 0)
(0.372226 3.96934 -1.85549e-15)
(0.908077 3.43909 1.85911e-15)
(1.13803 3.97639 -6.48495e-15)
(1.15265 4.87145 -9.22646e-16)
(1.37612 5.8683 0)
(4.60568 -0.0649637 -4.96099e-17)
(4.62694 -0.14257 -2.51994e-14)
(4.68813 -0.237228 2.5596e-14)
(4.79034 -0.344151 -2.46057e-14)
(4.94308 -0.444572 -2.699e-14)
(5.138 -0.488875 1.00418e-13)
(5.33853 -0.443725 -5.08087e-14)
(5.48976 -0.314431 4.92273e-14)
(5.61265 -0.213233 -1.00083e-13)
(5.83453 -0.260312 1.58935e-15)
(6.26496 -0.401079 4.93257e-14)
(6.74845 -0.346204 0)
(7.07454 0.00781998 -4.93374e-14)
(7.19272 0.575525 4.93155e-14)
(7.13717 1.25768 -3.97466e-16)
(6.85499 1.9942 0)
(6.09373 2.69528 3.97486e-16)
(5.1265 3.17949 0)
(4.45476 3.43682 0)
(4.49857 3.49927 0)
(4.27869 0.179753 8.31267e-16)
(4.15218 0.533528 -8.31668e-15)
(4.04889 0.961085 -1.6632e-15)
(3.97627 1.39348 3.32381e-15)
(3.91581 1.82491 -3.32027e-15)
(3.85431 2.25613 2.18681e-20)
(3.78108 2.68618 -1.32453e-14)
(3.68549 3.11468 0)
(3.55735 3.54108 0)
(3.38639 3.96203 -6.59436e-15)
(3.16281 4.37098 6.58654e-15)
(2.88635 4.7586 0)
(2.5693 5.12099 -6.57183e-15)
(2.22276 5.4623 6.56397e-15)
(1.85087 5.78567 -6.55558e-15)
(1.45392 6.08815 1.30937e-14)
(1.03003 6.36835 -6.53703e-15)
(0.569989 6.63825 0)
(0.0717262 6.90544 -3.25701e-15)
(-0.447397 7.18237 0)
(4.78224 0.224892 -1.30092e-15)
(4.8082 0.539018 9.97294e-15)
(4.77652 0.886459 6.93524e-15)
(4.74236 1.23453 1.38608e-14)
(4.72394 1.59905 0)
(4.70545 1.98999 0)
(4.67301 2.40697 1.38163e-14)
(4.61839 2.84703 3.44931e-15)
(4.53528 3.30385 -6.88853e-15)
(4.41628 3.76578 3.43932e-15)
(4.252 4.21978 2.74782e-14)
(4.03446 4.6599 -1.71529e-14)
(3.76298 5.08736 1.71326e-14)
(3.44227 5.50531 -3.42235e-15)
(3.07605 5.91598 -1.36716e-14)
(2.66383 6.32269 -2.38904e-14)
(2.20365 6.73361 -1.19242e-14)
(1.70237 7.1555 -1.69987e-15)
(1.17528 7.56865 9.75346e-15)
(0.678877 7.89066 4.23836e-16)
(0.227807 12.8088 0)
(0.300568 12.0425 0)
(0.321517 10.1879 0)
(0.198362 11.2804 0)
(0.228908 14.3765 0)
(0.407143 15.6944 0)
(0.451723 14.723 0)
(0.329941 14.8434 0)
(0.38053 17.0306 0)
(0.522702 17.6318 0)
(0.556052 16.2406 0)
(0.376478 16.5233 0)
(0.439316 19.349 0)
(0.611432 20.1748 0)
(0.656876 18.4816 0)
(0.61369 15.8084 0)
(0.317511 16.6075 0)
(0.379995 21.2154 0)
(0.670568 22.8934 0)
(0.728829 21.1171 0)
(0.705946 17.6362 0)
(0.629919 14.8702 0)
(0.235151 17.8847 0)
(0.427579 23.6025 0)
(0.753485 24.8769 0)
(0.83023 22.6518 0)
(0.838864 19.412 0)
(0.652604 18.5135 0)
(0.524042 21.8522 0)
(0.811673 24.2508 0)
(0.940915 23.7179 0)
(0.992445 22.647 0)
(1.01976 21.9741 0)
(1.03604 21.5948 0)
(1.0441 21.3622 0)
(1.04623 21.1879 0)
(1.04216 20.9834 0)
(1.02354 20.5504 0)
(0.983175 19.3429 0)
(0.925906 16.7928 0)
(0.60799 16.851 0)
(0.504628 21.3467 0)
(0.844642 23.8645 0)
(0.972093 23.1194 0)
(1.01813 22.034 0)
(1.04077 21.4114 0)
(1.05305 21.0828 0)
(1.05824 20.8994 0)
(1.05959 20.7887 0)
(1.05935 20.7147 0)
(1.0584 20.659 0)
(1.05703 20.6126 0)
(1.05538 20.571 0)
(1.05349 20.532 0)
(1.0514 20.4943 0)
(1.04912 20.4575 0)
(1.04675 20.4216 0)
(1.04439 20.387 0)
(1.04211 20.3536 0)
(1.03991 20.3213 0)
(1.03782 20.2896 0)
(1.03584 20.2582 0)
(1.03398 20.227 0)
(1.03221 20.1959 0)
(1.03053 20.1648 0)
(1.02891 20.1336 0)
(1.02732 20.1024 0)
(1.02572 20.0712 0)
(1.02408 20.0399 0)
(1.02234 20.0087 0)
(1.02046 19.9777 0)
(1.01837 19.9468 0)
(1.01601 19.9162 0)
(1.01329 19.8859 0)
(1.01011 19.8561 0)
(1.00637 19.8268 0)
(1.00192 19.798 0)
(0.996582 19.7698 0)
(0.990176 19.742 0)
(0.982478 19.7144 0)
(0.97324 19.6865 0)
(0.962192 19.6579 0)
(0.949032 19.6273 0)
(0.933427 19.5933 0)
(0.914997 19.5531 0)
(0.893298 19.5021 0)
(0.867768 19.4318 0)
(0.837749 19.3245 0)
(0.802792 19.1423 0)
(0.763603 18.8044 0)
(0.722147 18.1665 0)
(0.671184 17.0479 0)
(0.594342 15.6939 0)
(0.40586 15.9416 0)
(0.289062 18.682 0)
(0.352135 21.0183 0)
(0.431817 21.2235 0)