/*--------------------------------*- C++ -*----------------------------------*\
| =========                 |                                                 |
| \\      /  F ield         | OpenFOAM: The Open Source CFD Toolbox           |
|  \\    /   O peration     | Version:  3.0.x                                 |
|   \\  /    A nd           | Web:      www.OpenFOAM.org                      |
|    \\/     M anipulation  |                                                 |
\*---------------------------------------------------------------------------*/
FoamFile
{
    version     2.0;
    format      ascii;
    class       surfaceScalarField;
    location    "0.15";
    object      phi;
}
// * * * * * * * * * * * * * * * * * * * * * * * * * * * * * * * * * * * * * //

dimensions      [1 0 -1 0 0 0 0];

internalField   nonuniform List<scalar> 
26210
(
6.97679
0.000504391
6.97271
0.000348545
6.96867
0.000340517
6.96473
0.000342455
6.96091
0.00034268
6.95725
0.000342791
6.95378
0.000342641
6.95054
0.000342626
6.94755
0.000342421
6.94483
0.000342737
6.94237
0.0003425
6.94019
0.000342757
6.93831
0.000342118
6.9367
0.00034232
6.93536
0.00034226
6.93427
0.000342187
6.93344
0.000342124
6.93284
0.00034201
6.93248
0.000341845
6.93233
0.000342358
6.93237
0.000341897
6.93258
0.000341869
6.93291
0.000341932
6.93333
0.000341906
6.93381
0.000341848
6.93434
0.000341736
6.93489
0.000341532
6.93544
0.000341184
6.93597
0.000340623
6.93648
0.000339746
6.93695
0.000338436
6.93737
0.000336538
6.93773
0.00033388
6.93805
0.000330261
6.9383
0.000325472
6.9385
0.000319313
6.93865
0.000311599
6.93876
0.000302186
6.93882
0.000290987
6.93885
0.000277988
6.93885
0.000263257
6.93883
0.000246949
6.9388
0.000229288
6.93875
0.000210642
6.9387
0.000191294
6.93864
0.00017169
6.93859
0.000152226
6.93854
0.000133289
6.93849
0.000115225
6.93844
9.83268e-05
6.93838
8.28168e-05
6.93833
6.88446e-05
6.93827
5.65435e-05
6.9382
4.56401e-05
6.93812
3.65783e-05
6.93802
2.89237e-05
6.93789
2.25477e-05
6.93772
1.74053e-05
6.93752
1.33069e-05
6.93727
1.00927e-05
6.93697
7.61507e-06
6.93661
5.73798e-06
6.93618
4.34134e-06
6.93568
3.32119e-06
6.9351
2.59318e-06
6.93443
2.08583e-06
6.93366
1.74355e-06
6.9328
1.52252e-06
6.93183
1.38881e-06
6.93075
1.317e-06
6.92956
1.28793e-06
6.92826
1.28735e-06
6.92686
1.3048e-06
6.92535
1.33237e-06
6.92374
1.36417e-06
6.92205
1.39572e-06
6.92028
1.42357e-06
6.91845
1.44493e-06
6.91658
1.45761e-06
6.91468
1.4598e-06
6.91278
1.45012e-06
6.9109
1.42746e-06
6.90906
1.39111e-06
6.90729
1.34072e-06
6.9056
1.27634e-06
6.90404
1.19844e-06
6.90261
1.10782e-06
6.90134
1.0057e-06
6.90025
8.93619e-07
6.89934
7.73571e-07
6.89864
6.47608e-07
6.89814
5.16995e-07
6.89786
3.84771e-07
6.89779
2.55097e-07
6.89792
1.91398e-07
6.89819
5.91153e-08
6.89865
-7.9337e-08
6.89929
-1.7791e-07
6.90008
-2.71466e-07
6.90101
-3.50154e-07
6.90204
-4.11534e-07
6.90316
-4.56417e-07
6.90435
-4.83848e-07
6.90557
-4.96128e-07
6.9068
-4.95207e-07
6.90804
-4.82672e-07
6.90925
-4.59555e-07
6.91042
-4.28054e-07
6.91154
-3.87919e-07
6.9126
-3.41088e-07
6.91358
-2.89534e-07
6.91449
-2.34983e-07
6.91532
-1.79349e-07
6.91608
-1.24099e-07
6.91676
-7.01257e-08
6.91736
-1.84955e-08
6.9179
3.01588e-08
6.91838
7.52298e-08
6.9188
1.16075e-07
6.91916
1.52806e-07
6.91949
1.85133e-07
6.91978
2.13235e-07
6.92004
2.37123e-07
6.92028
2.57198e-07
6.92049
2.73778e-07
6.92069
2.87075e-07
6.92088
2.97778e-07
6.92107
3.05845e-07
6.92125
3.12197e-07
6.92142
3.16759e-07
6.92159
3.2026e-07
6.92176
3.23023e-07
6.92194
3.2573e-07
6.92211
3.30201e-07
6.92228
3.39291e-07
6.92246
3.05068e-07
6.92263
3.4191e-07
6.92281
3.76978e-07
6.92299
3.34538e-07
6.92317
3.14003e-07
6.92335
3.1054e-07
6.92353
3.29606e-07
6.92372
3.54426e-07
6.92391
3.60867e-07
6.92411
3.74199e-07
6.92431
3.77553e-07
6.92453
3.83481e-07
6.92475
3.89293e-07
6.92499
3.97444e-07
6.92525
4.07676e-07
6.92553
4.20179e-07
6.92583
4.34286e-07
6.92616
4.50162e-07
6.92653
4.6748e-07
6.92693
4.86407e-07
6.92737
5.06825e-07
6.92786
5.28644e-07
6.92839
5.52074e-07
6.92898
5.76953e-07
6.92961
6.02839e-07
6.93031
6.29056e-07
6.93105
6.55606e-07
6.93186
6.81957e-07
6.93272
7.07583e-07
6.93363
7.32356e-07
6.9346
7.54428e-07
6.93561
7.75148e-07
6.93666
7.92825e-07
6.93775
8.06853e-07
6.93887
8.17852e-07
6.94
8.23753e-07
6.94114
8.2412e-07
6.94227
8.1946e-07
6.94339
8.10169e-07
6.94448
7.93643e-07
6.94552
7.7165e-07
6.94651
7.39677e-07
6.94743
7.11401e-07
6.94826
6.64308e-07
6.949
6.3524e-07
6.94963
5.31847e-07
6.95014
5.00477e-07
6.95051
4.86179e-07
6.95075
4.43728e-07
6.95085
2.87713e-07
6.95079
1.89715e-07
6.95053
-8.53124e-08
6.9501
3.02443e-07
6.94951
3.59323e-08
6.94876
9.02146e-08
6.94786
6.43317e-07
6.9468
3.58191e-06
6.94558
1.8034e-05
6.94417
8.80484e-05
6.94229
0.000425758
6.93868
0.00204956
6.9272
0.0098111
6.8785
0.0469354
6.64638
0.230301
0.904824
5.73969
9.86753
0.000460234
9.86226
0.000332091
9.85706
0.000315342
9.85198
0.000319407
9.84709
0.000319957
9.84241
0.000319921
9.83802
0.00031981
9.83394
0.000319828
9.83022
0.000319672
9.82687
0.00032001
9.8239
0.000319731
9.82132
0.000320067
9.81916
0.000319478
9.8174
0.000319678
9.816
0.000319661
9.81497
0.000319609
9.81429
0.000319577
9.81396
0.000319491
9.81395
0.000319369
9.81424
0.000319857
9.81481
0.000319462
9.8156
0.000319458
9.81657
0.000319537
9.81767
0.000319537
9.81886
0.000319505
9.82011
0.000319422
9.82138
0.000319252
9.82266
0.000318944
9.82392
0.00031844
9.82514
0.000317631
9.8263
0.000316416
9.82739
0.000314645
9.8284
0.000312157
9.82933
0.000308762
9.83017
0.000304264
9.83092
0.000298475
9.8316
0.000291223
9.83219
0.000282374
9.83271
0.000271849
9.83316
0.000259636
9.83355
0.000245803
9.83388
0.000230497
9.83417
0.000213932
9.83441
0.00019645
9.83462
0.00017833
9.8348
0.000159978
9.83494
0.000141773
9.83507
0.000124073
9.83516
0.000107203
9.83524
9.14329e-05
9.83529
7.69695e-05
9.83531
6.39505e-05
9.83531
5.24947e-05
9.83527
4.23478e-05
9.83521
3.39299e-05
9.83511
2.68119e-05
9.83496
2.08927e-05
9.83475
1.61199e-05
9.83449
1.23203e-05
9.83415
9.34134e-06
9.83373
7.0468e-06
9.83323
5.30942e-06
9.83263
4.0179e-06
9.83193
3.07441e-06
9.8311
2.40249e-06
9.83016
1.93431e-06
9.82907
1.61881e-06
9.82785
1.41546e-06
9.82648
1.29276e-06
9.82495
1.2272e-06
9.82328
1.20109e-06
9.82144
1.20123e-06
9.81945
1.21798e-06
9.81732
1.24402e-06
9.81505
1.27388e-06
9.81266
1.30346e-06
9.81016
1.32953e-06
9.80757
1.34953e-06
9.80493
1.36138e-06
9.80224
1.36345e-06
9.79955
1.35441e-06
9.79689
1.33327e-06
9.79429
1.29932e-06
9.79178
1.25227e-06
9.78941
1.19216e-06
9.78719
1.11942e-06
9.78517
1.03481e-06
9.78338
9.39477e-07
9.78183
8.34827e-07
9.78055
7.22746e-07
9.77955
6.05134e-07
9.77885
4.83233e-07
9.77846
3.59787e-07
9.77836
2.39403e-07
9.77854
1.77764e-07
9.77892
5.70508e-08
9.77957
-7.32871e-08
9.78047
-1.65224e-07
9.78159
-2.52281e-07
9.78289
-3.25925e-07
9.78436
-3.83141e-07
9.78594
-4.24872e-07
9.78761
-4.50484e-07
9.78934
-4.6196e-07
9.79108
-4.61141e-07
9.79283
-4.49425e-07
9.79454
-4.27968e-07
9.79619
-3.98546e-07
9.79777
-3.61166e-07
9.79926
-3.17501e-07
9.80066
-2.69436e-07
9.80194
-2.1857e-07
9.80312
-1.6671e-07
9.80418
-1.15206e-07
9.80514
-6.48924e-08
9.806
-1.67056e-08
9.80675
2.85363e-08
9.80743
7.06932e-08
9.80802
1.08777e-07
9.80854
1.43033e-07
9.809
1.73206e-07
9.80941
1.99421e-07
9.80978
2.21713e-07
9.81011
2.40438e-07
9.81041
2.55908e-07
9.8107
2.68328e-07
9.81096
2.78298e-07
9.81122
2.85845e-07
9.81147
2.91753e-07
9.81172
2.96026e-07
9.81196
2.99284e-07
9.8122
3.01889e-07
9.81245
3.04475e-07
9.81269
3.08733e-07
9.81294
3.16313e-07
9.81318
2.86513e-07
9.81343
3.17965e-07
9.81368
3.52078e-07
9.81393
3.14667e-07
9.81419
2.93834e-07
9.81444
2.91056e-07
9.8147
3.08843e-07
9.81496
3.31753e-07
9.81523
3.38045e-07
9.81551
3.50185e-07
9.8158
3.53508e-07
9.8161
3.58938e-07
9.81641
3.64391e-07
9.81675
3.71954e-07
9.81712
3.81477e-07
9.81751
3.93084e-07
9.81794
4.06217e-07
9.81841
4.20971e-07
9.81892
4.3709e-07
9.81949
4.54709e-07
9.82012
4.73729e-07
9.8208
4.94059e-07
9.82156
5.15887e-07
9.82238
5.39092e-07
9.82328
5.63225e-07
9.82426
5.87686e-07
9.82532
6.12434e-07
9.82646
6.37034e-07
9.82768
6.60926e-07
9.82897
6.84082e-07
9.83033
7.04391e-07
9.83176
7.24167e-07
9.83325
7.40692e-07
9.83479
7.53249e-07
9.83637
7.64148e-07
9.83797
7.69431e-07
9.83958
7.69796e-07
9.84118
7.6494e-07
9.84276
7.57347e-07
9.8443
7.4156e-07
9.84578
7.20573e-07
9.84718
6.88115e-07
9.84848
6.71558e-07
9.84965
6.18025e-07
9.8507
6.14829e-07
9.85158
4.45769e-07
9.8523
4.53867e-07
9.85283
5.06801e-07
9.85317
4.99407e-07
9.8533
2.16744e-07
9.85322
4.11637e-08
9.85285
-2.6248e-08
9.85224
3.48487e-07
9.85141
8.70077e-08
9.85035
3.23793e-07
9.84907
1.75857e-06
9.84757
8.93796e-06
9.84585
4.38573e-05
9.84384
0.000212663
9.84118
0.00102661
9.83608
0.00494064
9.81987
0.0236702
9.75114
0.113171
9.42982
0.549045
2.08999
8.24201
13.9548
0.00040172
13.9473
0.00030563
13.94
0.000280735
13.9328
0.000286563
13.9259
0.000287554
13.9193
0.000287337
13.9131
0.000287241
13.9073
0.000287272
13.902
0.000287148
13.8973
0.000287466
13.8931
0.000287139
13.8895
0.000287517
13.8864
0.00028697
13.8839
0.000287137
13.8819
0.000287139
13.8805
0.000287086
13.8795
0.00028706
13.879
0.000286981
13.879
0.000286878
13.8794
0.000287304
13.8802
0.000286961
13.8814
0.000286957
13.8827
0.000287024
13.8843
0.000287026
13.886
0.000286998
13.8877
0.000286924
13.8895
0.000286773
13.8914
0.000286498
13.8931
0.000286053
13.8949
0.000285331
13.8965
0.000284249
13.898
0.000282669
13.8995
0.000280451
13.9008
0.000277422
13.902
0.000273404
13.903
0.000268232
13.904
0.000261751
13.9048
0.000253838
13.9056
0.000244421
13.9062
0.000233488
13.9068
0.0002211
13.9072
0.000207386
13.9076
0.000192537
13.908
0.000176853
13.9083
0.000160597
13.9085
0.000144119
13.9087
0.000127764
13.9089
0.000111856
13.909
9.6685e-05
13.9091
8.24964e-05
13.9092
6.94762e-05
13.9092
5.77504e-05
13.9092
4.74237e-05
13.9092
3.8275e-05
13.9091
3.06855e-05
13.909
2.42553e-05
13.9087
1.89098e-05
13.9085
1.45952e-05
13.9081
1.11602e-05
13.9076
8.46445e-06
13.907
6.38706e-06
13.9063
4.81297e-06
13.9055
3.6424e-06
13.9045
2.78583e-06
13.9033
2.17622e-06
13.902
1.75066e-06
13.9004
1.46345e-06
13.8987
1.27802e-06
13.8968
1.16579e-06
13.8946
1.10541e-06
13.8922
1.08095e-06
13.8896
1.08036e-06
13.8868
1.09493e-06
13.8838
1.118e-06
13.8806
1.14461e-06
13.8772
1.17105e-06
13.8737
1.19437e-06
13.87
1.21227e-06
13.8663
1.22288e-06
13.8625
1.22471e-06
13.8587
1.21657e-06
13.8549
1.19758e-06
13.8512
1.16708e-06
13.8477
1.12481e-06
13.8443
1.07081e-06
13.8412
1.00548e-06
13.8383
9.29473e-07
13.8358
8.43851e-07
13.8336
7.49858e-07
13.8318
6.49182e-07
13.8304
5.4353e-07
13.8294
4.34079e-07
13.8288
3.23183e-07
13.8287
2.15712e-07
13.829
1.57778e-07
13.8295
5.22741e-08
13.8304
-6.54886e-08
13.8317
-1.48412e-07
13.8333
-2.26263e-07
13.8351
-2.92788e-07
13.8372
-3.44164e-07
13.8394
-3.81513e-07
13.8418
-4.04541e-07
13.8442
-4.14872e-07
13.8467
-4.14159e-07
13.8492
-4.03589e-07
13.8516
-3.84413e-07
13.8539
-3.5793e-07
13.8562
-3.24389e-07
13.8583
-2.85169e-07
13.8602
-2.41995e-07
13.8621
-1.96299e-07
13.8637
-1.49749e-07
13.8652
-1.03494e-07
13.8666
-5.83186e-08
13.8678
-1.49671e-08
13.8689
2.53817e-08
13.8698
6.3485e-08
13.8706
9.76784e-08
13.8714
1.28435e-07
13.872
1.55545e-07
13.8726
1.79092e-07
13.8731
1.99123e-07
13.8736
2.15935e-07
13.874
2.29838e-07
13.8744
2.41006e-07
13.8748
2.49945e-07
13.8752
2.5675e-07
13.8755
2.62038e-07
13.8759
2.65902e-07
13.8762
2.6883e-07
13.8766
2.71189e-07
13.8769
2.73561e-07
13.8773
2.77403e-07
13.8776
2.83263e-07
13.8779
2.59141e-07
13.8783
2.83871e-07
13.8787
3.15467e-07
13.879
2.84187e-07
13.8794
2.63715e-07
13.8797
2.61644e-07
13.8801
2.77529e-07
13.8805
2.97764e-07
13.8808
3.03738e-07
13.8812
3.14336e-07
13.8816
3.17581e-07
13.8821
3.22377e-07
13.8825
3.27326e-07
13.883
3.34111e-07
13.8835
3.42676e-07
13.8841
3.53084e-07
13.8847
3.64894e-07
13.8853
3.78131e-07
13.8861
3.92615e-07
13.8869
4.08444e-07
13.8878
4.25522e-07
13.8887
4.43798e-07
13.8898
4.63392e-07
13.891
4.84248e-07
13.8922
5.05916e-07
13.8936
5.27907e-07
13.8951
5.50119e-07
13.8967
5.72226e-07
13.8984
5.93673e-07
13.9003
6.1451e-07
13.9022
6.32487e-07
13.9042
6.50676e-07
13.9063
6.65662e-07
13.9085
6.76123e-07
13.9107
6.86803e-07
13.913
6.9127e-07
13.9153
6.91452e-07
13.9175
6.86402e-07
13.9198
6.8114e-07
13.922
6.66375e-07
13.924
6.4685e-07
13.926
6.13823e-07
13.9279
6.13603e-07
13.9295
5.50954e-07
13.931
5.84002e-07
13.9323
3.23966e-07
13.9333
3.86847e-07
13.934
5.33627e-07
13.9345
5.74901e-07
13.9347
1.13107e-07
13.9346
-1.86634e-07
13.934
1.42008e-07
13.9332
3.4774e-07
13.932
1.54972e-07
13.9305
6.46126e-07
13.9287
3.29749e-06
13.9266
1.63283e-05
13.9241
7.9488e-05
13.9213
0.000384612
13.9176
0.00185579
13.9105
0.00893158
13.888
0.0428091
13.7932
0.20443
13.3567
0.981938
3.6486
11.7943
61.5994
0.000184957
61.5665
0.000160842
61.534
0.00013878
61.5023
0.000142466
61.4718
0.000144196
61.4426
0.000143833
61.4152
0.000143685
61.3897
0.000143698
61.3665
0.000143652
61.3456
0.00014376
61.327
0.000143577
61.311
0.000143795
61.2975
0.000143514
61.2865
0.000143573
61.2777
0.000143588
61.2713
0.000143548
61.2671
0.000143542
61.265
0.000143496
61.2649
0.000143456
61.2668
0.000143652
61.2703
0.000143491
61.2753
0.000143489
61.2813
0.000143517
61.2882
0.00014352
61.2956
0.000143507
61.3034
0.000143472
61.3114
0.0001434
61.3194
0.000143266
61.3272
0.000143054
61.3348
0.000142702
61.3421
0.000142175
61.3489
0.000141404
61.3552
0.00014032
61.361
0.000138836
61.3663
0.000136862
61.371
0.000134316
61.3752
0.000131121
61.3789
0.000127212
61.3821
0.000122553
61.3849
0.000117134
61.3874
0.000110984
61.3895
0.000104166
61.3913
9.67734e-05
61.3928
8.89486e-05
61.3941
8.08342e-05
61.3952
7.25952e-05
61.3961
6.44064e-05
61.3969
5.6431e-05
61.3975
4.88163e-05
61.3979
4.16862e-05
61.3982
3.51353e-05
61.3984
2.92295e-05
61.3983
2.4017e-05
61.3981
1.94082e-05
61.3978
1.55683e-05
61.3971
1.23123e-05
61.3962
9.60719e-06
61.3949
7.41941e-06
61.3932
5.67701e-06
61.3911
4.3076e-06
61.3885
3.25154e-06
61.3854
2.45039e-06
61.3816
1.85411e-06
61.3772
1.41668e-06
61.3721
1.10522e-06
61.3662
8.87174e-07
61.3594
7.39603e-07
61.3518
6.44367e-07
61.3432
5.86555e-07
61.3337
5.55214e-07
61.3232
5.42216e-07
61.3118
5.41363e-07
61.2994
5.48253e-07
61.2861
5.59525e-07
61.2719
5.72638e-07
61.257
5.85728e-07
61.2414
5.97309e-07
61.2252
6.06206e-07
61.2087
6.11476e-07
61.1919
6.12371e-07
61.1751
6.08289e-07
61.1585
5.9879e-07
61.1423
5.83534e-07
61.1266
5.62395e-07
61.1118
5.354e-07
61.098
5.0273e-07
61.0854
4.64728e-07
61.0742
4.21918e-07
61.0645
3.74922e-07
61.0565
3.2457e-07
61.0503
2.71732e-07
61.0459
2.17044e-07
61.0434
1.6163e-07
61.0428
1.08623e-07
61.044
7.66031e-08
61.0464
2.80477e-08
61.0504
-3.35617e-08
61.056
-7.47398e-08
61.063
-1.12933e-07
61.0711
-1.46463e-07
61.0803
-1.72098e-07
61.0902
-1.90631e-07
61.1006
-2.0224e-07
61.1114
-2.07446e-07
61.1223
-2.07089e-07
61.1331
-2.01726e-07
61.1438
-1.92234e-07
61.1542
-1.78941e-07
61.164
-1.6219e-07
61.1733
-1.42582e-07
61.182
-1.2098e-07
61.1901
-9.81133e-08
61.1974
-7.485e-08
61.204
-5.17045e-08
61.21
-2.90665e-08
61.2154
-8.00014e-09
61.2201
1.2265e-08
61.2243
3.1891e-08
61.228
4.88574e-08
61.2312
6.41885e-08
61.2341
7.77713e-08
61.2367
8.95427e-08
61.239
9.9551e-08
61.241
1.07951e-07
61.2429
1.149e-07
61.2447
1.20493e-07
61.2464
1.24939e-07
61.248
1.28368e-07
61.2495
1.30982e-07
61.2511
1.32929e-07
61.2526
1.34378e-07
61.2541
1.35554e-07
61.2556
1.36753e-07
61.2572
1.38559e-07
61.2587
1.4087e-07
61.2602
1.31967e-07
61.2618
1.40439e-07
61.2633
1.56381e-07
61.2649
1.43656e-07
61.2665
1.31902e-07
61.2681
1.30929e-07
61.2697
1.3887e-07
61.2713
1.48601e-07
61.273
1.52024e-07
61.2747
1.56954e-07
61.2765
1.58886e-07
61.2784
1.61174e-07
61.2804
1.63694e-07
61.2825
1.67075e-07
61.2848
1.7137e-07
61.2872
1.7655e-07
61.2899
1.82471e-07
61.2929
1.89075e-07
61.2961
1.9632e-07
61.2996
2.04232e-07
61.3035
2.12774e-07
61.3078
2.21921e-07
61.3125
2.31704e-07
61.3177
2.42132e-07
61.3233
2.52964e-07
61.3294
2.63968e-07
61.336
2.75059e-07
61.3431
2.86098e-07
61.3507
2.96837e-07
61.3588
3.07169e-07
61.3673
3.16165e-07
61.3762
3.25197e-07
61.3855
3.34182e-07
61.3951
3.35716e-07
61.405
3.45016e-07
61.4149
3.46073e-07
61.425
3.45776e-07
61.435
3.39042e-07
61.4449
3.4513e-07
61.4545
3.34313e-07
61.4637
3.19772e-07
61.4724
2.90911e-07
61.4805
3.4944e-07
61.4879
2.60484e-07
61.4944
4.26533e-07
61.5
-1.67668e-07
61.5044
8.87464e-08
61.5078
6.12983e-07
61.5099
8.62658e-07
61.5107
-3.57987e-07
61.5101
-1.27295e-06
61.5079
1.24022e-06
61.5041
1.38736e-07
61.4988
3.91698e-07
61.4922
1.90546e-06
61.4842
9.31953e-06
61.4749
4.52237e-05
61.4642
0.000218779
61.4518
0.00105693
61.4357
0.00509866
61.4063
0.0245368
61.3171
0.117241
60.9542
0.551857
59.4928
2.4272
8.72563
54.3992
61.5993
-1.59162e-12
61.5665
-1.36424e-12
61.534
-9.09495e-13
61.5023
-9.09495e-13
61.4718
-1.81899e-12
61.4426
-2.04636e-12
61.4152
-2.04636e-12
61.3897
-1.36424e-12
61.3665
-2.27374e-13
61.3455
1.36424e-12
61.327
4.54747e-13
61.3109
1.59162e-12
61.2975
6.82121e-13
61.2864
6.82121e-13
61.2777
0
61.2713
1.13687e-12
61.2671
4.54747e-13
61.265
2.27374e-13
61.2649
4.54747e-13
61.2668
-4.54747e-13
61.2703
2.27374e-13
61.2752
9.09495e-13
61.2813
-6.82121e-13
61.2882
9.09495e-13
61.2956
2.04636e-12
61.3034
4.54747e-13
61.3114
-4.54747e-13
61.3194
-6.82121e-13
61.3272
2.27374e-13
61.3348
2.27374e-13
61.3421
2.27374e-13
61.3489
1.59162e-12
61.3552
2.95586e-12
61.361
-1.13687e-12
61.3663
-6.82121e-13
61.371
9.09495e-13
61.3752
0
61.3789
2.27374e-13
61.3821
-6.82121e-13
61.3849
-1.36424e-12
61.3874
-9.09495e-13
61.3895
1.13687e-12
61.3912
6.82121e-13
61.3928
-1.59162e-12
61.3941
-2.27374e-13
61.3952
1.13687e-12
61.3961
4.54747e-13
61.3968
-1.13687e-12
61.3975
-9.09495e-13
61.3979
-4.54747e-13
61.3982
0
61.3984
2.27374e-13
61.3983
-4.54747e-13
61.3981
-1.59162e-12
61.3978
-2.27374e-13
61.3971
2.27374e-13
61.3962
4.54747e-13
61.3949
1.81899e-12
61.3932
-1.81899e-12
61.3911
-2.27374e-13
61.3885
-4.54747e-13
61.3854
-6.82121e-13
61.3816
-1.36424e-12
61.3772
-2.27374e-13
61.3721
-1.81899e-12
61.3662
-9.09495e-13
61.3594
-2.27374e-13
61.3518
0
61.3432
-6.82121e-13
61.3337
4.54747e-13
61.3232
6.82121e-13
61.3118
-6.82121e-13
61.2994
4.54747e-13
61.2861
9.09495e-13
61.2719
-2.27374e-13
61.257
-1.36424e-12
61.2414
-1.81899e-12
61.2252
-2.27374e-13
61.2087
-1.13687e-12
61.1919
-2.27374e-13
61.1751
0
61.1585
2.27374e-13
61.1423
6.82121e-13
61.1266
2.27374e-13
61.1118
-9.09495e-13
61.098
2.27374e-13
61.0854
-4.54747e-13
61.0742
-6.82121e-13
61.0645
-4.54747e-13
61.0565
-1.36424e-12
61.0503
-4.54747e-13
61.0459
-4.54747e-13
61.0434
-2.27374e-12
61.0428
0
61.044
-4.54747e-13
61.0464
-9.09495e-13
61.0504
-1.36424e-12
61.056
-9.09495e-13
61.063
-1.13687e-12
61.0711
-6.82121e-13
61.0803
-4.54747e-13
61.0902
-1.36424e-12
61.1006
2.27374e-13
61.1114
-4.54747e-13
61.1223
6.82121e-13
61.1331
-1.36424e-12
61.1438
-1.59162e-12
61.1542
-6.82121e-13
61.164
9.09495e-13
61.1733
-6.82121e-13
61.182
-6.82121e-13
61.1901
-4.54747e-13
61.1974
-6.82121e-13
61.204
-2.27374e-13
61.21
2.27374e-13
61.2154
1.13687e-12
61.2201
-9.09495e-13
61.2243
2.27374e-13
61.228
9.09495e-13
61.2312
1.13687e-12
61.2341
1.36424e-12
61.2367
-1.13687e-12
61.239
6.82121e-13
61.241
2.27374e-13
61.2429
0
61.2447
-6.82121e-13
61.2464
2.50111e-12
61.248
-2.27374e-13
61.2495
6.82121e-13
61.2511
-4.54747e-13
61.2526
-1.36424e-12
61.2541
-6.82121e-13
61.2556
-4.54747e-13
61.2572
-1.13687e-12
61.2587
-2.27374e-13
61.2602
1.13687e-12
61.2618
-6.82121e-13
61.2633
0
61.2649
0
61.2665
6.82121e-13
61.2681
-2.27374e-13
61.2697
6.82121e-13
61.2713
-4.54747e-13
61.273
2.04636e-12
61.2747
2.27374e-13
61.2765
1.81899e-12
61.2784
2.27374e-13
61.2804
2.27374e-13
61.2825
-2.04636e-12
61.2848
-1.13687e-12
61.2872
1.36424e-12
61.2899
6.82121e-13
61.2929
4.54747e-13
61.2961
9.09495e-13
61.2996
1.81899e-12
61.3035
-1.59162e-12
61.3078
4.54747e-13
61.3125
1.13687e-12
61.3177
4.54747e-13
61.3233
1.36424e-12
61.3294
-1.81899e-12
61.336
1.72804e-11
61.3431
-3.5925e-11
61.3507
2.75122e-11
61.3588
-1.5325e-10
61.3673
-5.57066e-11
61.3762
-4.502e-10
61.3855
2.92061e-09
61.3951
-4.96129e-09
61.405
3.31329e-09
61.4149
1.00272e-09
61.425
-1.01863e-10
61.435
-9.58744e-09
61.4449
9.25479e-09
61.4545
2.41516e-09
61.4637
-1.09253e-09
61.4724
-3.60292e-08
61.4805
1.00446e-07
61.4879
-8.8392e-08
61.4944
2.94993e-07
61.5
-6.11605e-07
61.5044
-4.311e-08
61.5078
4.51195e-07
61.5099
1.03067e-06
61.5107
-8.63275e-07
61.5101
-2.59105e-06
61.5079
3.80032e-06
61.5041
-1.11267e-06
61.4988
4.0061e-07
61.4922
2.39614e-06
61.4842
1.16515e-05
61.4749
5.62667e-05
61.4643
0.000271952
61.4523
0.00131413
61.4382
0.00634795
61.4183
0.0306201
61.3735
0.147372
61.211
0.698802
60.4324
3.1897
11.5767
57.5647
61.5993
-0.000184957
61.5665
-0.000160842
61.534
-0.00013878
61.5023
-0.000142466
61.4718
-0.000144196
61.4426
-0.000143833
61.4152
-0.000143685
61.3897
-0.000143698
61.3665
-0.000143652
61.3455
-0.00014376
61.327
-0.000143577
61.3109
-0.000143795
61.2975
-0.000143514
61.2864
-0.000143573
61.2777
-0.000143588
61.2713
-0.000143548
61.2671
-0.000143542
61.265
-0.000143496
61.2649
-0.000143456
61.2668
-0.000143652
61.2703
-0.000143491
61.2752
-0.000143489
61.2813
-0.000143517
61.2882
-0.00014352
61.2956
-0.000143507
61.3034
-0.000143472
61.3114
-0.0001434
61.3194
-0.000143266
61.3272
-0.000143054
61.3348
-0.000142702
61.3421
-0.000142175
61.3489
-0.000141404
61.3552
-0.00014032
61.361
-0.000138836
61.3663
-0.000136862
61.371
-0.000134316
61.3752
-0.000131121
61.3789
-0.000127212
61.3821
-0.000122553
61.3849
-0.000117134
61.3874
-0.000110984
61.3895
-0.000104166
61.3912
-9.67734e-05
61.3928
-8.89486e-05
61.3941
-8.08342e-05
61.3952
-7.25952e-05
61.3961
-6.44064e-05
61.3968
-5.6431e-05
61.3975
-4.88163e-05
61.3979
-4.16862e-05
61.3982
-3.51353e-05
61.3984
-2.92295e-05
61.3983
-2.4017e-05
61.3981
-1.94082e-05
61.3978
-1.55683e-05
61.3971
-1.23123e-05
61.3962
-9.60719e-06
61.3949
-7.4194e-06
61.3932
-5.67701e-06
61.3911
-4.3076e-06
61.3885
-3.25154e-06
61.3854
-2.45039e-06
61.3816
-1.85411e-06
61.3772
-1.41668e-06
61.3721
-1.10522e-06
61.3662
-8.87177e-07
61.3594
-7.39604e-07
61.3518
-6.44368e-07
61.3432
-5.86556e-07
61.3337
-5.55212e-07
61.3232
-5.42216e-07
61.3118
-5.41365e-07
61.2994
-5.48252e-07
61.2861
-5.59522e-07
61.2719
-5.72638e-07
61.257
-5.8573e-07
61.2414
-5.97312e-07
61.2252
-6.06207e-07
61.2087
-6.11479e-07
61.1919
-6.12371e-07
61.1751
-6.08291e-07
61.1585
-5.98787e-07
61.1423
-5.83533e-07
61.1266
-5.62397e-07
61.1118
-5.35403e-07
61.098
-5.02729e-07
61.0854
-4.64728e-07
61.0742
-4.2192e-07
61.0645
-3.74922e-07
61.0565
-3.24573e-07
61.0503
-2.71733e-07
61.0459
-2.17044e-07
61.0434
-1.61634e-07
61.0428
-1.08624e-07
61.044
-7.66029e-08
61.0464
-2.80495e-08
61.0504
3.35588e-08
61.056
7.47393e-08
61.063
1.12931e-07
61.0711
1.46462e-07
61.0803
1.72099e-07
61.0902
1.90629e-07
61.1006
2.0224e-07
61.1114
2.07444e-07
61.1223
2.07092e-07
61.1331
2.01725e-07
61.1438
1.92232e-07
61.1542
1.78941e-07
61.164
1.62191e-07
61.1733
1.42582e-07
61.182
1.2098e-07
61.1901
9.8112e-08
61.1974
7.48491e-08
61.204
5.17041e-08
61.21
2.90668e-08
61.2154
8.00037e-09
61.2201
-1.22668e-08
61.2243
-3.1891e-08
61.228
-4.88571e-08
61.2312
-6.41865e-08
61.2341
-7.77702e-08
61.2367
-8.95441e-08
61.239
-9.95501e-08
61.241
-1.0795e-07
61.2429
-1.14899e-07
61.2447
-1.20495e-07
61.2464
-1.24936e-07
61.248
-1.28366e-07
61.2495
-1.3098e-07
61.2511
-1.3293e-07
61.2526
-1.34381e-07
61.2541
-1.35554e-07
61.2556
-1.36753e-07
61.2572
-1.3856e-07
61.2587
-1.40869e-07
61.2602
-1.31965e-07
61.2618
-1.40441e-07
61.2633
-1.5638e-07
61.2649
-1.43657e-07
61.2665
-1.31902e-07
61.2681
-1.30928e-07
61.2697
-1.3887e-07
61.2713
-1.486e-07
61.273
-1.5202e-07
61.2747
-1.56953e-07
61.2765
-1.58882e-07
61.2784
-1.61174e-07
61.2804
-1.63695e-07
61.2825
-1.67078e-07
61.2848
-1.71372e-07
61.2872
-1.76547e-07
61.2899
-1.82469e-07
61.2929
-1.89074e-07
61.2961
-1.96319e-07
61.2996
-2.0423e-07
61.3035
-2.12778e-07
61.3078
-2.21921e-07
61.3125
-2.31702e-07
61.3177
-2.42131e-07
61.3233
-2.52963e-07
61.3294
-2.6397e-07
61.336
-2.75034e-07
61.3431
-2.86149e-07
61.3507
-2.96809e-07
61.3588
-3.07384e-07
61.3673
-3.16332e-07
61.3762
-3.25715e-07
61.3855
-3.29663e-07
61.3951
-3.43258e-07
61.405
-3.39902e-07
61.4149
-3.45082e-07
61.425
-3.44328e-07
61.435
-3.58194e-07
61.4449
-3.24451e-07
61.4545
-3.34615e-07
61.4637
-3.25884e-07
61.4724
-3.28989e-07
61.4805
-2.32705e-07
61.4879
-3.27571e-07
61.4944
-7.3715e-08
61.5
-6.59955e-07
61.5044
-3.36099e-07
61.5078
2.40737e-07
61.5099
8.05428e-07
61.5107
-1.31193e-06
61.5101
-3.67585e-06
61.5079
7.40909e-06
61.5041
-3.35978e-06
61.4988
2.05346e-07
61.4922
1.96228e-06
61.4842
9.4459e-06
61.4749
4.54232e-05
61.4644
0.000219418
61.4529
0.00106151
61.4413
0.00514571
61.4331
0.0250296
61.4429
0.122805
61.5213
0.604942
61.6582
3.03675
10.6152
62.6032
61.5994
-0.00040172
61.5665
-0.00030563
61.534
-0.000280735
61.5023
-0.000286563
61.4718
-0.000287554
61.4426
-0.000287337
61.4152
-0.000287241
61.3897
-0.000287272
61.3665
-0.000287148
61.3456
-0.000287466
61.327
-0.000287139
61.311
-0.000287517
61.2975
-0.00028697
61.2865
-0.000287137
61.2777
-0.000287139
61.2713
-0.000287086
61.2671
-0.00028706
61.265
-0.000286981
61.2649
-0.000286878
61.2668
-0.000287304
61.2703
-0.000286961
61.2753
-0.000286957
61.2813
-0.000287024
61.2882
-0.000287026
61.2956
-0.000286998
61.3034
-0.000286924
61.3114
-0.000286773
61.3194
-0.000286498
61.3272
-0.000286053
61.3348
-0.000285331
61.3421
-0.000284249
61.3489
-0.000282669
61.3552
-0.000280451
61.361
-0.000277422
61.3663
-0.000273404
61.371
-0.000268232
61.3752
-0.000261751
61.3789
-0.000253838
61.3821
-0.000244421
61.3849
-0.000233488
61.3874
-0.0002211
61.3895
-0.000207386
61.3913
-0.000192537
61.3928
-0.000176853
61.3941
-0.000160597
61.3952
-0.000144119
61.3961
-0.000127764
61.3969
-0.000111856
61.3975
-9.6685e-05
61.3979
-8.24964e-05
61.3982
-6.94762e-05
61.3984
-5.77505e-05
61.3983
-4.74237e-05
61.3981
-3.8275e-05
61.3978
-3.06855e-05
61.3971
-2.42553e-05
61.3962
-1.89098e-05
61.3949
-1.45952e-05
61.3932
-1.11603e-05
61.3911
-8.46445e-06
61.3885
-6.38706e-06
61.3854
-4.81297e-06
61.3816
-3.6424e-06
61.3772
-2.78582e-06
61.3721
-2.17622e-06
61.3662
-1.75066e-06
61.3594
-1.46345e-06
61.3518
-1.27803e-06
61.3432
-1.16579e-06
61.3337
-1.10541e-06
61.3232
-1.08095e-06
61.3118
-1.08036e-06
61.2994
-1.09493e-06
61.2861
-1.118e-06
61.2719
-1.14461e-06
61.257
-1.17104e-06
61.2414
-1.19437e-06
61.2252
-1.21227e-06
61.2087
-1.22288e-06
61.1919
-1.22471e-06
61.1751
-1.21657e-06
61.1585
-1.19757e-06
61.1423
-1.16707e-06
61.1266
-1.12481e-06
61.1118
-1.07082e-06
61.098
-1.00548e-06
61.0854
-9.29474e-07
61.0742
-8.43852e-07
61.0645
-7.49855e-07
61.0565
-6.49187e-07
61.0503
-5.43531e-07
61.0459
-4.34077e-07
61.0434
-3.23185e-07
61.0428
-2.15714e-07
61.044
-1.57778e-07
61.0464
-5.2275e-08
61.0504
6.54877e-08
61.056
1.48415e-07
61.063
2.26261e-07
61.0711
2.92787e-07
61.0803
3.44166e-07
61.0902
3.81514e-07
61.1006
4.0454e-07
61.1114
4.1487e-07
61.1223
4.14161e-07
61.1331
4.03588e-07
61.1438
3.84414e-07
61.1542
3.57931e-07
61.164
3.24391e-07
61.1733
2.85167e-07
61.182
2.41995e-07
61.1901
1.96298e-07
61.1974
1.49749e-07
61.204
1.03492e-07
61.21
5.83195e-08
61.2154
1.49666e-08
61.2201
-2.53872e-08
61.2243
-6.34859e-08
61.228
-9.76843e-08
61.2312
-1.28432e-07
61.2341
-1.55543e-07
61.2367
-1.79093e-07
61.239
-1.99121e-07
61.241
-2.15939e-07
61.2429
-2.29837e-07
61.2447
-2.41008e-07
61.2464
-2.49944e-07
61.248
-2.56752e-07
61.2495
-2.62037e-07
61.2511
-2.65902e-07
61.2526
-2.68832e-07
61.2541
-2.71187e-07
61.2556
-2.73562e-07
61.2572
-2.77402e-07
61.2587
-2.83264e-07
61.2602
-2.59141e-07
61.2618
-2.83877e-07
61.2633
-3.15466e-07
61.2649
-2.84188e-07
61.2665
-2.63716e-07
61.2681
-2.61645e-07
61.2697
-2.77527e-07
61.2713
-2.97763e-07
61.273
-3.03733e-07
61.2747
-3.14335e-07
61.2765
-3.17579e-07
61.2784
-3.22374e-07
61.2804
-3.2733e-07
61.2825
-3.34114e-07
61.2848
-3.42681e-07
61.2872
-3.53083e-07
61.2899
-3.64892e-07
61.2929
-3.78131e-07
61.2961
-3.92617e-07
61.2996
-4.08443e-07
61.3035
-4.25528e-07
61.3078
-4.43798e-07
61.3125
-4.63389e-07
61.3177
-4.84248e-07
61.3233
-5.05914e-07
61.3294
-5.27906e-07
61.336
-5.50111e-07
61.3431
-5.72226e-07
61.3507
-5.93723e-07
61.3588
-6.14484e-07
61.3673
-6.33135e-07
61.3762
-6.5033e-07
61.3855
-6.64148e-07
61.3951
-6.78644e-07
61.405
-6.85294e-07
61.4149
-6.90314e-07
61.425
-6.91834e-07
61.435
-6.92186e-07
61.4449
-6.74695e-07
61.4545
-6.65581e-07
61.4637
-6.49478e-07
61.4724
-6.23658e-07
61.4805
-5.71428e-07
61.4879
-5.8194e-07
61.4944
-4.52307e-07
61.5
-6.27718e-07
61.5044
-4.75246e-07
61.5078
-2.1673e-07
61.5099
2.8298e-08
61.5107
-7.07606e-07
61.5101
-1.67317e-06
61.5079
2.63083e-06
61.5041
-1.09965e-06
61.4988
6.49334e-08
61.4922
7.62975e-07
61.4842
3.53853e-06
61.475
1.6684e-05
61.4645
8.01342e-05
61.4535
0.000387109
61.4439
0.00187817
61.4459
0.00917682
61.5081
0.0458947
61.8574
0.240261
63.2524
1.62573
5.45409
68.3969
13.9548
-0.000460234
13.9473
-0.000332091
13.94
-0.000315342
13.9328
-0.000319407
13.9259
-0.000319957
13.9193
-0.000319921
13.9131
-0.00031981
13.9073
-0.000319828
13.902
-0.000319672
13.8973
-0.00032001
13.8931
-0.000319731
13.8895
-0.000320067
13.8864
-0.000319478
13.8839
-0.000319678
13.8819
-0.000319661
13.8805
-0.000319609
13.8795
-0.000319577
13.879
-0.000319491
13.879
-0.000319369
13.8794
-0.000319857
13.8802
-0.000319462
13.8814
-0.000319458
13.8827
-0.000319537
13.8843
-0.000319537
13.886
-0.000319505
13.8877
-0.000319422
13.8895
-0.000319252
13.8914
-0.000318944
13.8931
-0.00031844
13.8949
-0.000317631
13.8965
-0.000316416
13.898
-0.000314645
13.8995
-0.000312157
13.9008
-0.000308762
13.902
-0.000304264
13.903
-0.000298475
13.904
-0.000291223
13.9048
-0.000282374
13.9056
-0.000271849
13.9062
-0.000259636
13.9068
-0.000245803
13.9072
-0.000230497
13.9076
-0.000213932
13.908
-0.00019645
13.9083
-0.00017833
13.9085
-0.000159978
13.9087
-0.000141773
13.9089
-0.000124073
13.909
-0.000107203
13.9091
-9.14329e-05
13.9092
-7.69695e-05
13.9092
-6.39505e-05
13.9092
-5.24947e-05
13.9092
-4.23478e-05
13.9091
-3.39299e-05
13.909
-2.68119e-05