/*--------------------------------*- C++ -*----------------------------------*\
| =========                 |                                                 |
| \\      /  F ield         | OpenFOAM: The Open Source CFD Toolbox           |
|  \\    /   O peration     | Version:  3.0.x                                 |
|   \\  /    A nd           | Web:      www.OpenFOAM.org                      |
|    \\/     M anipulation  |                                                 |
\*---------------------------------------------------------------------------*/
FoamFile
{
    version     2.0;
    format      ascii;
    class       volVectorField;
    location    "0.15";
    object      U;
}
// * * * * * * * * * * * * * * * * * * * * * * * * * * * * * * * * * * * * * //

dimensions      [0 1 -1 0 0 0 0];

internalField   nonuniform List<vector> 
13800
(
(76.1811 0.000140995 0)
(76.1377 0.000123427 0)
(76.0866 0.000122069 0)
(76.0401 0.000124325 0)
(75.9973 0.000126248 0)
(75.9564 0.000127864 0)
(75.9172 0.000129157 0)
(75.8804 0.000130253 0)
(75.8462 0.000131127 0)
(75.815 0.000131958 0)
(75.7869 0.000132555 0)
(75.7621 0.000133165 0)
(75.7405 0.0001335 0)
(75.7223 0.000133941 0)
(75.7072 0.000134281 0)
(75.6952 0.000134563 0)
(75.6862 0.000134819 0)
(75.6801 0.000135024 0)
(75.6767 0.0001352 0)
(75.6757 0.000135478 0)
(75.677 0.000135553 0)
(75.6801 0.000135693 0)
(75.6848 0.000135827 0)
(75.6908 0.000135929 0)
(75.6977 0.000136006 0)
(75.7052 0.000136048 0)
(75.713 0.000136043 0)
(75.7209 0.000135969 0)
(75.7287 0.000135803 0)
(75.7362 0.000135504 0)
(75.7432 0.000135025 0)
(75.7496 0.000134305 0)
(75.7553 0.000133277 0)
(75.7603 0.000131862 0)
(75.7645 0.000129977 0)
(75.7681 0.000127542 0)
(75.7709 0.000124484 0)
(75.7731 0.000120746 0)
(75.7747 0.000116293 0)
(75.7758 0.000111118 0)
(75.7764 0.000105251 0)
(75.7768 9.87514e-05 0)
(75.7768 9.17118e-05 0)
(75.7767 8.42673e-05 0)
(75.7764 7.6547e-05 0)
(75.776 6.87191e-05 0)
(75.7756 6.09436e-05 0)
(75.7752 5.3375e-05 0)
(75.7747 4.61526e-05 0)
(75.7743 3.93932e-05 0)
(75.7738 3.31863e-05 0)
(75.7733 2.75922e-05 0)
(75.7727 2.26531e-05 0)
(75.7719 1.83166e-05 0)
(75.7711 1.46616e-05 0)
(75.77 1.15823e-05 0)
(75.7687 9.02936e-06 0)
(75.7669 6.96191e-06 0)
(75.7647 5.31235e-06 0)
(75.7619 4.01655e-06 0)
(75.7585 3.01551e-06 0)
(75.7545 2.25468e-06 0)
(75.7496 1.68578e-06 0)
(75.7439 1.26707e-06 0)
(75.7372 9.65197e-07 0)
(75.7295 7.52537e-07 0)
(75.7206 6.07398e-07 0)
(75.7106 5.12341e-07 0)
(75.6993 4.53435e-07 0)
(75.6866 4.19975e-07 0)
(75.6727 4.03936e-07 0)
(75.6573 3.99485e-07 0)
(75.6407 4.02486e-07 0)
(75.6227 4.09971e-07 0)
(75.6035 4.19808e-07 0)
(75.5831 4.3044e-07 0)
(75.5618 4.40719e-07 0)
(75.5395 4.49742e-07 0)
(75.5167 4.56805e-07 0)
(75.4934 4.61372e-07 0)
(75.4699 4.62988e-07 0)
(75.4465 4.61315e-07 0)
(75.4235 4.56109e-07 0)
(75.4012 4.47255e-07 0)
(75.3798 4.3478e-07 0)
(75.3597 4.18852e-07 0)
(75.3412 3.99838e-07 0)
(75.3245 3.77903e-07 0)
(75.3098 3.52643e-07 0)
(75.2974 3.23586e-07 0)
(75.2873 2.90311e-07 0)
(75.2799 2.52337e-07 0)
(75.275 2.10034e-07 0)
(75.2727 1.64322e-07 0)
(75.2729 1.31521e-07 0)
(75.2751 8.77912e-08 0)
(75.2796 2.32667e-08 0)
(75.2863 -1.12201e-08 0)
(75.295 -4.02014e-08 0)
(75.3056 -6.5039e-08 0)
(75.3176 -8.5646e-08 0)
(75.3309 -1.02224e-07 0)
(75.3451 -1.14266e-07 0)
(75.3599 -1.22156e-07 0)
(75.375 -1.26335e-07 0)
(75.3902 -1.27215e-07 0)
(75.4053 -1.2502e-07 0)
(75.42 -1.20343e-07 0)
(75.4341 -1.13055e-07 0)
(75.4475 -1.0361e-07 0)
(75.46 -9.26292e-08 0)
(75.4717 -8.06683e-08 0)
(75.4824 -6.78023e-08 0)
(75.4921 -5.36105e-08 0)
(75.5009 -3.75029e-08 0)
(75.5088 -1.86817e-08 0)
(75.5157 -9.80946e-12 0)
(75.5219 1.22921e-08 0)
(75.5273 2.40004e-08 0)
(75.5321 3.50632e-08 0)
(75.5363 4.52888e-08 0)
(75.5399 5.45764e-08 0)
(75.5432 6.28539e-08 0)
(75.5461 7.01923e-08 0)
(75.5487 7.66399e-08 0)
(75.5511 8.21963e-08 0)
(75.5534 8.70284e-08 0)
(75.5555 9.10991e-08 0)
(75.5575 9.46568e-08 0)
(75.5595 9.76891e-08 0)
(75.5614 1.00417e-07 0)
(75.5633 1.02972e-07 0)
(75.5653 1.05606e-07 0)
(75.5672 1.08948e-07 0)
(75.5691 1.14079e-07 0)
(75.5711 1.07239e-07 0)
(75.5731 1.17325e-07 0)
(75.5751 1.31629e-07 0)
(75.5769 1.271e-07 0)
(75.5788 1.21732e-07 0)
(75.5808 1.22215e-07 0)
(75.5828 1.29428e-07 0)
(75.5848 1.38678e-07 0)
(75.5868 1.43401e-07 0)
(75.5889 1.48817e-07 0)
(75.591 1.5139e-07 0)
(75.5932 1.54217e-07 0)
(75.5955 1.57038e-07 0)
(75.5979 1.60507e-07 0)
(75.6005 1.6455e-07 0)
(75.6032 1.69164e-07 0)
(75.6062 1.74103e-07 0)
(75.6094 1.79336e-07 0)
(75.6129 1.84748e-07 0)
(75.6167 1.90344e-07 0)
(75.6209 1.96061e-07 0)
(75.6256 2.01835e-07 0)
(75.6306 2.07719e-07 0)
(75.6361 2.13687e-07 0)
(75.6422 2.19645e-07 0)
(75.6487 2.25426e-07 0)
(75.6558 2.31077e-07 0)
(75.6634 2.36466e-07 0)
(75.6716 2.41415e-07 0)
(75.6803 2.45918e-07 0)
(75.6895 2.49458e-07 0)
(75.6992 2.52277e-07 0)
(75.7093 2.5408e-07 0)
(75.7198 2.54722e-07 0)
(75.7306 2.54268e-07 0)
(75.7416 2.522e-07 0)
(75.7527 2.48606e-07 0)
(75.7638 2.43362e-07 0)
(75.7748 2.36501e-07 0)
(75.7856 2.2767e-07 0)
(75.796 2.17216e-07 0)
(75.8059 2.04522e-07 0)
(75.8152 1.92706e-07 0)
(75.8238 1.77972e-07 0)
(75.8314 1.65196e-07 0)
(75.8381 1.37322e-07 0)
(75.8436 1.20821e-07 0)
(75.8479 1.12043e-07 0)
(75.8509 9.60604e-08 0)
(75.8525 4.93975e-08 0)
(75.8527 2.99852e-08 0)
(75.8512 -4.30063e-08 0)
(75.848 3.29311e-08 0)
(75.843 -3.02204e-08 0)
(75.8365 -3.37271e-08 0)
(75.8284 5.45233e-08 0)
(75.8187 6.42912e-07 0)
(75.8076 3.55111e-06 0)
(75.7947 1.75995e-05 0)
(75.7787 8.53251e-05 0)
(75.7522 0.000410984 0)
(75.681 0.00196834 0)
(75.4157 0.00943334 0)
(74.5777 0.0467231 0)
(66.8837 0.190344 0)
(76.185 0.000222201 0)
(76.1455 0.000163554 0)
(76.0983 0.000150403 0)
(76.0557 0.000148446 0)
(76.0169 0.000146706 0)
(75.9798 0.000145284 0)
(75.9445 0.000144098 0)
(75.9116 0.000143178 0)
(75.8813 0.000142341 0)
(75.854 0.000141829 0)
(75.8299 0.000141178 0)
(75.8089 0.000140838 0)
(75.7913 0.000140185 0)
(75.7769 0.000139917 0)
(75.7657 0.000139605 0)
(75.7577 0.000139313 0)
(75.7526 0.000139071 0)
(75.7503 0.000138827 0)
(75.7508 0.000138598 0)
(75.7538 0.000138639 0)
(75.7589 0.000138337 0)
(75.766 0.000138213 0)
(75.7746 0.00013813 0)
(75.7844 0.000138032 0)
(75.7952 0.000137931 0)
(75.8066 0.000137818 0)
(75.8183 0.000137675 0)
(75.8301 0.000137479 0)
(75.8418 0.000137207 0)
(75.8532 0.000136811 0)
(75.864 0.000136244 0)
(75.8743 0.000135444 0)
(75.8838 0.00013434 0)
(75.8926 0.000132851 0)
(75.9006 0.000130893 0)
(75.9078 0.000128383 0)
(75.9142 0.000125249 0)
(75.9199 0.000121431 0)
(75.9249 0.000116896 0)
(75.9292 0.000111638 0)
(75.933 0.000105686 0)
(75.9362 9.9103e-05 0)
(75.939 9.19798e-05 0)
(75.9414 8.44637e-05 0)
(75.9434 7.66728e-05 0)
(75.9451 6.87832e-05 0)
(75.9465 6.09563e-05 0)
(75.9477 5.33461e-05 0)
(75.9487 4.60924e-05 0)
(75.9494 3.93116e-05 0)
(75.95 3.30921e-05 0)
(75.9503 2.74933e-05 0)
(75.9504 2.25663e-05 0)
(75.9502 1.82052e-05 0)
(75.9499 1.45816e-05 0)
(75.9491 1.15208e-05 0)
(75.948 8.97644e-06 0)
(75.9465 6.92454e-06 0)
(75.9444 5.29188e-06 0)
(75.9418 4.01287e-06 0)
(75.9385 3.02915e-06 0)
(75.9345 2.28633e-06 0)
(75.9297 1.73667e-06 0)
(75.924 1.33799e-06 0)
(75.9174 1.05673e-06 0)
(75.9097 8.63055e-07 0)
(75.9008 7.33943e-07 0)
(75.8908 6.51625e-07 0)
(75.8794 6.02808e-07 0)
(75.8668 5.77854e-07 0)
(75.8528 5.69571e-07 0)
(75.8375 5.72543e-07 0)
(75.8208 5.82731e-07 0)
(75.8028 5.96974e-07 0)
(75.7836 6.12863e-07 0)
(75.7633 6.28542e-07 0)
(75.7419 6.42521e-07 0)
(75.7197 6.53605e-07 0)
(75.6969 6.60815e-07 0)
(75.6736 6.63355e-07 0)
(75.6501 6.60594e-07 0)
(75.6267 6.52036e-07 0)
(75.6037 6.37356e-07 0)
(75.5813 6.16412e-07 0)
(75.56 5.89263e-07 0)
(75.5399 5.5619e-07 0)
(75.5213 5.17705e-07 0)
(75.5046 4.74196e-07 0)
(75.4899 4.25529e-07 0)
(75.4775 3.71703e-07 0)
(75.4675 3.12832e-07 0)
(75.46 2.48891e-07 0)
(75.4551 1.80872e-07 0)
(75.4529 1.10491e-07 0)
(75.453 6.77453e-08 0)
(75.4552 6.66948e-09 0)
(75.4597 -5.80457e-08 0)
(75.4664 -9.93475e-08 0)
(75.4751 -1.39636e-07 0)
(75.4857 -1.7478e-07 0)
(75.4977 -2.02632e-07 0)
(75.5109 -2.23174e-07 0)
(75.5251 -2.35914e-07 0)
(75.5399 -2.41859e-07 0)
(75.555 -2.41851e-07 0)
(75.5702 -2.36499e-07 0)
(75.5853 -2.26239e-07 0)
(75.6 -2.11978e-07 0)
(75.6141 -1.9365e-07 0)
(75.6274 -1.72114e-07 0)
(75.64 -1.48349e-07 0)
(75.6516 -1.23193e-07 0)
(75.6623 -9.70052e-08 0)
(75.6721 -6.96874e-08 0)
(75.6808 -4.1045e-08 0)
(75.6887 -1.07803e-08 0)
(75.6956 1.74718e-08 0)
(75.7018 3.72387e-08 0)
(75.7072 5.54981e-08 0)
(75.7119 7.21698e-08 0)
(75.7161 8.69866e-08 0)
(75.7198 9.99776e-08 0)
(75.723 1.11094e-07 0)
(75.7259 1.20446e-07 0)
(75.7285 1.28146e-07 0)
(75.7309 1.34283e-07 0)
(75.7332 1.39151e-07 0)
(75.7353 1.42736e-07 0)
(75.7373 1.45434e-07 0)
(75.7393 1.47222e-07 0)
(75.7412 1.48398e-07 0)
(75.7431 1.49119e-07 0)
(75.745 1.49654e-07 0)
(75.7469 1.50787e-07 0)
(75.7488 1.53503e-07 0)
(75.7508 1.3733e-07 0)
(75.7529 1.51089e-07 0)
(75.7548 1.683e-07 0)
(75.7567 1.51917e-07 0)
(75.7585 1.39702e-07 0)
(75.7605 1.37743e-07 0)
(75.7625 1.46046e-07 0)
(75.7645 1.56939e-07 0)
(75.7665 1.60195e-07 0)
(75.7686 1.65961e-07 0)
(75.7707 1.67755e-07 0)
(75.7729 1.70644e-07 0)
(75.7752 1.73726e-07 0)
(75.7776 1.77957e-07 0)
(75.7801 1.83238e-07 0)
(75.7829 1.89619e-07 0)
(75.7858 1.96811e-07 0)
(75.789 2.04834e-07 0)
(75.7925 2.13535e-07 0)
(75.7964 2.22947e-07 0)
(75.8006 2.32999e-07 0)
(75.8052 2.4363e-07 0)
(75.8102 2.54922e-07 0)
(75.8158 2.66817e-07 0)
(75.8218 2.79113e-07 0)
(75.8283 2.91545e-07 0)
(75.8354 3.04157e-07 0)
(75.843 3.16745e-07 0)
(75.8512 3.29035e-07 0)
(75.8599 3.40966e-07 0)
(75.8691 3.5162e-07 0)
(75.8788 3.618e-07 0)
(75.8889 3.70525e-07 0)
(75.8994 3.77433e-07 0)
(75.9102 3.83126e-07 0)
(75.9211 3.86376e-07 0)
(75.9322 3.86935e-07 0)
(75.9433 3.85221e-07 0)
(75.9543 3.81797e-07 0)
(75.9651 3.74863e-07 0)
(75.9755 3.65524e-07 0)
(75.9855 3.50546e-07 0)
(75.9948 3.39498e-07 0)
(76.0033 3.14362e-07 0)
(76.011 3.06736e-07 0)
(76.0176 2.4688e-07 0)
(76.0231 2.41774e-07 0)
(76.0274 2.43123e-07 0)
(76.0304 2.31075e-07 0)
(76.032 1.38465e-07 0)
(76.0322 9.11332e-08 0)
(76.0307 3.96804e-09 0)
(76.0274 1.58661e-07 0)
(76.0225 5.23481e-08 0)
(76.0159 1.08278e-07 0)
(76.0078 4.82034e-07 0)
(75.9982 2.49896e-06 0)
(75.987 1.23878e-05 0)
(75.9742 6.0229e-05 0)
(75.9581 0.00029094 0)
(75.9317 0.00140036 0)
(75.8607 0.00670743 0)
(75.5966 0.0320733 0)
(74.7621 0.15607 0)
(67.4851 0.599555 0)
(76.185 0.000163701 0)
(76.1454 0.000114642 0)
(76.0982 0.000107128 0)
(76.0557 0.000110415 0)
(76.0168 0.000111676 0)
(75.9798 0.000112191 0)
(75.9445 0.000112558 0)
(75.9116 0.000112898 0)
(75.8813 0.000113114 0)
(75.854 0.000113473 0)
(75.8299 0.000113547 0)
(75.8089 0.000113856 0)
(75.7913 0.000113777 0)
(75.7769 0.000113978 0)
(75.7657 0.000114087 0)
(75.7577 0.000114166 0)
(75.7526 0.000114242 0)
(75.7504 0.000114288 0)
(75.7508 0.000114312 0)
(75.7538 0.000114558 0)
(75.7589 0.000114465 0)
(75.766 0.000114512 0)
(75.7746 0.000114585 0)
(75.7845 0.000114626 0)
(75.7953 0.000114651 0)
(75.8067 0.000114654 0)
(75.8184 0.000114623 0)
(75.8302 0.00011454 0)
(75.8419 0.000114385 0)
(75.8533 0.000114117 0)
(75.8641 0.000113702 0)
(75.8744 0.000113084 0)
(75.8839 0.000112208 0)
(75.8927 0.000111004 0)
(75.9007 0.0001094 0)
(75.9079 0.000107331 0)
(75.9143 0.000104735 0)
(75.92 0.000101563 0)
(75.925 9.77859e-05 0)
(75.9294 9.34004e-05 0)
(75.9331 8.84311e-05 0)
(75.9363 8.2931e-05 0)
(75.9391 7.69765e-05 0)
(75.9415 7.06907e-05 0)
(75.9435 6.41757e-05 0)
(75.9452 5.75754e-05 0)
(75.9466 5.10273e-05 0)
(75.9478 4.46602e-05 0)
(75.9488 3.85912e-05 0)
(75.9495 3.29176e-05 0)
(75.95 2.77136e-05 0)
(75.9504 2.30291e-05 0)
(75.9505 1.89071e-05 0)
(75.9503 1.52522e-05 0)
(75.9499 1.22258e-05 0)
(75.9492 9.66368e-06 0)
(75.9481 7.53262e-06 0)
(75.9466 5.81454e-06 0)
(75.9445 4.44691e-06 0)
(75.9419 3.37412e-06 0)
(75.9386 2.54731e-06 0)
(75.9346 1.92052e-06 0)
(75.9298 1.45365e-06 0)
(75.9241 1.11093e-06 0)
(75.9174 8.6507e-07 0)
(75.9097 6.9267e-07 0)
(75.9009 5.76057e-07 0)
(75.8908 5.00752e-07 0)
(75.8795 4.55218e-07 0)
(75.8669 4.30692e-07 0)
(75.8529 4.20577e-07 0)
(75.8376 4.19931e-07 0)
(75.8209 4.25187e-07 0)
(75.8029 4.33658e-07 0)
(75.7837 4.43348e-07 0)
(75.7633 4.52772e-07 0)
(75.742 4.60774e-07 0)
(75.7198 4.66438e-07 0)
(75.6969 4.69042e-07 0)
(75.6736 4.68011e-07 0)
(75.6501 4.629e-07 0)
(75.6268 4.53381e-07 0)
(75.6037 4.39232e-07 0)
(75.5814 4.20386e-07 0)
(75.56 3.96899e-07 0)
(75.5399 3.6895e-07 0)
(75.5214 3.36837e-07 0)
(75.5047 3.00993e-07 0)
(75.49 2.61977e-07 0)
(75.4776 2.20625e-07 0)
(75.4675 1.77846e-07 0)
(75.4601 1.34326e-07 0)
(75.4552 9.10233e-08 0)
(75.4529 4.96239e-08 0)
(75.4531 3.2503e-08 0)
(75.4553 -3.23012e-09 0)
(75.4597 -3.30373e-08 0)
(75.4664 -6.44026e-08 0)
(75.4752 -9.54333e-08 0)
(75.4857 -1.2155e-07 0)
(75.4978 -1.41285e-07 0)
(75.511 -1.55204e-07 0)
(75.5252 -1.63262e-07 0)
(75.54 -1.66181e-07 0)
(75.5551 -1.64669e-07 0)
(75.5703 -1.59287e-07 0)
(75.5854 -1.50589e-07 0)
(75.6 -1.39178e-07 0)
(75.6141 -1.25176e-07 0)
(75.6275 -1.09192e-07 0)
(75.6401 -9.1912e-08 0)
(75.6517 -7.39001e-08 0)
(75.6624 -5.58301e-08 0)
(75.6721 -3.8366e-08 0)
(75.6809 -2.22298e-08 0)
(75.6887 -8.55444e-09 0)
(75.6957 4.01209e-09 0)
(75.7018 1.9384e-08 0)
(75.7073 3.33291e-08 0)
(75.712 4.57383e-08 0)
(75.7162 5.64624e-08 0)
(75.7198 6.55736e-08 0)
(75.7231 7.30974e-08 0)
(75.726 7.92155e-08 0)
(75.7286 8.41211e-08 0)
(75.731 8.79361e-08 0)
(75.7332 9.08946e-08 0)
(75.7353 9.30602e-08 0)
(75.7374 9.46961e-08 0)
(75.7393 9.58304e-08 0)
(75.7413 9.66826e-08 0)
(75.7432 9.73852e-08 0)
(75.7451 9.81791e-08 0)
(75.747 9.96447e-08 0)
(75.7489 1.02069e-07 0)
(75.7509 9.20153e-08 0)
(75.7529 1.03633e-07 0)
(75.7549 1.14571e-07 0)
(75.7567 9.95346e-08 0)
(75.7586 9.13164e-08 0)
(75.7606 9.03811e-08 0)
(75.7626 9.65145e-08 0)
(75.7645 1.04172e-07 0)
(75.7666 1.05761e-07 0)
(75.7686 1.09604e-07 0)
(75.7707 1.10373e-07 0)
(75.7729 1.11901e-07 0)
(75.7752 1.13424e-07 0)
(75.7776 1.15667e-07 0)
(75.7802 1.18595e-07 0)
(75.7829 1.22247e-07 0)
(75.7859 1.26444e-07 0)
(75.7891 1.31223e-07 0)
(75.7926 1.36506e-07 0)
(75.7964 1.42347e-07 0)
(75.8006 1.4871e-07 0)
(75.8052 1.55582e-07 0)
(75.8103 1.63009e-07 0)
(75.8158 1.70962e-07 0)
(75.8218 1.79274e-07 0)
(75.8284 1.87749e-07 0)
(75.8355 1.9636e-07 0)
(75.8431 2.0497e-07 0)
(75.8513 2.13378e-07 0)
(75.86 2.21601e-07 0)
(75.8692 2.28768e-07 0)
(75.8789 2.36067e-07 0)
(75.889 2.42138e-07 0)
(75.8994 2.46716e-07 0)
(75.9102 2.51141e-07 0)
(75.9212 2.53417e-07 0)
(75.9323 2.54104e-07 0)
(75.9434 2.5284e-07 0)
(75.9544 2.51049e-07 0)
(75.9652 2.45767e-07 0)
(75.9756 2.38611e-07 0)
(75.9855 2.28021e-07 0)
(75.9948 2.24801e-07 0)
(76.0034 2.064e-07 0)
(76.011 2.09107e-07 0)
(76.0177 1.29535e-07 0)
(76.0232 1.42118e-07 0)
(76.0275 1.88708e-07 0)
(76.0305 1.93713e-07 0)
(76.0321 4.52904e-08 0)
(76.0322 -4.18068e-08 0)
(76.0308 4.96214e-09 0)
(76.0275 1.22573e-07 0)
(76.0225 3.57903e-08 0)
(76.016 1.93143e-07 0)
(76.0079 1.01581e-06 0)
(75.9982 5.06493e-06 0)
(75.9871 2.47143e-05 0)
(75.9742 0.000119676 0)
(75.9582 0.000577566 0)
(75.9321 0.00277972 0)
(75.8624 0.0133219 0)
(75.6044 0.0636666 0)
(74.7925 0.308813 0)
(67.9092 1.15732 0)
(76.185 0.000118276 0)
(76.1454 0.000103534 0)
(76.0982 9.91164e-05 0)
(76.0556 0.000103368 0)
(76.0168 0.000105892 0)
(75.9798 0.000107228 0)
(75.9445 0.000108288 0)
(75.9115 0.000109214 0)
(75.8813 0.000109951 0)
(75.854 0.000110683 0)
(75.8298 0.000111132 0)
(75.8089 0.000111715 0)
(75.7912 0.000111954 0)
(75.7769 0.000112345 0)
(75.7657 0.000112648 0)
(75.7576 0.000112893 0)
(75.7525 0.000113115 0)
(75.7503 0.000113295 0)
(75.7508 0.000113445 0)
(75.7538 0.000113732 0)
(75.7589 0.000113774 0)
(75.766 0.000113901 0)
(75.7746 0.000114035 0)
(75.7844 0.000114137 0)
(75.7952 0.000114216 0)
(75.8066 0.000114268 0)
(75.8184 0.00011428 0)
(75.8302 0.000114237 0)
(75.8419 0.000114119 0)
(75.8532 0.000113887 0)
(75.8641 0.000113508 0)
(75.8743 0.000112929 0)
(75.8839 0.000112094 0)
(75.8927 0.000110936 0)
(75.9007 0.000109384 0)
(75.9079 0.000107374 0)
(75.9143 0.000104841 0)
(75.92 0.000101738 0)
(75.925 9.80339e-05 0)
(75.9293 9.37222e-05 0)
(75.9331 8.88249e-05 0)
(75.9363 8.33921e-05 0)
(75.9391 7.74992e-05 0)
(75.9415 7.12588e-05 0)
(75.9435 6.47818e-05 0)
(75.9452 5.82038e-05 0)
(75.9466 5.16628e-05 0)
(75.9478 4.52887e-05 0)
(75.9487 3.91993e-05 0)
(75.9495 3.3494e-05 0)
(75.95 2.82492e-05 0)
(75.9504 2.35175e-05 0)
(75.9504 1.93373e-05 0)
(75.9503 1.56487e-05 0)
(75.9499 1.25584e-05 0)
(75.9492 9.94228e-06 0)
(75.9481 7.76821e-06 0)
(75.9466 6.00746e-06 0)
(75.9445 4.6014e-06 0)
(75.9419 3.49487e-06 0)
(75.9386 2.63894e-06 0)
(75.9346 1.98748e-06 0)
(75.9298 1.49983e-06 0)
(75.9241 1.13975e-06 0)
(75.9174 8.79739e-07 0)
(75.9097 6.96568e-07 0)
(75.9009 5.7205e-07 0)
(75.8908 4.90668e-07 0)
(75.8795 4.40246e-07 0)
(75.8669 4.11639e-07 0)
(75.8529 3.98045e-07 0)
(75.8376 3.94402e-07 0)
(75.8209 3.97139e-07 0)
(75.8029 4.03652e-07 0)
(75.7837 4.12044e-07 0)
(75.7633 4.20954e-07 0)
(75.742 4.29348e-07 0)
(75.7198 4.36424e-07 0)
(75.6969 4.41554e-07 0)
(75.6736 4.44248e-07 0)
(75.6501 4.44112e-07 0)
(75.6268 4.40847e-07 0)
(75.6037 4.34223e-07 0)
(75.5814 4.2413e-07 0)
(75.56 4.10552e-07 0)
(75.5399 3.93566e-07 0)
(75.5214 3.73341e-07 0)
(75.5047 3.50164e-07 0)
(75.49 3.24385e-07 0)
(75.4776 2.9649e-07 0)
(75.4675 2.66957e-07 0)
(75.4601 2.36061e-07 0)
(75.4552 2.04332e-07 0)
(75.4529 1.73352e-07 0)
(75.4531 1.55614e-07 0)
(75.4553 1.23575e-07 0)
(75.4597 7.75092e-08 0)
(75.4664 4.45666e-08 0)
(75.4752 1.7621e-08 0)
(75.4857 -4.96315e-09 0)
(75.4978 -2.27581e-08 0)
(75.511 -3.64529e-08 0)
(75.5252 -4.60418e-08 0)
(75.54 -5.18013e-08 0)
(75.5551 -5.42238e-08 0)
(75.5703 -5.36754e-08 0)
(75.5854 -5.06431e-08 0)
(75.6 -4.53586e-08 0)
(75.6141 -3.79418e-08 0)
(75.6275 -2.87053e-08 0)
(75.6401 -1.81206e-08 0)
(75.6517 -6.61555e-09 0)
(75.6624 5.26666e-09 0)
(75.6721 1.71821e-08 0)
(75.6809 2.89522e-08 0)
(75.6887 4.03669e-08 0)
(75.6957 5.17633e-08 0)
(75.7018 6.36736e-08 0)
(75.7073 7.41282e-08 0)
(75.712 8.35797e-08 0)
(75.7162 9.2007e-08 0)
(75.7198 9.93746e-08 0)
(75.7231 1.05698e-07 0)
(75.726 1.11124e-07 0)
(75.7286 1.15774e-07 0)
(75.731 1.19707e-07 0)
(75.7332 1.23058e-07 0)
(75.7353 1.25876e-07 0)
(75.7374 1.28306e-07 0)
(75.7393 1.30403e-07 0)
(75.7413 1.3231e-07 0)
(75.7432 1.34161e-07 0)
(75.7451 1.36177e-07 0)
(75.747 1.38824e-07 0)
(75.7489 1.4224e-07 0)
(75.7509 1.37888e-07 0)
(75.7529 1.46138e-07 0)
(75.7549 1.56349e-07 0)
(75.7567 1.50562e-07 0)
(75.7586 1.46115e-07 0)
(75.7606 1.46496e-07 0)
(75.7626 1.52401e-07 0)
(75.7645 1.59698e-07 0)
(75.7666 1.6291e-07 0)
(75.7686 1.67023e-07 0)
(75.7707 1.68828e-07 0)
(75.7729 1.70778e-07 0)
(75.7752 1.72708e-07 0)
(75.7776 1.75122e-07 0)
(75.7802 1.78035e-07 0)
(75.7829 1.81428e-07 0)
(75.7859 1.85181e-07 0)
(75.7891 1.89261e-07 0)
(75.7926 1.93626e-07 0)
(75.7964 1.983e-07 0)
(75.8006 2.03255e-07 0)
(75.8052 2.08473e-07 0)
(75.8103 2.13977e-07 0)
(75.8158 2.1977e-07 0)
(75.8218 2.25717e-07 0)
(75.8284 2.3167e-07 0)
(75.8355 2.37574e-07 0)
(75.8431 2.43346e-07 0)
(75.8513 2.48804e-07 0)
(75.86 2.53989e-07 0)
(75.8692 2.58203e-07 0)
(75.8789 2.62508e-07 0)
(75.889 2.66098e-07 0)
(75.8994 2.67098e-07 0)
(75.9102 2.69884e-07 0)
(75.9212 2.69257e-07 0)
(75.9323 2.67824e-07 0)
(75.9434 2.63721e-07 0)
(75.9544 2.62045e-07 0)
(75.9652 2.55687e-07 0)
(75.9756 2.47197e-07 0)
(75.9855 2.26363e-07 0)
(75.9948 2.41173e-07 0)
(76.0034 2.01113e-07 0)
(76.011 2.57467e-07 0)
(76.0177 5.31621e-08 0)
(76.0232 1.555e-07 0)
(76.0275 2.34379e-07 0)
(76.0305 3.43208e-07 0)
(76.0321 -4.82662e-08 0)
(76.0322 -2.29921e-07 0)
(76.0308 2.84411e-07 0)
(76.0275 1.25624e-07 0)
(76.0225 1.42569e-07 0)
(76.016 5.65902e-07 0)
(76.0079 2.68986e-06 0)
(75.9982 1.29989e-05 0)
(75.9871 6.28387e-05 0)
(75.9743 0.000303521 0)
(75.9586 0.00146389 0)
(75.9337 0.00704341 0)
(75.8702 0.0336602 0)
(75.6428 0.158967 0)
(74.9388 0.713511 0)
(69.7003 2.6137 0)
(76.185 3.57702e-05 0)
(76.1454 2.89748e-05 0)
(76.0982 2.02546e-05 0)
(76.0556 1.69909e-05 0)
(76.0168 1.45787e-05 0)
(75.9798 1.2353e-05 0)
(75.9445 1.05576e-05 0)
(75.9115 9.12042e-06 0)
(75.8813 7.92142e-06 0)
(75.854 6.94384e-06 0)
(75.8298 6.06129e-06 0)
(75.8089 5.37966e-06 0)
(75.7912 4.70333e-06 0)
(75.7769 4.17765e-06 0)
(75.7657 3.71277e-06 0)
(75.7576 3.29765e-06 0)
(75.7525 2.9374e-06 0)
(75.7503 2.61344e-06 0)
(75.7508 2.32513e-06 0)
(75.7537 2.11672e-06 0)
(75.7589 1.86246e-06 0)
(75.7659 1.66432e-06 0)
(75.7746 1.49474e-06 0)
(75.7844 1.34002e-06 0)
(75.7952 1.20182e-06 0)
(75.8066 1.07916e-06 0)
(75.8183 9.70572e-07 0)
(75.8302 8.74026e-07 0)
(75.8418 7.89977e-07 0)
(75.8532 7.141e-07 0)
(75.8641 6.47124e-07 0)
(75.8743 5.87306e-07 0)
(75.8839 5.34085e-07 0)
(75.8926 4.85846e-07 0)
(75.9006 4.40639e-07 0)
(75.9079 3.98251e-07 0)
(75.9143 3.57778e-07 0)
(75.92 3.18332e-07 0)
(75.925 2.79468e-07 0)
(75.9293 2.40695e-07 0)
(75.9331 2.02314e-07 0)
(75.9363 1.64492e-07 0)
(75.9391 1.26815e-07 0)
(75.9414 9.22166e-08 0)
(75.9435 5.94632e-08 0)
(75.9452 2.89792e-08 0)
(75.9466 2.20853e-09 0)
(75.9478 -2.04428e-08 0)
(75.9487 -3.89337e-08 0)
(75.9495 -5.31223e-08 0)
(75.95 -6.32889e-08 0)
(75.9504 -6.95038e-08 0)
(75.9504 -6.92881e-08 0)
(75.9503 -8.21342e-08 0)
(75.9499 -7.14453e-08 0)
(75.9492 -6.70048e-08 0)
(75.9481 -6.54247e-08 0)
(75.9466 -6.08792e-08 0)
(75.9445 -5.52331e-08 0)
(75.9419 -4.93605e-08 0)
(75.9386 -4.242e-08 0)
(75.9346 -3.40478e-08 0)
(75.9298 -2.3807e-08 0)
(75.9241 -1.21543e-08 0)
(75.9174 9.44476e-10 0)
(75.9097 1.38843e-08 0)
(75.9009 2.51946e-08 0)
(75.8908 3.38013e-08 0)
(75.8795 3.99605e-08 0)
(75.8669 4.45592e-08 0)
(75.8529 4.83886e-08 0)
(75.8376 5.18751e-08 0)
(75.8209 5.52067e-08 0)
(75.8029 5.8368e-08 0)
(75.7837 6.1239e-08 0)
(75.7633 6.36791e-08 0)
(75.742 6.55258e-08 0)
(75.7198 6.6622e-08 0)
(75.6969 6.68208e-08 0)
(75.6736 6.59959e-08 0)
(75.6501 6.40359e-08 0)
(75.6268 6.08566e-08 0)
(75.6037 5.63873e-08 0)
(75.5814 5.05986e-08 0)
(75.56 4.34903e-08 0)
(75.5399 3.50898e-08 0)
(75.5214 2.54572e-08 0)
(75.5047 1.46892e-08 0)
(75.49 2.89031e-09 0)
(75.4776 -9.81043e-09 0)
(75.4675 -2.32956e-08 0)
(75.4601 -3.74838e-08 0)
(75.4552 -5.21843e-08 0)
(75.4529 -6.67184e-08 0)
(75.4531 -7.73149e-08 0)
(75.4553 -9.07965e-08 0)
(75.4597 -1.06849e-07 0)
(75.4664 -1.14579e-07 0)
(75.4752 -1.20897e-07 0)
(75.4857 -1.26536e-07 0)
(75.4978 -1.30534e-07 0)
(75.511 -1.32841e-07 0)
(75.5252 -1.33552e-07 0)
(75.54 -1.32892e-07 0)
(75.5551 -1.31064e-07 0)
(75.5703 -1.28095e-07 0)
(75.5854 -1.24137e-07 0)
(75.6 -1.19164e-07 0)
(75.6141 -1.13235e-07 0)
(75.6275 -1.0648e-07 0)
(75.6401 -9.90878e-08 0)
(75.6517 -9.11924e-08 0)
(75.6624 -8.29546e-08 0)
(75.6721 -7.43809e-08 0)
(75.6809 -6.53235e-08 0)
(75.6887 -5.53549e-08 0)
(75.6957 -4.62546e-08 0)
(75.7018 -4.16499e-08 0)
(75.7073 -3.80752e-08 0)
(75.712 -3.49879e-08 0)
(75.7162 -3.23314e-08 0)
(75.7198 -3.00715e-08 0)
(75.7231 -2.81861e-08 0)
(75.726 -2.66721e-08 0)
(75.7286 -2.55089e-08 0)
(75.731 -2.46787e-08 0)
(75.7332 -2.41531e-08 0)
(75.7353 -2.39091e-08 0)
(75.7374 -2.39093e-08 0)
(75.7393 -2.4136e-08 0)
(75.7413 -2.45767e-08 0)
(75.7432 -2.52271e-08 0)
(75.7451 -2.60794e-08 0)
(75.747 -2.71065e-08 0)
(75.7489 -2.85022e-08 0)
(75.7509 -3.20633e-08 0)
(75.7529 -3.16601e-08 0)
(75.7549 -2.95372e-08 0)
(75.7567 -3.22522e-08 0)
(75.7586 -3.5265e-08 0)
(75.7606 -3.6229e-08 0)
(75.7626 -3.52551e-08 0)
(75.7645 -3.39666e-08 0)
(75.7666 -3.38827e-08 0)
(75.7686 -3.33716e-08 0)
(75.7707 -3.32326e-08 0)
(75.7729 -3.28574e-08 0)
(75.7752 -3.23062e-08 0)
(75.7776 -3.14948e-08 0)
(75.7802 -3.0415e-08 0)
(75.7829 -2.90663e-08 0)
(75.7859 -2.74596e-08 0)
(75.7891 -2.56066e-08 0)
(75.7926 -2.35146e-08 0)
(75.7964 -2.11826e-08 0)
(75.8006 -1.86223e-08 0)
(75.8052 -1.58376e-08 0)
(75.8103 -1.28291e-08 0)
(75.8158 -9.59854e-09 0)
(75.8218 -6.2183e-09 0)
(75.8284 -2.75488e-09 0)
(75.8355 7.70668e-10 0)
(75.8431 4.31456e-09 0)
(75.8513 7.85772e-09 0)
(75.86 1.1253e-08 0)
(75.8692 1.44221e-08 0)
(75.8789 1.73936e-08 0)
(75.889 2.10645e-08 0)
(75.8994 2.05721e-08 0)
(75.9102 2.51928e-08 0)
(75.9212 2.55723e-08 0)
(75.9323 2.61669e-08 0)
(75.9434 2.32519e-08 0)
(75.9544 2.87943e-08 0)
(75.9652 2.61664e-08 0)
(75.9756 2.41572e-08 0)
(75.9855 7.97938e-09 0)
(75.9948 5.11101e-08 0)
(76.0034 -1.06792e-08 0)
(76.011 9.90724e-08 0)
(76.0177 -1.98984e-07 0)
(76.0232 -5.24998e-08 0)
(76.0275 1.77427e-07 0)
(76.0305 3.87374e-07 0)
(76.0321 -3.20133e-07 0)
(76.0322 -6.51798e-07 0)
(76.0308 8.04568e-07 0)
(76.0275 -2.50113e-07 0)
(76.0225 1.36693e-07 0)
(76.016 8.83651e-07 0)
(76.0079 4.42647e-06 0)
(75.9983 2.15513e-05 0)
(75.9872 0.000104339 0)
(75.9746 0.000504184 0)
(75.9602 0.00243302 0)
(75.9415 0.0117111 0)
(75.9066 0.0560319 0)
(75.8002 0.263356 0)
(75.4896 1.16554 0)
(72.3984 4.19839 0)
(76.185 -3.57702e-05 0)
(76.1454 -2.89748e-05 0)
(76.0982 -2.02546e-05 0)
(76.0556 -1.69909e-05 0)
(76.0168 -1.45787e-05 0)
(75.9798 -1.2353e-05 0)
(75.9445 -1.05576e-05 0)
(75.9115 -9.12043e-06 0)
(75.8813 -7.92142e-06 0)
(75.854 -6.94383e-06 0)
(75.8298 -6.06129e-06 0)
(75.8089 -5.37966e-06 0)
(75.7912 -4.70333e-06 0)
(75.7769 -4.17765e-06 0)
(75.7657 -3.71277e-06 0)
(75.7576 -3.29765e-06 0)
(75.7525 -2.9374e-06 0)
(75.7503 -2.61344e-06 0)
(75.7508 -2.32513e-06 0)
(75.7537 -2.11672e-06 0)
(75.7589 -1.86246e-06 0)
(75.7659 -1.66432e-06 0)
(75.7746 -1.49474e-06 0)
(75.7844 -1.34002e-06 0)
(75.7952 -1.20182e-06 0)
(75.8066 -1.07916e-06 0)
(75.8183 -9.70573e-07 0)
(75.8302 -8.74027e-07 0)
(75.8418 -7.89977e-07 0)
(75.8532 -7.141e-07 0)
(75.8641 -6.47124e-07 0)
(75.8743 -5.87305e-07 0)
(75.8839 -5.34082e-07 0)
(75.8926 -4.85847e-07 0)
(75.9006 -4.40639e-07 0)
(75.9079 -3.98251e-07 0)
(75.9143 -3.57778e-07 0)
(75.92 -3.18332e-07 0)
(75.925 -2.79468e-07 0)
(75.9293 -2.40696e-07 0)
(75.9331 -2.02315e-07 0)
(75.9363 -1.64491e-07 0)
(75.9391 -1.26815e-07 0)
(75.9414 -9.22176e-08 0)
(75.9435 -5.94633e-08 0)
(75.9452 -2.89784e-08 0)
(75.9466 -2.20817e-09 0)
(75.9478 2.04415e-08 0)
(75.9487 3.89332e-08 0)
(75.9495 5.31217e-08 0)
(75.95 6.32885e-08 0)
(75.9504 6.95037e-08 0)
(75.9504 6.92876e-08 0)
(75.9503 8.21333e-08 0)
(75.9499 7.14452e-08 0)
(75.9492 6.70049e-08 0)
(75.9481 6.54245e-08 0)
(75.9466 6.08809e-08 0)
(75.9445 5.52317e-08 0)
(75.9419 4.93606e-08 0)
(75.9386 4.24194e-08 0)
(75.9346 3.40475e-08 0)
(75.9298 2.38065e-08 0)
(75.9241 1.21544e-08 0)
(75.9174 -9.45906e-10 0)
(75.9097 -1.38853e-08 0)
(75.9009 -2.51946e-08 0)
(75.8908 -3.38014e-08 0)
(75.8795 -3.99613e-08 0)
(75.8669 -4.45587e-08 0)
(75.8529 -4.83886e-08 0)
(75.8376 -5.18756e-08 0)
(75.8209 -5.52065e-08 0)
(75.8029 -5.83673e-08 0)
(75.7837 -6.1239e-08 0)
(75.7633 -6.368e-08 0)
(75.742 -6.55271e-08 0)
(75.7198 -6.66222e-08 0)
(75.6969 -6.68218e-08 0)
(75.6736 -6.59961e-08 0)
(75.6501 -6.40368e-08 0)
(75.6268 -6.08563e-08 0)
(75.6037 -5.63869e-08 0)
(75.5814 -5.0599e-08 0)
(75.56 -4.34916e-08 0)
(75.5399 -3.50896e-08 0)
(75.5214 -2.54576e-08 0)
(75.5047 -1.46897e-08 0)
(75.49 -2.89013e-09 0)
(75.4776 9.80944e-09 0)
(75.4675 2.32955e-08 0)
(75.4601 3.74839e-08 0)
(75.4552 5.21828e-08 0)
(75.4529 6.67185e-08 0)
(75.4531 7.7315e-08 0)
(75.4553 9.07963e-08 0)
(75.4597 1.06848e-07 0)
(75.4664 1.14578e-07 0)
(75.4752 1.20895e-07 0)
(75.4857 1.26535e-07 0)
(75.4978 1.30534e-07 0)
(75.511 1.3284e-07 0)
(75.5252 1.33552e-07 0)
(75.54 1.32892e-07 0)
(75.5551 1.31065e-07 0)
(75.5703 1.28094e-07 0)
(75.5854 1.24136e-07 0)
(75.6 1.19164e-07 0)
(75.6141 1.13235e-07 0)
(75.6275 1.0648e-07 0)
(75.6401 9.90879e-08 0)
(75.6517 9.11921e-08 0)
(75.6624 8.29542e-08 0)
(75.6721 7.4381e-08 0)
(75.6809 6.53235e-08 0)
(75.6887 5.53553e-08 0)
(75.6957 4.62535e-08 0)
(75.7018 4.16494e-08 0)
(75.7073 3.80755e-08 0)
(75.712 3.49888e-08 0)
(75.7162 3.2332e-08 0)
(75.7198 3.00708e-08 0)
(75.7231 2.81868e-08 0)
(75.726 2.66725e-08 0)
(75.7286 2.55092e-08 0)
(75.731 2.46782e-08 0)
(75.7332 2.41547e-08 0)
(75.7353 2.39094e-08 0)
(75.7374 2.39099e-08 0)
(75.7393 2.41358e-08 0)
(75.7413 2.45756e-08 0)
(75.7432 2.52266e-08 0)
(75.7451 2.60792e-08 0)
(75.747 2.71057e-08 0)
(75.7489 2.8502e-08 0)
(75.7509 3.20641e-08 0)
(75.7529 3.16598e-08 0)
(75.7549 2.95372e-08 0)
(75.7567 3.22521e-08 0)
(75.7586 3.52654e-08 0)
(75.7606 3.62285e-08 0)
(75.7626 3.52556e-08 0)
(75.7645 3.39662e-08 0)
(75.7666 3.38845e-08 0)
(75.7686 3.33719e-08 0)
(75.7707 3.32343e-08 0)
(75.7729 3.2858e-08 0)
(75.7752 3.23064e-08 0)
(75.7776 3.1493e-08 0)
(75.7802 3.04138e-08 0)
(75.7829 2.90671e-08 0)
(75.7859 2.74601e-08 0)
(75.7891 2.56065e-08 0)
(75.7926 2.35151e-08 0)
(75.7964 2.11841e-08 0)
(75.8006 1.8621e-08 0)
(75.8052 1.58375e-08 0)
(75.8103 1.28295e-08 0)
(75.8158 9.59863e-09 0)
(75.8218 6.21956e-09 0)
(75.8284 2.75353e-09 0)
(75.8355 -7.56871e-10 0)
(75.8431 -4.34275e-09 0)
(75.8513 -7.83328e-09 0)
(75.86 -1.13843e-08 0)
(75.8692 -1.4477e-08 0)
(75.8789 -1.78134e-08 0)
(75.889 -1.89911e-08 0)
(75.8994 -2.47032e-08 0)
(75.9102 -2.30433e-08 0)
(75.9212 -2.50458e-08 0)
(75.9323 -2.63418e-08 0)
(75.9434 -3.18434e-08 0)
(75.9544 -2.15379e-08 0)
(75.9652 -2.48663e-08 0)
(75.9756 -2.53801e-08 0)
(75.9855 -3.28689e-08 0)
(75.9948 1.88632e-08 0)
(76.0034 -4.68373e-08 0)
(76.011 9.23069e-08 0)
(76.0177 -2.07192e-07 0)
(76.0232 -6.30043e-08 0)
(76.0275 1.94268e-07 0)
(76.0305 3.68587e-07 0)
(76.0321 -2.64473e-07 0)
(76.0322 -1.40944e-06 0)
(76.0308 2.3081e-06 0)
(76.0275 -8.35575e-07 0)
(76.0225 1.69888e-07 0)
(76.016 9.6099e-07 0)
(76.0079 4.52336e-06 0)
(75.9983 2.16725e-05 0)
(75.9873 0.000104583 0)
(75.9751 0.000505523 0)
(75.9622 0.00244616 0)
(75.9511 0.0118485 0)
(75.9519 0.0575666 0)
(76.0052 0.277946 0)
(76.2415 1.31929 0)
(77.0769 4.72364 0)
(76.185 -0.000118276 0)
(76.1454 -0.000103534 0)
(76.0982 -9.91164e-05 0)
(76.0556 -0.000103368 0)
(76.0168 -0.000105892 0)
(75.9798 -0.000107228 0)
(75.9445 -0.000108288 0)
(75.9115 -0.000109214 0)
(75.8813 -0.000109951 0)
(75.854 -0.000110683 0)
(75.8298 -0.000111132 0)
(75.8089 -0.000111715 0)
(75.7912 -0.000111954 0)
(75.7769 -0.000112345 0)
(75.7657 -0.000112648 0)
(75.7576 -0.000112893 0)