/*--------------------------------*- C++ -*----------------------------------*\
| =========                 |                                                 |
| \\      /  F ield         | OpenFOAM: The Open Source CFD Toolbox           |
|  \\    /   O peration     | Version:  3.0.x                                 |
|   \\  /    A nd           | Web:      www.OpenFOAM.org                      |
|    \\/     M anipulation  |                                                 |
\*---------------------------------------------------------------------------*/
FoamFile
{
    version     2.0;
    format      ascii;
    class       surfaceScalarField;
    location    "0.569975";
    object      phi;
}
// * * * * * * * * * * * * * * * * * * * * * * * * * * * * * * * * * * * * * //

dimensions      [1 0 -1 0 0 0 0];

internalField   nonuniform List<scalar> 
26210
(
5.59279
0.00050997
5.54442
0.000359287
5.49599
0.000357262
5.44751
0.000362793
5.39898
0.000366872
5.35039
0.000370684
5.30176
0.000374133
5.25312
0.000377141
5.20445
0.000379754
5.15576
0.000381983
5.10707
0.00038386
5.05839
0.000385436
5.00976
0.000386594
4.96115
0.000387985
4.91254
0.000388611
4.864
0.000389322
4.81552
0.00038987
4.76711
0.000390309
4.71878
0.000390667
4.67053
0.000390967
4.62238
0.000391223
4.57432
0.000391453
4.52637
0.000391665
4.47854
0.000391866
4.43082
0.000392061
4.38322
0.000392256
4.33575
0.000392448
4.28842
0.000392645
4.24122
0.000392843
4.19417
0.000393042
4.14728
0.000393247
4.10054
0.000393452
4.05395
0.000393664
4.00754
0.000393876
3.9613
0.000394094
3.91523
0.000394314
3.86935
0.000394541
3.82365
0.000394761
3.77814
0.000394989
3.73283
0.00039522
3.68772
0.000395446
3.64282
0.000395683
3.59813
0.000395911
3.55365
0.000396152
3.50939
0.000396385
3.46535
0.000396617
3.42154
0.000396862
3.37796
0.000397096
3.33461
0.00039734
3.29151
0.000397582
3.24864
0.000397826
3.20603
0.000398069
3.16366
0.0003983
3.12155
0.000398531
3.07969
0.000398761
3.0381
0.000398992
2.99676
0.000399234
2.9557
0.000399504
2.9149
0.000399777
2.87437
0.000400024
2.83412
0.00040023
2.79415
0.000400436
2.75445
0.000400643
2.71504
0.000400862
2.67591
0.000401084
2.63707
0.0004013
2.59852
0.000401522
2.56026
0.000401725
2.5223
0.000401908
2.48463
0.000402126
2.44726
0.000402352
2.41019
0.000402634
2.37342
0.00040293
2.33695
0.000403242
2.30078
0.000403507
2.26492
0.000403767
2.22936
0.000403998
2.19411
0.000404188
2.15917
0.00040438
2.12453
0.000404571
2.09021
0.000404759
2.0562
0.000404965
2.02249
0.000405179
1.98911
0.000405393
1.95603
0.000405589
1.92327
0.00040574
1.89082
0.000405855
1.85869
0.000405979
1.82687
0.000406132
1.79536
0.00040629
1.76418
0.000406442
1.7333
0.000406608
1.70275
0.000406799
1.6725
0.000406966
1.64258
0.000407036
1.61296
0.000406964
1.58366
0.000406741
1.55468
0.000406372
1.52601
0.000405834
1.49765
0.000405064
1.46961
0.000403992
1.44188
0.000402567
1.41447
0.000400768
1.38737
0.000398581
1.36059
0.00039598
1.33411
0.000392903
1.30796
0.000389259
1.28211
0.000384945
1.25658
0.000379859
1.23136
0.000373917
1.20646
0.000367048
1.18187
0.000359208
1.15759
0.000350372
1.13362
0.000340537
1.10997
0.000329723
1.08663
0.000317959
1.0636
0.000305292
1.04089
0.000291777
1.01848
0.000277491
0.996395
0.000262525
0.974617
0.000246994
0.953149
0.000231021
0.93199
0.000214744
0.911141
0.000198302
0.890598
0.000181843
0.870362
0.000165511
0.85043
0.00014945
0.830801
0.000133793
0.811473
0.000118664
0.792444
0.000104172
0.773711
9.04105e-05
0.755274
7.74549e-05
0.737129
6.53614e-05
0.719274
5.41671e-05
0.701706
4.38919e-05
0.684425
3.45367e-05
0.667426
2.60879e-05
0.650707
1.85158e-05
0.634266
1.17856e-05
0.618101
5.84717e-06
0.602209
6.65772e-07
0.586588
-3.88313e-06
0.571235
-7.80219e-06
0.556149
-1.11548e-05
0.541326
-1.40081e-05
0.526765
-1.64217e-05
0.512464
-1.84531e-05
0.498421
-2.01536e-05
0.484633
-2.15725e-05
0.471099
-2.27538e-05
0.457817
-2.37378e-05
0.444784
-2.45572e-05
0.432
-2.52405e-05
0.419462
-2.58113e-05
0.407167
-2.62907e-05
0.395115
-2.6699e-05
0.383303
-2.70503e-05
0.371729
-2.73582e-05
0.360392
-2.76304e-05
0.349287
-2.78742e-05
0.338414
-2.80963e-05
0.327771
-2.83001e-05
0.317354
-2.84913e-05
0.307161
-2.86714e-05
0.297189
-2.88438e-05
0.287437
-2.90104e-05
0.277902
-2.91755e-05
0.268582
-2.9335e-05
0.259475
-2.9495e-05
0.250579
-2.96453e-05
0.241893
-2.98049e-05
0.233413
-2.99491e-05
0.22514
-3.01096e-05
0.217069
-3.02606e-05
0.209199
-3.03887e-05
0.201527
-3.06186e-05
0.19405
-3.05779e-05
0.186768
-3.11099e-05
0.179675
-3.05785e-05
0.172772
-3.182e-05
0.166053
-3.04271e-05
0.15952
-3.26842e-05
0.153164
-2.999e-05
0.146989
-3.3722e-05
0.140985
-2.93806e-05
0.135159
-3.5209e-05
0.129497
-2.82499e-05
0.124009
-3.67216e-05
0.11868
-2.76268e-05
0.113519
-3.7132e-05
0.108511
-2.79034e-05
0.103664
-3.56347e-05
0.0989617
-2.47705e-05
0.0943997
-1.70355e-05
0.0899258
4.5127e-05
0.085361
0.000279641
0.07988
0.00133988
0.072276
0.00360153
0.0313516
0.0370575
0.0513338
-0.0237166
7.91034
0.000465382
7.84245
0.000340854
7.77449
0.000331829
7.70646
0.000338632
7.63837
0.000342428
7.5702
0.000345924
7.50198
0.000349214
7.43375
0.000352086
7.36549
0.000354571
7.29719
0.000356695
7.22889
0.000358492
7.16062
0.000360006
7.09241
0.000361152
7.02423
0.000362464
6.95607
0.00036311
6.888
0.000363812
6.82001
0.000364368
6.75212
0.000364819
6.68434
0.000365195
6.61669
0.000365516
6.54917
0.000365797
6.48178
0.000366053
6.41455
0.000366291
6.34748
0.000366521
6.28057
0.000366743
6.21383
0.000366966
6.14728
0.000367186
6.08092
0.000367411
6.01476
0.000367637
5.9488
0.000367864
5.88305
0.000368097
5.81753
0.00036833
5.75224
0.000368569
5.68718
0.000368809
5.62236
0.000369053
5.55779
0.0003693
5.49348
0.000369554
5.42944
0.000369801
5.36566
0.000370056
5.30217
0.000370314
5.23896
0.000370567
5.17604
0.00037083
5.11341
0.000371085
5.05109
0.000371352
4.98908
0.000371612
4.92739
0.000371871
4.86601
0.000372142
4.80497
0.000372404
4.74425
0.000372674
4.68388
0.000372943
4.62385
0.000373212
4.56416
0.000373482
4.50483
0.000373742
4.44586
0.000374
4.38726
0.000374258
4.32902
0.000374517
4.27115
0.000374787
4.21366
0.00037508
4.15655
0.000375377
4.09983
0.000375651
4.04349
0.000375888
3.98755
0.000376124
3.93201
0.000376363
3.87686
0.000376612
3.82212
0.000376864
3.76778
0.000377108
3.71385
0.000377356
3.66033
0.00037759
3.60723
0.000377806
3.55455
0.000378054
3.50229
0.000378313
3.45046
0.000378621
3.39905
0.000378942
3.34807
0.000379277
3.29751
0.000379569
3.24739
0.000379855
3.1977
0.000380116
3.14844
0.000380339
3.09962
0.000380562
3.05123
0.000380784
3.00329
0.000381005
2.95578
0.000381242
2.90871
0.000381486
2.86209
0.00038173
2.81591
0.000381957
2.77018
0.000382142
2.72488
0.000382294
2.68004
0.000382452
2.63563
0.000382636
2.59168
0.000382826
2.54817
0.000383007
2.50511
0.000383198
2.46249
0.000383405
2.42032
0.000383583
2.37859
0.000383662
2.33731
0.000383598
2.29647
0.000383384
2.25608
0.00038302
2.21613
0.000382479
2.17663
0.000381699
2.13756
0.000380612
2.09894
0.000379169
2.06076
0.000377346
2.02303
0.000375129
1.98573
0.000372487
1.94887
0.00036936
1.91245
0.000365658
1.87647
0.000361283
1.84092
0.000356142
1.80581
0.000350156
1.77113
0.000343262
1.73688
0.000335423
1.70307
0.000326623
1.66968
0.000316867
1.63672
0.00030618
1.60418
0.000294601
1.57207
0.000282183
1.54038
0.000268989
1.50912
0.000255102
1.47827
0.000240619
1.44784
0.000225656
1.41783
0.00021034
1.38823
0.000194804
1.35904
0.000179187
1.33027
0.000163629
1.3019
0.000148269
1.27394
0.000133238
1.24638
0.00011866
1.21923
0.000104644
1.19248
9.12873e-05
1.16613
7.86692e-05
1.14017
6.68512e-05
1.11461
5.58769e-05
1.08945
4.57711e-05
1.06467
3.6543e-05
1.04029
2.81848e-05
1.01629
2.0674e-05
0.992674
1.39742e-05
0.969443
8.0514e-06
0.946593
2.85277e-06
0.924122
-1.63571e-06
0.902026
-5.57585e-06
0.880304
-8.94166e-06
0.858953
-1.1812e-05
0.837971
-1.42482e-05
0.817355
-1.63036e-05
0.797103
-1.80295e-05
0.777213
-1.94712e-05
0.757683
-2.06724e-05
0.738509
-2.16714e-05
0.71969
-2.25035e-05
0.701224
-2.31971e-05
0.683106
-2.37764e-05
0.665336
-2.42616e-05
0.64791
-2.46708e-05
0.630826
-2.50215e-05
0.614082
-2.53254e-05
0.597673
-2.55936e-05
0.581598
-2.58331e-05
0.565852
-2.6049e-05
0.550434
-2.62481e-05
0.53534
-2.64315e-05
0.520565
-2.66052e-05
0.506107
-2.67697e-05
0.491963
-2.69279e-05
0.478128
-2.70823e-05
0.4646
-2.72335e-05
0.451376
-2.73846e-05
0.438453
-2.75273e-05
0.425828
-2.76793e-05
0.413499
-2.7805e-05
0.401464
-2.79837e-05
0.389718
-2.80511e-05
0.378259
-2.83427e-05
0.367084
-2.8196e-05
0.356189
-2.88677e-05
0.34557
-2.80814e-05
0.335225
-2.97515e-05
0.325148
-2.75224e-05
0.31534
-3.11227e-05
0.305791
-2.65305e-05
0.296505
-3.29275e-05
0.28747
-2.49123e-05
0.27869
-3.51609e-05
0.270152
-2.28616e-05
0.261865
-3.85204e-05
0.25381
-1.96142e-05
0.246001
-4.18272e-05
0.238416
-1.79147e-05
0.23107
-4.21966e-05
0.223939
-1.84594e-05
0.217036
-3.82588e-05
0.210338
-1.14904e-05
0.203837
7.46236e-06
0.197452
0.000167082
0.190918
0.000752987
0.183099
0.00330366
0.170287
0.0107516
0.118334
0.0835452
0.110416
0.0539679
11.1869
0.000406434
11.0909
0.000312043
10.9948
0.000296244
10.8986
0.000304027
10.8023
0.000307547
10.7059
0.000310577
10.6094
0.000313563
10.5129
0.000316172
10.4164
0.000318413
10.3198
0.000320329
10.2232
0.000321952
10.1267
0.000323318
10.0302
0.000324377
9.93377
0.000325524
9.83738
0.000326131
9.74111
0.000326761
9.64496
0.000327267
9.54895
0.000327674
9.4531
0.000328015
9.35742
0.000328306
9.26193
0.000328559
9.16664
0.00032879
9.07156
0.000329006
8.9767
0.000329213
8.88208
0.000329414
8.78771
0.000329614
8.69359
0.000329813
8.59974
0.000330015
8.50618
0.000330218
8.4129
0.000330423
8.31992
0.000330632
8.22726
0.000330843
8.13492
0.000331057
8.04292
0.000331273
7.95125
0.000331493
7.85995
0.000331715
7.769
0.000331943
7.67843
0.000332167
7.58824
0.000332396
7.49845
0.000332628
7.40905
0.000332856
7.32007
0.000333092
7.23151
0.000333321
7.14338
0.000333562
7.05569
0.000333796
6.96844
0.00033403
6.88165
0.000334274
6.79532
0.00033451
6.70946
0.000334752
6.62408
0.000334995
6.53918
0.000335236
6.45478
0.000335478
6.37088
0.000335713
6.28749
0.000335947
6.20461
0.000336179
6.12225
0.000336413
6.04042
0.000336654
5.95912
0.000336916
5.87836
0.000337182
5.79814
0.000337429
5.71848
0.000337645
5.63937
0.000337859
5.56082
0.000338076
5.48283
0.0003383
5.40542
0.000338527
5.32858
0.000338745
5.25231
0.000338967
5.17663
0.000339176
5.10154
0.000339371
5.02705
0.000339595
4.95315
0.000339831
4.87985
0.000340106
4.80715
0.000340395
4.73505
0.000340695
4.66356
0.000340959
4.59268
0.000341215
4.52241
0.000341451
4.45275
0.000341653
4.38371
0.000341854
4.31529
0.000342053
4.24749
0.000342252
4.18031
0.000342464
4.11376
0.000342684
4.04783
0.000342903
3.98253
0.000343108
3.91785
0.000343276
3.8538
0.000343415
3.79039
0.000343558
3.7276
0.000343723
3.66544
0.000343895
3.60392
0.000344059
3.54302
0.000344233
3.48276
0.000344419
3.42312
0.000344577
3.36412
0.000344648
3.30575
0.000344592
3.248
0.000344403
3.19088
0.000344079
3.13439
0.000343596
3.07853
0.000342898
3.02329
0.000341926
2.96868
0.000340635
2.91469
0.000339004
2.86132
0.00033702
2.80858
0.000334656
2.75646
0.000331856
2.70496
0.00032854
2.65408
0.000324622
2.60381
0.000320016
2.55416
0.000314652
2.50511
0.000308475
2.45668
0.000301451
2.40886
0.000293563
2.36164
0.000284817
2.31502
0.000275235
2.269
0.000264852
2.22359
0.000253713
2.17877
0.000241877
2.13455
0.000229417
2.09092
0.00021642
2.04787
0.00020299
2.00542
0.00018924
1.96355
0.000175291
1.92227
0.000161266
1.88156
0.000147292
1.84144
0.000133492
1.80188
0.000119987
1.7629
0.000106885
1.72449
9.42869e-05
1.68665
8.22788e-05
1.64938
7.09321e-05
1.61266
6.03024e-05
1.57651
5.04294e-05
1.54091
4.13354e-05
1.50587
3.30291e-05
1.47137
2.55043e-05
1.43743
1.87388e-05
1.40403
1.26979e-05
1.37117
7.35591e-06
1.33885
2.66338e-06
1.30707
-1.3163e-06
1.27582
-4.91138e-06
1.2451
-7.9528e-06
1.2149
-1.05425e-05
1.18523
-1.2741e-05
1.15607
-1.45961e-05
1.12743
-1.61542e-05
1.0993
-1.74563e-05
1.07168
-1.85411e-05
1.04456
-1.94436e-05
1.01795
-2.01952e-05
0.99183
-2.08219e-05
0.966208
-2.13453e-05
0.941076
-2.17835e-05
0.916432
-2.2153e-05
0.892272
-2.24698e-05
0.868591
-2.27442e-05
0.845386
-2.29859e-05
0.822651
-2.3202e-05
0.800384
-2.33963e-05
0.77858
-2.35759e-05
0.757233
-2.37408e-05
0.736338
-2.38972e-05
0.715892
-2.40454e-05
0.695889
-2.41873e-05
0.676323
-2.43271e-05
0.657192
-2.44604e-05
0.63849
-2.46013e-05
0.620214
-2.47193e-05
0.60236
-2.48762e-05
0.584924
-2.49499e-05
0.567903
-2.51847e-05
0.551292
-2.51076e-05
0.535087
-2.56187e-05
0.519282
-2.505e-05
0.503875
-2.63947e-05
0.488857
-2.44857e-05
0.474228
-2.78532e-05
0.459977
-2.31141e-05
0.446106
-3.01771e-05
0.432602
-2.09151e-05
0.419469
-3.33329e-05
0.406691
-1.75951e-05
0.394275
-3.7303e-05
0.3822
-1.34305e-05
0.37048
-4.34032e-05
0.359089
-7.10672e-06
0.348046
-4.93059e-05
0.337318
-3.84934e-06
0.326929
-4.9649e-05
0.316844
-4.78021e-06
0.307082
-4.239e-05
0.29761
6.92737e-06
0.288423
3.63102e-05
0.279421
0.000311485
0.270307
0.00129535
0.259778
0.0055525
0.244416
0.0181058
0.180112
0.14012
0.189338
0.0937184
49.3813
0.000187682
48.9576
0.000162477
48.5333
0.000146787
48.1086
0.000151491
47.6836
0.000153983
47.258
0.00015531
46.8321
0.000156745
46.4062
0.000158055
45.9801
0.000159172
45.5537
0.000160128
45.1273
0.00016094
44.7012
0.000161623
44.2754
0.000162179
43.8498
0.000162713
43.4243
0.000163043
42.9993
0.000163354
42.5749
0.000163611
42.1511
0.000163815
41.728
0.000163987
41.3056
0.000164133
40.8841
0.00016426
40.4635
0.000164376
40.0438
0.000164485
39.625
0.000164589
39.2074
0.00016469
38.7908
0.000164789
38.3753
0.000164889
37.9611
0.000164989
37.548
0.000165091
37.1363
0.000165194
36.7259
0.000165299
36.3169
0.000165406
35.9092
0.000165512
35.5031
0.00016562
35.0985
0.000165732
34.6954
0.000165843
34.294
0.000165957
33.8942
0.000166069
33.4961
0.000166184
33.0997
0.0001663
32.7051
0.000166415
32.3123
0.000166533
31.9214
0.000166648
31.5324
0.000166769
31.1453
0.000166887
30.7601
0.000167005
30.377
0.000167126
29.9959
0.000167246
29.6169
0.000167367
29.2401
0.000167489
28.8653
0.00016761
28.4928
0.00016773
28.1224
0.00016785
27.7543
0.000167968
27.3884
0.000168085
27.0249
0.000168203
26.6637
0.000168322
26.3048
0.000168451
25.9483
0.000168582
25.5942
0.000168707
25.2425
0.000168818
24.8933
0.000168927
24.5466
0.00016904
24.2024
0.000169153
23.8606
0.000169266
23.5214
0.000169374
23.1848
0.000169481
22.8507
0.000169585
22.5193
0.000169684
22.1904
0.000169798
21.8642
0.000169919
21.5406
0.000170056
21.2197
0.000170201
20.9015
0.000170349
20.5859
0.000170482
20.273
0.00017061
19.9629
0.000170729
19.6554
0.000170832
19.3506
0.000170933
19.0486
0.000171032
18.7493
0.000171132
18.4528
0.000171237
18.159
0.000171347
17.8679
0.000171457
17.5797
0.00017156
17.2942
0.000171647
17.0115
0.000171718
16.7315
0.00017179
16.4544
0.000171874
16.18
0.00017196
15.9084
0.000172046
15.6396
0.000172135
15.3736
0.000172228
15.1104
0.000172305
14.8499
0.000172339
14.5922
0.000172314
14.3373
0.000172224
14.0852
0.000172067
13.8358
0.00017183
13.5892
0.000171486
13.3454
0.000171005
13.1043
0.000170368
12.866
0.000169562
12.6305
0.000168582
12.3977
0.000167413
12.1676
0.000166028
11.9402
0.000164386
11.7156
0.000162445
11.4937
0.000160162
11.2746
0.000157501
11.0581
0.000154436
10.8443
0.000150949
10.6332
0.000147031
10.4247
0.000142684
10.219
0.000137918
10.0158
0.00013275
9.81537
0.000127204
9.61754
0.000121307
9.42233
0.000115096
9.22973
0.000108614
9.03974
0.000101911
8.85234
9.50447e-05
8.66753
8.80746e-05
8.48528
8.10635e-05
8.3056
7.40739e-05
8.12848
6.71684e-05
7.95388
6.04061e-05
7.78182
5.38431e-05
7.61228
4.75281e-05
7.44524
4.15066e-05
7.28069
3.58133e-05
7.11863
3.04765e-05
6.95904
2.55176e-05
6.8019
2.09467e-05
6.64721
1.67694e-05
6.49496
1.29836e-05
6.34512
9.57753e-06
6.19769
6.53769e-06
6.05265
3.88336e-06
5.90999
1.58553e-06
5.76969
-6.88376e-07
5.63174
-2.36711e-06
5.49613
-3.88617e-06
5.36283
-5.19249e-06
5.23184
-6.30352e-06
5.10313
-7.24142e-06
4.97671
-8.03004e-06
4.85254
-8.6901e-06
4.73061
-9.2392e-06
4.61091
-9.69667e-06
4.49343
-1.00769e-05
4.37815
-1.03954e-05
4.26505
-1.066e-05
4.15411
-1.0882e-05
4.04533
-1.10681e-05
3.93868
-1.12291e-05
3.83415
-1.13683e-05
3.73171
-1.14892e-05
3.63136
-1.15987e-05
3.53307
-1.16955e-05
3.43682
-1.17868e-05
3.34259
-1.18693e-05
3.25035
-1.1947e-05
3.1601
-1.20232e-05
3.0718
-1.2093e-05
2.98544
-1.2165e-05
2.90099
-1.22258e-05
2.81843
-1.23088e-05
2.73776
-1.23393e-05
2.65895
-1.24818e-05
2.58198
-1.23812e-05
2.50685
-1.27831e-05
2.43352
-1.21756e-05
2.36199
-1.35254e-05
2.29222
-1.12274e-05
2.22421
-1.54533e-05
2.15792
-8.5709e-06
2.09334
-1.96389e-05
2.03044
-3.32374e-06
1.96921
-2.65564e-05
1.9096
4.52097e-06
1.85163
-3.63116e-05
1.79522
1.67611e-05
1.74041
-5.00208e-05
1.68711
3.32679e-05
1.63538
-7.19774e-05
1.58509
5.71064e-05
1.53635
-9.27905e-05
1.48899
6.91842e-05
1.44314
-9.314e-05
1.39861
6.49949e-05
1.35553
-6.97882e-05
1.31372
9.13985e-05
1.27318
0.000141111
1.23351
0.000888554
1.19358
0.00339041
1.14914
0.0134394
1.08966
0.0422432
0.941055
0.254599
0.302222
0.795193
49.3813
4.54747e-13
48.9576
-4.54747e-13
48.5333
-1.36424e-12
48.1086
6.82121e-13
47.6835
-1.13687e-12
47.258
1.59162e-12
46.8321
-9.09495e-13
46.4062
0
45.98
-2.27374e-13
45.5537
4.54747e-13
45.1273
4.54747e-13
44.7011
-6.82121e-13
44.2753
-6.82121e-13
43.8497
-3.86535e-12
43.4242
-1.36424e-12
42.9993
-1.36424e-12
42.5748
-2.27374e-12
42.151
-2.04636e-12
41.7279
-1.59162e-12
41.3056
-2.04636e-12
40.8841
1.59162e-12
40.4634
-2.04636e-12
40.0437
-4.54747e-13
39.625
4.54747e-13
39.2073
-4.54747e-13
38.7908
-1.59162e-12
38.3753
-2.27374e-12
37.961
9.09495e-13
37.548
-4.54747e-13
37.1363
-1.81899e-12
36.7259
-1.36424e-12
36.3168
6.82121e-13
35.9092
-9.09495e-13
35.5031
0
35.0985
-9.09495e-13
34.6954
-9.09495e-13
34.294
-9.09495e-13
33.8942
-4.54747e-13
33.4961
9.09495e-13
33.0997
-4.54747e-13
32.7051
4.54747e-13
32.3123
-1.81899e-12
31.9214
-4.54747e-13
31.5323
1.36424e-12
31.1452
9.09495e-13
30.7601
4.54747e-13
30.377
1.36424e-12
29.9959
1.36424e-12
29.6169
4.54747e-13
29.24
9.09495e-13
28.8653
9.09495e-13
28.4927
-1.81899e-12
28.1224
-4.54747e-13
27.7543
-4.54747e-13
27.3884
-2.27374e-12
27.0249
-2.27374e-12
26.6636
-1.81899e-12
26.3048
9.09495e-13
25.9483
0
25.5942
-9.09495e-13
25.2425
-4.54747e-13
24.8933
-1.81899e-12
24.5466
-1.36424e-12
24.2023
-1.36424e-12
23.8606
-3.18323e-12
23.5214
-1.81899e-12
23.1848
1.36424e-12
22.8507
-4.54747e-13
22.5192
1.36424e-12
22.1904
4.54747e-13
21.8642
0
21.5406
9.09495e-13
21.2197
1.81899e-12
20.9015
4.54747e-13
20.5859
-9.09495e-13
20.273
-9.09495e-13
19.9628
4.54747e-13
19.6554
9.09495e-13
19.3506
-1.36424e-12
19.0486
-1.81899e-12
18.7493
-2.27374e-12
18.4527
-4.54747e-13
18.1589
-4.54747e-13
17.8679
-2.72848e-12
17.5797
-9.09495e-13
17.2942
-4.54747e-12
17.0115
3.63798e-12
16.7315
-4.54747e-12
16.4544
7.7307e-12
16.18
-7.7307e-12
15.9084
1.31877e-11
15.6396
-1.40972e-11
15.3736
1.22782e-11
15.1103
-1.09139e-11
14.8499
1.18234e-11
14.5922
-9.54969e-12
14.3373
3.18323e-12
14.0852
2.72848e-12
13.8358
-7.27596e-12
13.5892
1.04592e-11
13.3454
-1.00044e-11
13.1043
4.09273e-12
12.866
2.27374e-12
12.6304
-1.45519e-11
12.3976
1.31877e-11
12.1676
-1.18234e-11
11.9402
5.00222e-12
11.7156
4.54747e-12
11.4937
-1.00044e-11
11.2745
7.27596e-12
11.0581
-6.36646e-12
10.8443
9.09495e-12
10.6332
-1.13687e-11
10.4247
1.27329e-11
10.2189
-6.82121e-12
10.0158
1.36424e-12
9.81536
-1.36424e-12
9.61752
2.27374e-11
9.42231
-5.0477e-11
9.22971
7.95808e-11
9.03972
-9.82254e-11
8.85233
1.20508e-10
8.66751
-1.36424e-10
8.48527
1.57797e-10
8.30559
-1.7917e-10
8.12847
2.26464e-10
7.95388
-3.11047e-10
7.78181
3.89264e-10
7.61227
-3.64253e-10
7.44523
1.54159e-10
7.28069
2.1555e-10
7.11862
-4.90218e-10
6.95903
3.75167e-10
6.8019
1.24601e-10
6.64721
-5.72982e-10
6.49495
5.02041e-10
6.34512
9.68612e-11
6.19769
-6.10726e-10
6.05265
3.61069e-10
5.90999
3.69255e-10
5.76969
-6.09816e-10
5.63174
-1.68257e-11
5.49613
6.09816e-10
5.36283
-2.08729e-10
5.23184
-4.5975e-10
5.10313
1.628e-10
4.9767
5.41149e-10
4.85254
-4.24279e-10
4.73061
-2.90129e-10
4.61091
2.31466e-10
4.49343
6.8394e-10
4.37815
-8.06267e-10
4.26505
-1.30967e-10
4.15411
-2.46928e-10
4.04533
1.37152e-09
3.93868
-5.70253e-10
3.83415
-2.50566e-10
3.73171
-7.13953e-10
3.63136
5.88443e-10
3.53307
-1.15961e-10
3.43682
9.66793e-10
3.34259
-5.74346e-10
3.25035
2.15778e-09
3.1601
-4.57521e-09
3.0718
6.41694e-09
2.98544
-1.64405e-08
2.90099
3.26099e-08
2.81843
-6.2033e-08
2.73776
1.24479e-07
2.65895
-2.34753e-07
2.58198
4.36842e-07
2.50685
-7.96391e-07
2.43352
1.41368e-06
2.36199
-2.44661e-06
2.29222
4.09443e-06
2.22421
-6.61523e-06
2.15792
1.02144e-05
2.09334
-1.51412e-05
2.03043
2.12226e-05
1.96921
-2.9055e-05
1.90959
3.78052e-05
1.85163
-4.94467e-05
1.79521
6.39479e-05
1.74042
-7.75987e-05
1.6871
9.65076e-05
1.63539
-0.00011752
1.58508
0.000137102
1.53636
-0.00015115
1.48898
0.000157585
1.44315
-0.000155145
1.39861
0.000154307
1.35555
-0.000125219
1.31373
0.000183461
1.2733
0.000139958
1.23391
0.00118232
1.19506
0.0044015
1.15229
0.0196636
1.08691
0.0722732
0.856382
0.451013
0.618182
0.507462
49.3813
-0.000187682
48.9576
-0.000162477
48.5333
-0.000146787
48.1086
-0.000151491
47.6835
-0.000153983
47.258
-0.00015531
46.8321
-0.000156745
46.4062
-0.000158055
45.98
-0.000159172
45.5537
-0.000160128
45.1273
-0.00016094
44.7011
-0.000161623
44.2753
-0.000162179
43.8497
-0.000162713
43.4242
-0.000163043
42.9993
-0.000163354
42.5748
-0.000163611
42.151
-0.000163815
41.7279
-0.000163987
41.3056
-0.000164133
40.8841
-0.00016426
40.4634
-0.000164376
40.0437
-0.000164485
39.625
-0.000164589
39.2073
-0.00016469
38.7908
-0.000164789
38.3753
-0.000164889
37.961
-0.000164989
37.548
-0.000165091
37.1363
-0.000165194
36.7259
-0.000165299
36.3168
-0.000165406
35.9092
-0.000165512
35.5031
-0.000165621
35.0985
-0.000165732
34.6954
-0.000165843
34.294
-0.000165957
33.8942
-0.000166069
33.4961
-0.000166184
33.0997
-0.0001663
32.7051
-0.000166415
32.3123
-0.000166533
31.9214
-0.000166648
31.5323
-0.000166769
31.1452
-0.000166887
30.7601
-0.000167005
30.377
-0.000167126
29.9959
-0.000167246
29.6169
-0.000167367
29.24
-0.000167489
28.8653
-0.00016761
28.4927
-0.00016773
28.1224
-0.00016785
27.7543
-0.000167968
27.3884
-0.000168085
27.0249
-0.000168203
26.6636
-0.000168322
26.3048
-0.000168451
25.9483
-0.000168582
25.5942
-0.000168707
25.2425
-0.000168818
24.8933
-0.000168927
24.5466
-0.00016904
24.2023
-0.000169153
23.8606
-0.000169266
23.5214
-0.000169374
23.1848
-0.000169481
22.8507
-0.000169585
22.5192
-0.000169684
22.1904
-0.000169798
21.8642
-0.000169919
21.5406
-0.000170056
21.2197
-0.000170201
20.9015
-0.000170349
20.5859
-0.000170482
20.273
-0.00017061
19.9628
-0.000170729
19.6554
-0.000170832
19.3506
-0.000170933
19.0486
-0.000171032
18.7493
-0.000171132
18.4527
-0.000171237
18.1589
-0.000171347
17.8679
-0.000171457
17.5797
-0.00017156
17.2942
-0.000171647
17.0115
-0.000171718
16.7315
-0.00017179
16.4544
-0.000171874
16.18
-0.00017196
15.9084
-0.000172046
15.6396
-0.000172135
15.3736
-0.000172228
15.1103
-0.000172305
14.8499
-0.000172339
14.5922
-0.000172314
14.3373
-0.000172224
14.0852
-0.000172067
13.8358
-0.00017183
13.5892
-0.000171486
13.3454
-0.000171005
13.1043
-0.000170368
12.866
-0.000169562
12.6304
-0.000168582
12.3976
-0.000167413
12.1676
-0.000166028
11.9402
-0.000164386
11.7156
-0.000162445
11.4937
-0.000160162
11.2745
-0.000157501
11.0581
-0.000154436
10.8443
-0.000150949
10.6332
-0.000147031
10.4247
-0.000142684
10.2189
-0.000137918
10.0158
-0.00013275
9.81536
-0.000127204
9.61752
-0.000121307
9.42231
-0.000115096
9.22971
-0.000108613
9.03972
-0.000101911
8.85233
-9.50446e-05
8.66751
-8.80747e-05
8.48527
-8.10635e-05
8.30559
-7.4074e-05
8.12847
-6.71682e-05
7.95388
-6.04065e-05
7.78181
-5.38426e-05
7.61227
-4.75286e-05
7.44523
-4.15064e-05
7.28069
-3.5813e-05
7.11862
-3.04772e-05
6.95903
-2.5517e-05
6.8019
-2.09466e-05
6.64721
-1.677e-05
6.49495
-1.2983e-05
6.34512
-9.57731e-06
6.19769
-6.53855e-06
6.05265
-3.88299e-06
5.90999
-1.5848e-06
5.76969
6.87379e-07
5.63174
2.36707e-06
5.49613
3.88708e-06
5.36283
5.19226e-06
5.23184
6.30268e-06
5.10313
7.24181e-06
4.9767
8.03073e-06
4.85254
8.68955e-06
4.73061
9.23875e-06
4.61091
9.697e-06
4.49343
1.00777e-05
4.37815
1.03946e-05
4.26505
1.06594e-05
4.15411
1.0882e-05
4.04533
1.10697e-05
3.93868
1.1229e-05
3.83415
1.13672e-05
3.73171
1.14886e-05
3.63136
1.15988e-05
3.53307
1.16961e-05
3.43682
1.17882e-05
3.34259
1.1869e-05
3.25035
1.19493e-05
3.1601
1.20168e-05
3.0718
1.21003e-05
2.98544
1.21468e-05
2.90099
1.22635e-05
2.81843
1.22396e-05
2.73776
1.24781e-05
2.65895
1.22178e-05
2.58198
1.28765e-05
2.50685
1.18689e-05
2.43352
1.38369e-05
2.36199
1.05663e-05
2.29222
1.63569e-05
2.22421
6.76251e-06
2.15792
2.26073e-05
2.09334
-2.29453e-06
2.03044
3.55008e-05
1.9692
-1.92992e-05
1.9096
5.4964e-05
1.85162
-4.22826e-05
1.79523
7.7178e-05
1.7404
-5.66704e-05
1.68714
8.65124e-05
1.63534
-5.90678e-05
1.58514
9.12095e-05
1.53631
-6.94555e-05
1.48904
0.000104642
1.44311
-8.68661e-05
1.39865
0.000128137
1.35553
-0.000103265
1.31377
0.000199062
1.27342
7.88277e-05
1.23446
0.00104294
1.19745
0.00357302
1.16501
0.0155395
1.1501
0.0518552
1.2079
0.359088
0.409325
1.38382
49.3813
-0.000406434
48.9576
-0.000312043
48.5333
-0.000296244
48.1086
-0.000304027
47.6836
-0.000307548
47.258
-0.000310577
46.8321
-0.000313563
46.4062
-0.000316172
45.9801
-0.000318413
45.5537
-0.000320329
45.1273
-0.000321952
44.7012
-0.000323318
44.2754
-0.000324377
43.8498
-0.000325524
43.4243
-0.000326131
42.9993
-0.000326761
42.5749
-0.000327267
42.1511
-0.000327674
41.728
-0.000328015
41.3056
-0.000328306
40.8841
-0.000328559
40.4635
-0.00032879
40.0438
-0.000329006
39.625
-0.000329213
39.2074
-0.000329414
38.7908
-0.000329614
38.3753
-0.000329813
37.9611
-0.000330015
37.548
-0.000330218
37.1363
-0.000330423
36.7259
-0.000330632
36.3169
-0.000330843
35.9092
-0.000331057
35.5031
-0.000331273
35.0985
-0.000331493
34.6954
-0.000331715
34.294
-0.000331943
33.8942
-0.000332167
33.4961
-0.000332396
33.0997
-0.000332628
32.7051
-0.000332856
32.3123
-0.000333092
31.9214
-0.000333321
31.5324
-0.000333562
31.1453
-0.000333796
30.7601
-0.00033403
30.377
-0.000334274
29.9959
-0.00033451
29.6169
-0.000334752
29.2401
-0.000334995
28.8653
-0.000335236
28.4928
-0.000335478
28.1224
-0.000335713
27.7543
-0.000335947
27.3884
-0.000336179
27.0249
-0.000336413
26.6637
-0.000336654
26.3048
-0.000336916
25.9483
-0.000337182
25.5942
-0.000337429
25.2425
-0.000337645
24.8933
-0.000337859
24.5466
-0.000338076
24.2024
-0.0003383
23.8606
-0.000338527
23.5214
-0.000338745
23.1848
-0.000338967
22.8507
-0.000339176
22.5193
-0.000339371
22.1904
-0.000339595
21.8642
-0.000339831
21.5406
-0.000340106
21.2197
-0.000340395
20.9015
-0.000340695
20.5859
-0.000340959
20.273
-0.000341215
19.9629
-0.000341451
19.6554
-0.000341653
19.3506
-0.000341854
19.0486
-0.000342053
18.7493
-0.000342252
18.4528
-0.000342464
18.159
-0.000342684
17.8679
-0.000342903
17.5797
-0.000343108
17.2942
-0.000343276
17.0115
-0.000343415
16.7315
-0.000343558
16.4544
-0.000343723
16.18
-0.000343895
15.9084
-0.000344059
15.6396
-0.000344233
15.3736
-0.000344419
15.1104
-0.000344577
14.8499
-0.000344648
14.5922
-0.000344592
14.3373
-0.000344403
14.0852
-0.000344079
13.8358
-0.000343596
13.5892
-0.000342898
13.3454
-0.000341926
13.1043
-0.000340634
12.866
-0.000339004
12.6305
-0.00033702
12.3977
-0.000334656
12.1676
-0.000331856
11.9402
-0.00032854
11.7156
-0.000324622
11.4937
-0.000320016
11.2746
-0.000314652
11.0581
-0.000308475
10.8443
-0.000301451
10.6332
-0.000293563
10.4247
-0.000284817
10.219
-0.000275235
10.0158
-0.000264852
9.81537
-0.000253713
9.61754
-0.000241877
9.42233
-0.000229417
9.22973
-0.00021642
9.03974
-0.00020299
8.85234
-0.00018924
8.66753
-0.000175291
8.48528
-0.000161266
8.3056
-0.000147292
8.12848
-0.000133493
7.95388
-0.000119987
7.78182
-0.000106885
7.61228
-9.42872e-05
7.44524
-8.22787e-05
7.28069
-7.09322e-05
7.11863
-6.03025e-05
6.95904
-5.04294e-05
6.8019
-4.13353e-05
6.64721
-3.30293e-05
6.49496
-2.5504e-05
6.34512
-1.87387e-05
6.19769
-1.26981e-05
6.05265
-7.35575e-06
5.90999
-2.66318e-06
5.76969
1.31598e-06
5.63174
4.9114e-06
5.49613
7.95303e-06
5.36283
1.05424e-05
5.23184
1.27408e-05
5.10313
1.45962e-05
4.97671
1.61545e-05
4.85254
1.74561e-05
4.73061
1.8541e-05
4.61091
1.94438e-05
4.49343
2.01954e-05
4.37815
2.08218e-05
4.26505
2.1345e-05
4.15411
2.17836e-05
4.04533
2.21534e-05
3.93868
2.247e-05
3.83415
2.27436e-05
3.73171
2.29859e-05
3.63136
2.32017e-05
3.53307
2.33971e-05
3.43682
2.35759e-05
3.34259
2.37409e-05
3.25035
2.3898e-05
3.1601
2.40424e-05
3.0718
2.41922e-05
2.98544
2.43161e-05
2.90099
2.4483e-05
2.81843
2.45592e-05
2.73776
2.48006e-05
2.65895
2.47255e-05
2.58198
2.52197e-05
2.50684
2.47136e-05
2.43352
2.59082e-05
2.36199
2.42946e-05
2.29223
2.71786e-05
2.22421
2.30489e-05
2.15793
2.95535e-05
2.09333
2.03632e-05
2.03045
3.36525e-05
1.96919
1.5431e-05
1.90962
3.96855e-05
1.8516
8.80854e-06
1.79525
4.68469e-05
1.74039
3.61597e-06
1.68714
5.14029e-05
1.63535
1.34957e-06
1.58513
5.4761e-05
1.53631
-2.14954e-06
1.48904
5.83756e-05
1.44309
-5.60393e-06
1.39867
6.35872e-05
1.3555
-7.1685e-06
1.31385
8.72646e-05
1.27346
6.45803e-05
1.23497
0.000413054
1.19928
0.00144954
1.17144
0.00680643
1.16462
0.0233544
1.21484
0.274734
0.353474
1.23778
11.1869
-0.000465382
11.0909
-0.000340854
10.9948
-0.000331829
10.8986
-0.000338632
10.8023
-0.000342428
10.7059
-0.000345924
10.6094
-0.000349214
10.5129
-0.000352086
10.4164
-0.000354571
10.3198
-0.000356695
10.2232
-0.000358492
10.1267
-0.000360006
10.0302
-0.000361152
9.93377
-0.000362464
9.83738
-0.00036311
9.74111
-0.000363812
9.64496
-0.000364368
9.54895
-0.000364819
9.4531
-0.000365195
9.35742
-0.000365516
9.26193
-0.000365797
9.16664
-0.000366053
9.07156
-0.000366291
8.9767
-0.000366521
8.88208
-0.000366743
8.78771
-0.000366966
8.69359
-0.000367186
8.59974
-0.000367411
8.50618
-0.000367637
8.4129
-0.000367864
8.31992
-0.000368097
8.22726
-0.00036833
8.13492
-0.000368569
8.04292
-0.000368809
7.95125
-0.000369053
7.85995