/*--------------------------------*- C++ -*----------------------------------*\
| =========                 |                                                 |
| \\      /  F ield         | OpenFOAM: The Open Source CFD Toolbox           |
|  \\    /   O peration     | Version:  3.0.x                                 |
|   \\  /    A nd           | Web:      www.OpenFOAM.org                      |
|    \\/     M anipulation  |                                                 |
\*---------------------------------------------------------------------------*/
FoamFile
{
    version     2.0;
    format      ascii;
    class       volScalarField;
    location    "0.569975";
    object      rho;
}
// * * * * * * * * * * * * * * * * * * * * * * * * * * * * * * * * * * * * * //

dimensions      [1 -3 0 0 0 0 0];

internalField   nonuniform List<scalar> 
13800
(
53.7604
53.7664
53.7755
53.7843
53.7927
53.8007
53.8083
53.8158
53.8232
53.8303
53.837
53.8436
53.8503
53.8569
53.8633
53.8696
53.876
53.8823
53.8888
53.8954
53.902
53.9088
53.9157
53.9228
53.9299
53.9372
53.9445
53.952
53.9596
53.9673
53.9751
53.9829
53.9909
53.999
54.0071
54.0154
54.0237
54.0321
54.0405
54.0491
54.0577
54.0663
54.0751
54.0838
54.0927
54.1016
54.1105
54.1195
54.1285
54.1376
54.1467
54.1559
54.1651
54.1743
54.1835
54.1928
54.202
54.2113
54.2207
54.23
54.2393
54.2487
54.258
54.2674
54.2767
54.2861
54.2954
54.3047
54.314
54.3234
54.3327
54.3421
54.3514
54.3608
54.3701
54.3793
54.3886
54.3978
54.4069
54.4161
54.4252
54.4342
54.4433
54.4523
54.4613
54.4702
54.4791
54.488
54.4968
54.5057
54.5145
54.5232
54.5319
54.5406
54.5493
54.5578
54.5663
54.5748
54.5832
54.5915
54.5998
54.608
54.6161
54.6242
54.6323
54.6403
54.6483
54.6563
54.6642
54.672
54.6798
54.6875
54.6951
54.7027
54.7102
54.7177
54.7251
54.7324
54.7397
54.7469
54.7541
54.7612
54.7682
54.7752
54.7821
54.7889
54.7957
54.8024
54.8091
54.8157
54.8222
54.8287
54.8351
54.8414
54.8477
54.854
54.8601
54.8662
54.8723
54.8782
54.8841
54.89
54.8958
54.9015
54.9072
54.9128
54.9183
54.9238
54.9292
54.9345
54.9398
54.945
54.9502
54.9553
54.9603
54.9652
54.9701
54.975
54.9797
54.9844
54.9891
54.9937
54.9982
55.0026
55.007
55.0113
55.0156
55.0198
55.0239
55.028
55.032
55.0359
55.0398
55.0436
55.0473
55.051
55.0546
55.0581
55.0617
55.0649
55.0685
55.0715
55.075
55.0778
55.0813
55.0838
55.0873
55.0896
55.0931
55.0951
55.0985
55.1004
55.1037
55.1055
55.1086
55.1104
55.1131
55.1156
55.1166
55.1197
53.7615
53.7675
53.7767
53.7855
53.7939
53.8018
53.8094
53.8169
53.8243
53.8314
53.8381
53.8447
53.8514
53.858
53.8645
53.8707
53.8771
53.8835
53.8899
53.8965
53.9031
53.9099
53.9168
53.9239
53.931
53.9383
53.9456
53.9531
53.9607
53.9683
53.9761
53.984
53.992
54
54.0082
54.0164
54.0247
54.0331
54.0416
54.0501
54.0587
54.0673
54.0761
54.0848
54.0937
54.1026
54.1115
54.1205
54.1295
54.1386
54.1477
54.1569
54.166
54.1752
54.1845
54.1937
54.203
54.2123
54.2216
54.231
54.2403
54.2496
54.259
54.2683
54.2777
54.287
54.2963
54.3056
54.315
54.3243
54.3336
54.343
54.3523
54.3616
54.3709
54.3802
54.3895
54.3987
54.4078
54.4169
54.426
54.4351
54.4441
54.4531
54.4621
54.4711
54.48
54.4888
54.4977
54.5065
54.5153
54.524
54.5327
54.5414
54.55
54.5586
54.5671
54.5756
54.584
54.5923
54.6005
54.6087
54.6169
54.625
54.633
54.6411
54.6491
54.657
54.6649
54.6727
54.6805
54.6882
54.6958
54.7034
54.7109
54.7184
54.7258
54.7331
54.7404
54.7476
54.7547
54.7618
54.7689
54.7758
54.7827
54.7896
54.7964
54.8031
54.8097
54.8163
54.8229
54.8294
54.8358
54.8421
54.8484
54.8546
54.8608
54.8669
54.8729
54.8789
54.8848
54.8907
54.8965
54.9022
54.9078
54.9134
54.919
54.9244
54.9299
54.9352
54.9405
54.9457
54.9508
54.9559
54.961
54.9659
54.9708
54.9756
54.9804
54.9851
54.9898
54.9943
54.9988
55.0033
55.0077
55.012
55.0162
55.0204
55.0246
55.0286
55.0326
55.0366
55.0404
55.0442
55.048
55.0516
55.0553
55.0587
55.0623
55.0656
55.0691
55.0721
55.0757
55.0784
55.082
55.0844
55.088
55.0902
55.0937
55.0958
55.0992
55.1011
55.1043
55.1061
55.1093
55.111
55.114
55.1155
55.1183
55.1196
53.7615
53.7675
53.7767
53.7855
53.7939
53.8018
53.8094
53.8169
53.8244
53.8314
53.8381
53.8447
53.8514
53.858
53.8645
53.8707
53.8771
53.8835
53.8899
53.8965
53.9031
53.9099
53.9168
53.9239
53.931
53.9383
53.9456
53.9531
53.9607
53.9683
53.9761
53.984
53.992
54
54.0082
54.0164
54.0247
54.0331
54.0416
54.0501
54.0587
54.0673
54.0761
54.0848
54.0937
54.1026
54.1115
54.1205
54.1295
54.1386
54.1477
54.1569
54.166
54.1752
54.1845
54.1937
54.203
54.2123
54.2216
54.231
54.2403
54.2496
54.259
54.2683
54.2777
54.287
54.2963
54.3056
54.315
54.3243
54.3336
54.343
54.3523
54.3616
54.371
54.3802
54.3895
54.3987
54.4078
54.4169
54.426
54.4351
54.4441
54.4531
54.4621
54.4711
54.48
54.4888
54.4977
54.5065
54.5153
54.524
54.5327
54.5414
54.55
54.5586
54.5671
54.5756
54.584
54.5923
54.6005
54.6087
54.6169
54.625
54.633
54.6411
54.6491
54.657
54.6649
54.6727
54.6805
54.6882
54.6959
54.7034
54.7109
54.7184
54.7258
54.7331
54.7404
54.7476
54.7547
54.7618
54.7689
54.7758
54.7827
54.7896
54.7964
54.8031
54.8097
54.8163
54.8229
54.8294
54.8358
54.8421
54.8484
54.8546
54.8608
54.8669
54.8729
54.8789
54.8848
54.8907
54.8965
54.9022
54.9078
54.9134
54.919
54.9244
54.9299
54.9352
54.9405
54.9457
54.9508
54.9559
54.961
54.9659
54.9708
54.9756
54.9804
54.9851
54.9898
54.9943
54.9988
55.0033
55.0077
55.012
55.0162
55.0204
55.0246
55.0286
55.0326
55.0366
55.0404
55.0442
55.048
55.0516
55.0553
55.0587
55.0623
55.0656
55.0692
55.0721
55.0757
55.0784
55.082
55.0844
55.088
55.0902
55.0937
55.0958
55.0992
55.1011
55.1044
55.1062
55.1093
55.111
55.114
55.1155
55.1183
55.1198
53.7615
53.7675
53.7767
53.7855
53.7939
53.8018
53.8094
53.8169
53.8243
53.8314
53.8381
53.8447
53.8514
53.858
53.8644
53.8707
53.8771
53.8834
53.8899
53.8965
53.9031
53.9099
53.9168
53.9239
53.931
53.9382
53.9456
53.9531
53.9607
53.9683
53.9761
53.984
53.992
54
54.0082
54.0164
54.0247
54.0331
54.0415
54.0501
54.0587
54.0673
54.0761
54.0848
54.0937
54.1026
54.1115
54.1205
54.1295
54.1386
54.1477
54.1569
54.166
54.1752
54.1845
54.1937
54.203
54.2123
54.2216
54.2309
54.2403
54.2496
54.259
54.2683
54.2777
54.287
54.2963
54.3056
54.315
54.3243
54.3336
54.343
54.3523
54.3616
54.3709
54.3802
54.3895
54.3987
54.4078
54.4169
54.426
54.4351
54.4441
54.4531
54.4621
54.4711
54.48
54.4888
54.4977
54.5065
54.5153
54.524
54.5327
54.5414
54.55
54.5586
54.5671
54.5756
54.584
54.5923
54.6005
54.6087
54.6169
54.625
54.633
54.6411
54.6491
54.657
54.6649
54.6727
54.6805
54.6882
54.6959
54.7034
54.7109
54.7184
54.7258
54.7331
54.7404
54.7476
54.7547
54.7618
54.7689
54.7758
54.7827
54.7896
54.7964
54.8031
54.8097
54.8163
54.8229
54.8294
54.8358
54.8421
54.8484
54.8546
54.8608
54.8669
54.8729
54.8789
54.8848
54.8907
54.8965
54.9022
54.9078
54.9134
54.919
54.9244
54.9299
54.9352
54.9405
54.9457
54.9508
54.9559
54.961
54.9659
54.9708
54.9756
54.9804
54.9851
54.9898
54.9943
54.9988
55.0033
55.0077
55.012
55.0162
55.0204
55.0246
55.0286
55.0326
55.0366
55.0404
55.0442
55.048
55.0516
55.0553
55.0587
55.0623
55.0656
55.0691
55.0721
55.0757
55.0784
55.082
55.0844
55.088
55.0902
55.0937
55.0958
55.0992
55.1011
55.1044
55.1062
55.1093
55.111
55.114
55.1156
55.1183
55.1201
53.7615
53.7675
53.7767
53.7855
53.7939
53.8018
53.8094
53.8169
53.8243
53.8314
53.8381
53.8447
53.8514
53.858
53.8644
53.8707
53.8771
53.8834
53.8899
53.8965
53.9031
53.9099
53.9168
53.9239
53.931
53.9382
53.9456
53.9531
53.9607
53.9683
53.9761
53.984
53.992
54
54.0082
54.0164
54.0247
54.0331
54.0415
54.0501
54.0587
54.0673
54.0761
54.0848
54.0937
54.1026
54.1115
54.1205
54.1295
54.1386
54.1477
54.1569
54.166
54.1752
54.1845
54.1937
54.203
54.2123
54.2216
54.2309
54.2403
54.2496
54.259
54.2683
54.2777
54.287
54.2963
54.3056
54.3149
54.3243
54.3336
54.343
54.3523
54.3616
54.3709
54.3802
54.3895
54.3986
54.4078
54.4169
54.426
54.4351
54.4441
54.4531
54.4621
54.4711
54.48
54.4888
54.4976
54.5065
54.5153
54.524
54.5327
54.5414
54.55
54.5586
54.5671
54.5756
54.584
54.5923
54.6005
54.6087
54.6169
54.625
54.633
54.6411
54.6491
54.657
54.6649
54.6727
54.6805
54.6882
54.6959
54.7034
54.7109
54.7184
54.7258
54.7331
54.7404
54.7476
54.7547
54.7618
54.7689
54.7758
54.7827
54.7896
54.7964
54.8031
54.8097
54.8163
54.8229
54.8294
54.8358
54.8421
54.8484
54.8546
54.8608
54.8669
54.8729
54.8789
54.8848
54.8907
54.8965
54.9022
54.9078
54.9134
54.919
54.9244
54.9299
54.9352
54.9405
54.9457
54.9508
54.9559
54.961
54.9659
54.9708
54.9756
54.9804
54.9851
54.9898
54.9943
54.9988
55.0033
55.0077
55.012
55.0162
55.0204
55.0246
55.0286
55.0326
55.0366
55.0404
55.0442
55.048
55.0516
55.0553
55.0587
55.0623
55.0656
55.0691
55.0721
55.0757
55.0784
55.082
55.0844
55.088
55.0902
55.0937
55.0958
55.0992
55.1011
55.1044
55.1062
55.1093
55.111
55.114
55.1155
55.1184
55.1198
53.7615
53.7675
53.7767
53.7855
53.7939
53.8018
53.8094
53.8169
53.8243
53.8314
53.8381
53.8447
53.8514
53.858
53.8644
53.8707
53.8771
53.8834
53.8899
53.8965
53.9031
53.9099
53.9168
53.9239
53.931
53.9382
53.9456
53.9531
53.9607
53.9683
53.9761
53.984
53.992
54
54.0082
54.0164
54.0247
54.0331
54.0415
54.0501
54.0587
54.0673
54.0761
54.0848
54.0937
54.1026
54.1115
54.1205
54.1295
54.1386
54.1477
54.1569
54.166
54.1752
54.1845
54.1937
54.203
54.2123
54.2216
54.2309
54.2403
54.2496
54.259
54.2683
54.2777
54.287
54.2963
54.3056
54.3149
54.3243
54.3336
54.343
54.3523
54.3616
54.3709
54.3802
54.3895
54.3986
54.4078
54.4169
54.426
54.4351
54.4441
54.4531
54.4621
54.4711
54.48
54.4888
54.4976
54.5065
54.5153
54.524
54.5327
54.5414
54.55
54.5586
54.5671
54.5756
54.584
54.5923
54.6005
54.6087
54.6169
54.625
54.633
54.6411
54.6491
54.657
54.6649
54.6727
54.6805
54.6882
54.6959
54.7034
54.7109
54.7184
54.7258
54.7331
54.7404
54.7476
54.7547
54.7618
54.7689
54.7758
54.7827
54.7896
54.7964
54.8031
54.8097
54.8163
54.8229
54.8294
54.8358
54.8421
54.8484
54.8546
54.8608
54.8669
54.8729
54.8789
54.8848
54.8907
54.8965
54.9022
54.9078
54.9134
54.919
54.9244
54.9299
54.9352
54.9405
54.9457
54.9508
54.9559
54.961
54.9659
54.9708
54.9756
54.9804
54.9851
54.9898
54.9943
54.9988
55.0033
55.0077
55.012
55.0162
55.0204
55.0246
55.0286
55.0326
55.0366
55.0404
55.0442
55.048
55.0516
55.0553
55.0588
55.0623
55.0657
55.069
55.0723
55.0755
55.0787
55.0816
55.085
55.0874
55.0909
55.0931
55.0964
55.0987
55.1015
55.1041
55.1063
55.1092
55.1112
55.1136
55.116
55.1181
55.1202
53.7615
53.7675
53.7767
53.7855
53.7939
53.8018
53.8094
53.8169
53.8243
53.8314
53.8381
53.8447
53.8514
53.858
53.8644
53.8707
53.8771
53.8834
53.8899
53.8965
53.9031
53.9099
53.9168
53.9239
53.931
53.9382
53.9456
53.9531
53.9607
53.9683
53.9761
53.984
53.992
54
54.0082
54.0164
54.0247
54.0331
54.0415
54.0501
54.0587
54.0673
54.0761
54.0848
54.0937
54.1026
54.1115
54.1205
54.1295
54.1386
54.1477
54.1569
54.166
54.1752
54.1845
54.1937
54.203
54.2123
54.2216
54.2309
54.2403
54.2496
54.259
54.2683
54.2777
54.287
54.2963
54.3056
54.315
54.3243
54.3336
54.343
54.3523
54.3616
54.3709
54.3802
54.3895
54.3987
54.4078
54.4169
54.426
54.4351
54.4441
54.4531
54.4621
54.4711
54.48
54.4888
54.4977
54.5065
54.5153
54.524
54.5327
54.5414
54.55
54.5586
54.5671
54.5756
54.584
54.5923
54.6005
54.6087
54.6169
54.625
54.633
54.6411
54.6491
54.657
54.6649
54.6727
54.6805
54.6882
54.6959
54.7034
54.7109
54.7184
54.7258
54.7331
54.7404
54.7476
54.7547
54.7618
54.7689
54.7758
54.7827
54.7896
54.7964
54.8031
54.8097
54.8163
54.8229
54.8294
54.8358
54.8421
54.8484
54.8546
54.8608
54.8669
54.8729
54.8789
54.8848
54.8907
54.8965
54.9022
54.9078
54.9134
54.919
54.9244
54.9299
54.9352
54.9405
54.9457
54.9508
54.9559
54.961
54.9659
54.9708
54.9756
54.9804
54.9851
54.9898
54.9943
54.9988
55.0033
55.0077
55.012
55.0162
55.0204
55.0246
55.0286
55.0326
55.0366
55.0404
55.0442
55.048
55.0517
55.0552
55.0589
55.0622
55.0658
55.0688
55.0725
55.0753
55.0789
55.0814
55.085
55.0874
55.0909
55.093
55.0965
55.0985
55.1018
55.1036
55.1068
55.1086
55.1117
55.1133
55.1162
55.118
55.1203
53.7615
53.7675
53.7767
53.7855
53.7939
53.8018
53.8094
53.8169
53.8244
53.8314
53.8381
53.8447
53.8514
53.858
53.8645
53.8707
53.8771
53.8835
53.8899
53.8965
53.9031
53.9099
53.9168
53.9239
53.931
53.9383
53.9456
53.9531
53.9607
53.9683
53.9761
53.984
53.992
54
54.0082
54.0164
54.0247
54.0331
54.0416
54.0501
54.0587
54.0673
54.0761
54.0848
54.0937
54.1026
54.1115
54.1205
54.1295
54.1386
54.1477
54.1569
54.166
54.1752
54.1845
54.1937
54.203
54.2123
54.2216
54.231
54.2403
54.2496
54.259
54.2683
54.2777
54.287
54.2963
54.3056
54.315
54.3243
54.3336
54.343
54.3523
54.3616
54.371
54.3802
54.3895
54.3987
54.4078
54.4169
54.426
54.4351
54.4441
54.4531
54.4621
54.4711
54.48
54.4888
54.4977
54.5065
54.5153
54.524
54.5327
54.5414
54.55
54.5586
54.5671
54.5756
54.584
54.5923
54.6005
54.6087
54.6169
54.625
54.633
54.6411
54.6491
54.657
54.6649
54.6727
54.6805
54.6882
54.6959
54.7034
54.7109
54.7184
54.7258
54.7331
54.7404
54.7476
54.7547
54.7618
54.7689
54.7758
54.7827
54.7896
54.7964
54.8031
54.8097
54.8163
54.8229
54.8294
54.8358
54.8421
54.8484
54.8546
54.8608
54.8669
54.8729
54.8789
54.8848
54.8907
54.8965
54.9022
54.9078
54.9134
54.919
54.9244
54.9299
54.9352
54.9405
54.9457
54.9508
54.9559
54.961
54.9659
54.9708
54.9756
54.9804
54.9851
54.9898
54.9943
54.9988
55.0033
55.0077
55.012
55.0162
55.0204
55.0246
55.0286
55.0326
55.0366
55.0404
55.0442
55.048
55.0517
55.0552
55.0589
55.0622
55.0658
55.0688
55.0725
55.0752
55.0789
55.0814
55.085
55.0873
55.0909
55.093
55.0965
55.0985
55.1018
55.1036
55.1068
55.1086
55.1117
55.1132
55.1162
55.1175
55.1202
53.7615
53.7675
53.7767
53.7855
53.7939
53.8018
53.8094
53.8169
53.8243
53.8314
53.8381
53.8447
53.8514
53.858
53.8645
53.8707
53.8771
53.8835
53.8899
53.8965
53.9031
53.9099
53.9168
53.9239
53.931
53.9383
53.9456
53.9531
53.9607
53.9683
53.9761
53.984
53.992
54
54.0082
54.0164
54.0247
54.0331
54.0416
54.0501
54.0587
54.0673
54.0761
54.0848
54.0937
54.1026
54.1115
54.1205
54.1295
54.1386
54.1477
54.1569
54.166
54.1752
54.1845
54.1937
54.203
54.2123
54.2216
54.231
54.2403
54.2496
54.259
54.2683
54.2777
54.287
54.2963
54.3056
54.315
54.3243
54.3336
54.343
54.3523
54.3616
54.3709
54.3802
54.3895
54.3987
54.4078
54.4169
54.426
54.4351
54.4441
54.4531
54.4621
54.4711
54.48
54.4888
54.4977
54.5065
54.5153
54.524
54.5327
54.5414
54.55
54.5586
54.5671
54.5756
54.584
54.5923
54.6005
54.6087
54.6169
54.625
54.633
54.6411
54.6491
54.657
54.6649
54.6727
54.6805
54.6882
54.6958
54.7034
54.7109
54.7184
54.7258
54.7331
54.7404
54.7476
54.7547
54.7618
54.7689
54.7758
54.7827
54.7896
54.7964
54.8031
54.8097
54.8163
54.8229
54.8294
54.8358
54.8421
54.8484
54.8546
54.8608
54.8669
54.8729
54.8789
54.8848
54.8907
54.8965
54.9022
54.9078
54.9134
54.919
54.9244
54.9299
54.9352
54.9405
54.9457
54.9508
54.9559
54.961
54.9659
54.9708
54.9756
54.9804
54.9851
54.9898
54.9943
54.9988
55.0033
55.0077
55.012
55.0162
55.0204
55.0246
55.0286
55.0326
55.0366
55.0404
55.0442
55.048
55.0517
55.0552
55.0589
55.0622
55.0658
55.0688
55.0725
55.0752
55.0789
55.0814
55.085
55.0873
55.0909
55.093
55.0965
55.0985
55.1018
55.1036
55.1068
55.1086
55.1117
55.1132
55.1163
55.1174
55.1198
53.7604
53.7664
53.7755
53.7843
53.7927
53.8007
53.8083
53.8158
53.8232
53.8303
53.837
53.8436
53.8503
53.8569
53.8633
53.8696
53.876
53.8823
53.8888
53.8954
53.902
53.9088
53.9157
53.9228
53.9299
53.9372
53.9445
53.952
53.9596
53.9673
53.9751
53.9829
53.9909
53.999
54.0071
54.0154
54.0237
54.0321
54.0405
54.0491
54.0577
54.0663
54.0751
54.0838
54.0927
54.1016
54.1105
54.1195
54.1285
54.1376
54.1467
54.1559
54.1651
54.1743
54.1835
54.1928
54.202
54.2113
54.2207
54.23
54.2393
54.2487
54.258
54.2674
54.2767
54.2861
54.2954
54.3047
54.314
54.3234
54.3327
54.3421
54.3514
54.3608
54.3701
54.3793
54.3886
54.3978
54.4069
54.4161
54.4252
54.4342
54.4433
54.4523
54.4613
54.4702
54.4791
54.488
54.4968
54.5057
54.5145
54.5232
54.5319
54.5406
54.5493
54.5578
54.5663
54.5748
54.5832
54.5915
54.5998
54.608
54.6161
54.6242
54.6323
54.6403
54.6483
54.6563
54.6642
54.672
54.6798
54.6875
54.6951
54.7027
54.7102
54.7177
54.7251
54.7324
54.7397
54.7469
54.7541
54.7612
54.7682
54.7752
54.7821
54.7889
54.7957
54.8024
54.8091
54.8157
54.8222
54.8287
54.8351
54.8414
54.8477
54.854
54.8601
54.8662
54.8723
54.8782
54.8841
54.89
54.8958
54.9015
54.9072
54.9128
54.9183
54.9238
54.9292
54.9345
54.9398
54.945
54.9502
54.9553
54.9603
54.9652
54.9701
54.975
54.9797
54.9844
54.9891
54.9937
54.9982
55.0026
55.007
55.0113
55.0156
55.0198
55.0239
55.028
55.032
55.0359
55.0398
55.0436
55.0473
55.051
55.0545
55.0582
55.0615
55.0651
55.0682
55.0718
55.0746
55.0783
55.0808
55.0844
55.0867
55.0903
55.0923
55.0958
55.0978
55.1012
55.103
55.1062
55.1079
55.111
55.1125
55.1156
55.1164
55.1192
55.1211
55.1213
55.1214
55.1214
55.1212
55.1209
55.1204
55.1202
55.1202
55.1204
55.1207
55.121
55.1214
55.1217
55.122
55.1223
55.1225
55.1227
55.1229
55.1232
55.1206
55.1209
55.1212
55.1214
55.1216
55.1218
55.1218
55.1218
55.1218
55.1219
55.122
55.1221
55.1222
55.1225
55.1229
55.1232
55.1235
55.1238
55.1241
55.1244
55.1204
55.1207
55.121
55.1213
55.1216
55.1218
55.1219
55.1222
55.1221
55.1223
55.1223
55.1225
55.1225
55.1228
55.1229
55.1233
55.1236
55.1239
55.1243
55.1245
55.1209
55.1213
55.1215
55.1219
55.122
55.1224
55.1226
55.123
55.1232
55.1235
55.1236
55.1237
55.1236
55.1237
55.1234
55.1235
55.1234
55.1235
55.1237
55.1238
55.1209
55.1213
55.1217
55.1221
55.1225
55.1229
55.1233
55.1236
55.1241
55.1244
55.1248
55.1252
55.1256
55.1259
55.1263
55.1266
55.1269
55.1271
55.1273
55.1276
55.1211
55.1215
55.1219
55.1223
55.1227
55.123
55.1234
55.1237
55.124
55.1243
55.1246
55.1249
55.125
55.1252
55.1252
55.1252
55.125
55.1249
55.1247
55.1247
55.1215
55.1219
55.1223
55.1227
55.123
55.1234
55.1239
55.1243
55.1247
55.1252
55.1256
55.126
55.1264
55.1268
55.1273
55.1278
55.1283
55.1288
55.1293
55.1297
55.1216
55.1218
55.1221
55.1225
55.1228
55.1232
55.1235
55.1239
55.1243
55.1247
55.1251
55.1255
55.126
55.1265
55.1272
55.1279
55.1286
55.1294
55.13
55.1306
55.1213
55.1216
55.122
55.1225
55.1229
55.1234
55.1238
55.1243
55.1248
55.1253
55.126
55.1267
55.1274
55.1281
55.1289
55.1296
55.1304
55.1311
55.1318
55.1323
55.1208
55.1211
55.1216
55.1221
55.1226
55.1232
55.1238
55.1244
55.1251
55.1257
55.1264
55.1271
55.1278
55.1285
55.1292
55.1299
55.1306
55.1313
55.1319
55.1322
55.1239
55.1247
55.126
55.1276
55.129
55.13
55.131
55.1321
55.1334
55.1347
55.136
55.1369
55.1378
55.1386
55.1395
55.1405
55.1415
55.1425
55.1434
55.1442
55.145
55.1458
55.1466
55.1474
55.1481
55.1488
55.1495
55.1502
55.1508
55.1515
55.1521
55.1528
55.1534
55.1539
55.1545
55.155
55.1555
55.156
55.1566
55.1571
55.1576
55.158
55.1585
55.159
55.1594
55.1598
55.1602
55.1606
55.161
55.1614
55.1618
55.1621
55.1624
55.1627
55.163
55.1633
55.1636
55.1639
55.1642
55.1645
55.1647
55.1649
55.1652
55.1654
55.1656
55.1657
55.1659
55.1661
55.1663
55.1664
55.1665
55.1666
55.1667
55.1668
55.1669
55.167
55.1671
55.1671
55.1671
55.1672
55.1671
55.1671
55.1671
55.1671
55.1671
55.167
55.167
55.167
55.1669
55.1669
55.1668
55.1668
55.1667
55.1667
55.1666
55.1665
55.1664
55.1663
55.1662
55.1662
55.1661
55.166
55.1659
55.1658
55.1656
55.1655
55.1654
55.1654
55.1653
55.1653
55.1652
55.165
55.1649
55.1649
55.1649
55.1651
55.1655
55.1658
55.1661
55.1661
55.1659
55.1656
55.1662
55.1675
55.1692
55.1703
55.1698
55.1637
55.1412
55.1068
55.0726
55.0406
55.0128
54.9903
54.9742
54.9654
54.9632
54.9633
54.9669
54.9837
55.0259
55.0679
55.1027
55.1287
55.1462
55.1574
55.1645
55.169
55.1716
55.1721
55.1709
55.169
55.1678
55.167
55.1664
55.1659
55.1656
55.1654
55.1652
55.1651
55.165
55.1649
55.1648
55.1647
55.1647
55.1646
55.1646
55.1645
55.1645
55.1645
55.1644
55.1645
55.1644
55.1645
55.1644
55.1645
55.1643
55.1646
55.1642
55.1647
55.1642
55.1647
55.1643
55.1648
55.1643
55.1648
55.1644
55.1649
55.1645
55.165
55.1645
55.1651
55.1647
55.1652
55.1648
55.1653
55.1649
55.1655
55.1649
55.1652
55.1253
55.1265
55.1273
55.1286
55.1301
55.1314
55.1324
55.1334
55.1347
55.1361
55.1374
55.1386
55.1395
55.1404
55.1413
55.1422
55.1432
55.1442
55.1452
55.1461
55.1469
55.1477
55.1485
55.1493
55.15
55.1507
55.1514
55.1521
55.1528
55.1534
55.154
55.1547
55.1553
55.1559
55.1565
55.157
55.1575
55.158
55.1585
55.159
55.1595
55.16
55.1605
55.1609
55.1614
55.1618
55.1622
55.1626
55.163
55.1634
55.1638
55.1641
55.1645
55.1648
55.1651
55.1654
55.1656
55.1659
55.1662
55.1664
55.1667
55.167
55.1672
55.1674
55.1676
55.1678
55.1679
55.1681
55.1682
55.1684
55.1685
55.1687
55.1688
55.1688
55.1689
55.169
55.1691
55.1691
55.1692
55.1692
55.1692
55.1692
55.1692
55.1692
55.1691
55.1691
55.169
55.169
55.169
55.1689
55.1689
55.1688
55.1687
55.1687
55.1686
55.1686
55.1685
55.1684
55.1683
55.1682
55.1681
55.168
55.1679
55.1678
55.1677
55.1676
55.1674
55.1674
55.1672
55.1671
55.167
55.1669
55.1668
55.1668
55.1668
55.1668
55.1669
55.1671
55.1671
55.167
55.1667
55.1665
55.1665
55.167
55.1682
55.1699
55.1716
55.1732
55.175
55.1773
55.1798
55.1819
55.183
55.1822
55.1779
55.1708
55.1634
55.1562
55.1497
55.1441
55.1417
55.1415
55.1424
55.1455
55.1503
55.155
55.1593
55.163
55.1657
55.1672
55.1675
55.1673
55.167
55.1668
55.1665
55.1663
55.1661
55.1659
55.1658
55.1657
55.1655
55.1654
55.1654
55.1653
55.1652
55.1652
55.1651
55.1651
55.1651
55.1651
55.165
55.165
55.165
55.165
55.1649
55.1651
55.1649
55.1652
55.1648
55.1652
55.1649
55.1652
55.1649
55.1653
55.1649
55.1654
55.165
55.1654
55.1651
55.1655
55.1652
55.1656
55.1653
55.1657
55.1654
55.1659
55.1655
55.166
55.1656
55.1658
55.1254
55.1266
55.1273
55.1286
55.13
55.1312
55.1322
55.1332
55.1344
55.1358
55.1371
55.1382
55.1391
55.14
55.141
55.142
55.143
55.144
55.1449
55.1458
55.1466
55.1474
55.1482
55.149
55.1497
55.1504
55.1511
55.1518
55.1524
55.1531
55.1537
55.1543
55.155
55.1556
55.1561
55.1567
55.1572
55.1577
55.1582
55.1587
55.1592
55.1597
55.1601
55.1606
55.161
55.1615
55.1619
55.1623
55.1627
55.1631
55.1634
55.1638
55.1641
55.1645
55.1647
55.165
55.1653
55.1656
55.1658
55.1661
55.1664
55.1666
55.1669
55.1671
55.1673
55.1674
55.1676
55.1678
55.1679
55.1681
55.1682
55.1683
55.1684
55.1685
55.1686
55.1687
55.1687
55.1688
55.1689
55.1689
55.1689
55.1689
55.1689
55.1688
55.1688
55.1688
55.1687
55.1687
55.1687
55.1686
55.1686
55.1685
55.1685
55.1684
55.1684
55.1683
55.1682
55.1681
55.168
55.1679
55.1678
55.1677
55.1676
55.1675
55.1674
55.1673
55.1672
55.1671
55.167
55.1668
55.1667
55.1666
55.1665
55.1664
55.1664
55.1664
55.1665
55.1666
55.1667
55.1667
55.1665
55.166
55.1656
55.166
55.1675
55.1697
55.1726
55.1759
55.1791
55.1821
55.1848
55.1871
55.189
55.1899
55.1893
55.1863
55.1816
55.1766
55.1716
55.1669
55.1629
55.1599
55.1581
55.1576
55.1579
55.1591
55.1609
55.1626
55.164
55.165
55.1657
55.1661
55.1662
55.1663
55.1662
55.1661
55.166
55.1659
55.1657
55.1656
55.1655
55.1654
55.1654
55.1653
55.1652
55.1652
55.1651
55.1651
55.1651
55.1651
55.165
55.165
55.165
55.165
55.1649
55.1651
55.1649
55.1652
55.1648
55.1652
55.1649
55.1652
55.1649
55.1653
55.1649
55.1654
55.165
55.1654
55.1651
55.1655
55.1652
55.1656
55.1653
55.1657
55.1654
55.1659
55.1655
55.166
55.1658
55.166
55.1248
55.1259
55.1263
55.127
55.1279
55.1289
55.1298
55.1306
55.1314
55.1322
55.1332
55.1342
55.1352
55.136
55.1368
55.1376
55.1384
55.1393
55.1402
55.141
55.1419
55.1426
55.1434
55.1441
55.1449
55.1456
55.1463
55.1469
55.1476
55.1482
55.1489
55.1495
55.1501
55.1507
55.1512
55.1518
55.1523
55.1528
55.1533
55.1538
55.1543
55.1548
55.1553
55.1557
55.1562
55.1566
55.157
55.1574
55.1578
55.1582
55.1586
55.1589
55.1592
55.1595
55.1598
55.1601
55.1604
55.1607
55.161
55.1613
55.1615
55.1617
55.162
55.1622
55.1624
55.1626
55.1628
55.1629
55.1631
55.1632
55.1633
55.1634
55.1636
55.1637
55.1638
55.1638
55.1639
55.164
55.164
55.164
55.164
55.164
55.164
55.1639
55.1639
55.1639
55.1639
55.1638
55.1638
55.1638
55.1637
55.1637
55.1636
55.1636
55.1635
55.1634
55.1633
55.1632
55.1632
55.1631
55.163
55.1629
55.1628
55.1627
55.1627
55.1626
55.1625
55.1624
55.1623
55.1623
55.1623
55.1623
55.1624
55.1626
55.1627
55.1629
55.1631
55.163
55.1628
55.1627
55.1627
55.163
55.164
55.1656
55.1675
55.1693
55.1709
55.1724
55.174
55.1755
55.1766
55.177
55.1768
55.1757
55.1742
55.1724
55.1705
55.1687
55.1671
55.1657
55.1648
55.1642
55.1639
55.1639
55.1642
55.1646
55.165
55.1653
55.1656
55.1658
55.1659
55.1659
55.1659
55.1659
55.1658
55.1657
55.1656
55.1655
55.1655
55.1654
55.1653
55.1653
55.1652
55.1652
55.1652
55.1651
55.1651
55.1651
55.1651
55.165
55.165
55.165
55.165
55.165
55.1649
55.1651
55.1649
55.1651
55.1649
55.1651
55.165
55.1651
55.165
55.1652
55.1649
55.1654
55.165
55.1654
55.1651
55.1655
55.1652
55.1656
55.1653
55.1657
55.1654
55.1659
55.1655
55.166
55.166
55.166
55.1282
55.1291
55.1299
55.1308
55.1317
55.1327
55.1338
55.135
55.1362
55.1375
55.1388
55.1398
55.1408
55.1417
55.1426
55.1435
55.1445
55.1454
55.1462
55.147
55.1478
55.1486
55.1494
55.1502
55.151
55.1517
55.1524
55.1531
55.1538
55.1544
55.1551
55.1557
55.1563
55.1569
55.1575
55.158
55.1586
55.1591
55.1596
55.1601
55.1606
55.1611
55.1615
55.162
55.1624
55.1628
55.1632
55.1636
55.164
55.1644
55.1648
55.1651
55.1654
55.1658
55.1661
55.1664
55.1667
55.167
55.1672
55.1675
55.1677
55.1679
55.1682
55.1684
55.1686
55.1688
55.169
55.1691
55.1693
55.1694
55.1695
55.1696
55.1697
55.1698
55.1699
55.17
55.17
55.1701
55.1701
55.1701
55.1702
55.1702
55.1702
55.1702
55.1702
55.1701
55.1701
55.17
55.17
55.1699
55.1698
55.1698
55.1697
55.1696
55.1695
55.1694
55.1694
55.1693
55.1692
55.169
55.1689
55.1688
55.1687
55.1686
55.1685
55.1683
55.1682
55.1681
55.168
55.1679
55.1678
55.1676
55.1675
55.1673
55.1672
55.1672
55.1671
55.1669
55.1669
55.1669
55.1669
55.1668
55.1665
55.1662
55.1662
55.1666
55.1671
55.1679
55.1688
55.1697
55.1705
55.1711
55.1713
55.1713
55.171
55.1705
55.1698
55.1692
55.1685
55.168
55.1675
55.1671
55.1668
55.1666
55.1664
55.1663
55.1662
55.1661
55.166
55.166
55.1659
55.1658
55.1657
55.1657
55.1656
55.1655
55.1655
55.1654
55.1654
55.1653
55.1653
55.1652
55.1652
55.1652
55.1651
55.1651
55.1651
55.1651
55.165
55.165
55.165
55.165
55.165
55.165
55.165
55.165
55.165
55.1649
55.1651
55.165
55.1651
55.1651
55.165
55.1652
55.165
55.1652
55.1652
55.1652
55.1654
55.1652
55.1655
55.1653
55.1656
55.1656
55.1655
55.1658
55.1657
55.1658
55.1659
55.166
55.1254
55.1252
55.1246
55.1241
55.1238
55.1236
55.1237
55.1239
55.1242
55.1245
55.125
55.1255
55.1261
55.1267
55.1275
55.1283
55.1291
55.1299
55.1307
55.1315
55.1323
55.1331
55.1338
55.1346
55.1353
55.136
55.1367
55.1373
55.138
55.1387
55.1393
55.1399
55.1405
55.1411
55.1416
55.1421
55.1427
55.1432
55.1437
55.1442
55.1447
55.1452
55.1457
55.1461
55.1466
55.147
55.1475
55.1478
55.1482
55.1486
55.1489
55.1493
55.1496
55.15
55.1503
55.1506
55.1509
55.1512
55.1515
55.1517
55.152
55.1522
55.1525
55.1527
55.1529
55.1531
55.1533
55.1535
55.1536
55.1538
55.1539
55.1541
55.1542
55.1543
55.1543
55.1544
55.1545
55.1545
55.1546
55.1546
55.1546
55.1547
55.1547
55.1547
55.1548
55.1548
55.1549
55.1549
55.155
55.1551
55.1551
55.1552
55.1552
55.1553
55.1554
55.1555
55.1556
55.1557
55.1558
55.1559
55.156
55.1561
55.1562
55.1563
55.1565
55.1567
55.1569
55.1572
55.1575
55.1578
55.1581
55.1583
55.1584
55.1584
55.1584
55.1583
55.1584
55.1587
55.1593
55.1602
55.1614
55.1627
55.1642
55.1657
55.1669
55.168
55.1689
55.1697
55.1703
55.1709
55.1712
55.1715
55.1716
55.1715
55.1712
55.1708
55.1702
55.1694
55.1686
55.1679
55.1672
55.1667
55.1663
55.166
55.1657
55.1656
55.1655
55.1654
55.1654
55.1653
55.1653
55.1653
55.1652
55.1652
55.1652
55.1652
55.1652
55.1652
55.1652
55.1651
55.1651
55.1651
55.1651
55.1651
55.1651
55.165
55.165
55.165
55.165
55.165
55.165
55.165
55.165
55.1649
55.1651
55.1649
55.1651
55.1649
55.1651
55.1649
55.1652
55.1649
55.1653
55.1649
55.1653
55.165
55.1654
55.165
55.1655
55.1651
55.1656
55.1652
55.1657
55.1653
55.1658
55.1655
55.1659
55.1656
55.1661
55.1658
55.1309
55.1327
55.1345
55.136
55.1372
55.1383
55.1394
55.1406
55.1417
55.1429
55.144
55.1452
55.1463
55.1473
55.1484
55.1494
55.1505
55.1514
55.1523
55.1532
55.1541
55.155
55.1558
55.1566
55.1574
55.1582
55.159
55.1597
55.1604
55.1611
55.1618
55.1625
55.1631
55.1638
55.1644
55.1649
55.1655
55.166
55.1666
55.1671
55.1675
55.168
55.1685
55.1689
55.1694
55.1698
55.1702
55.1706
55.171
55.1714
55.1717
55.172
55.1724
55.1727
55.173
55.1733
55.1736
55.1739
55.1742
55.1744
55.1746
55.1749
55.1751
55.1753
55.1755
55.1757
55.1758
55.176
55.1761
55.1763
55.1764
55.1765
55.1766
55.1767
55.1768
55.1768
55.1769
55.177
55.177
55.177
55.177
55.177
55.177
55.177
55.177
55.177
55.1769
55.1769
55.1769
55.1768
55.1768
55.1767
55.1766
55.1765
55.1765
55.1764
55.1764
55.1763
55.1762
55.1761
55.176
55.1759
55.1758
55.1757
55.1757
55.1756
55.1755
55.1754
55.1753
55.1752
55.1751
55.1749
55.1749
55.1748
55.1747
55.1746
55.1744
55.1744
55.1744
55.1743
55.1741
55.1739
55.1738
55.1735
55.1734
55.1734
55.1734
55.1733
55.1727
55.1719
55.1713
55.1707
55.1707
55.1712
55.1726
55.1742
55.1754
55.1757
55.1752
55.1738
55.1722
55.1707
55.1694
55.1683
55.1675
55.1669
55.1664
55.166
55.1658
55.1656
55.1655
55.1654
55.1653
55.1653
55.1652
55.1652
55.1652
55.1652
55.1651
55.1651
55.1651
55.1651
55.1651
55.1651
55.1651
55.165
55.165
55.165
55.165
55.165
55.165
55.165
55.165
55.1649
55.1651
55.1649
55.1651
55.1649
55.1651
55.1649
55.1652
55.1649
55.1653
55.1649
55.1653
55.165
55.1654
55.165
55.1655
55.1651
55.1656
55.1652
55.1657
55.1653
55.1658
55.1655
55.1659
55.1658
55.1658
55.1659
55.1318
55.1317
55.1312
55.1304
55.1295
55.1288
55.1282
55.1278
55.1275
55.1273
55.1272
55.1273
55.1275
55.1279
55.1284
55.129
55.1296
55.1304
55.1312
55.1319
55.1327
55.1335
55.1343
55.135
55.1358
55.1365
55.1372
55.1379
55.1385
55.1392
55.1398
55.1405
55.1411
55.1417
55.1422
55.1428
55.1433
55.1438
55.1443
55.1448
55.1453
55.1458
55.1463
55.1467
55.1472
55.1477
55.1481
55.1485
55.1489
55.1493
55.1497
55.1501
55.1504
55.1508
55.1512
55.1515
55.1519
55.1522
55.1526
55.1529
55.1532
55.1535
55.1538
55.154
55.1543
55.1546
55.1548
55.155
55.1552
55.1554
55.1555
55.1557
55.1558
55.156
55.156
55.1561
55.1561
55.1562
55.1561
55.1561
55.1561
55.1561
55.1561
55.156
55.156
55.1561
55.1561
55.1561
55.1562
55.1562
55.1563
55.1563
55.1564
55.1565
55.1565
55.1566
55.1566
55.1567
55.1568
55.157
55.1572
55.1574
55.1577
55.1579
55.1581
55.1584
55.1586
55.1587