/*--------------------------------*- C++ -*----------------------------------*\
| =========                 |                                                 |
| \\      /  F ield         | OpenFOAM: The Open Source CFD Toolbox           |
|  \\    /   O peration     | Version:  3.0.x                                 |
|   \\  /    A nd           | Web:      www.OpenFOAM.org                      |
|    \\/     M anipulation  |                                                 |
\*---------------------------------------------------------------------------*/
FoamFile
{
    version     2.0;
    format      ascii;
    class       volScalarField;
    location    "0.569975";
    object      T;
}
// * * * * * * * * * * * * * * * * * * * * * * * * * * * * * * * * * * * * * //

dimensions      [0 0 0 1 0 0 0];

internalField   nonuniform List<scalar> 
13800
(
783.529
783.49
783.435
783.385
783.339
783.3
783.27
783.244
783.222
783.208
783.202
783.2
783.2
783.202
783.211
783.224
783.238
783.255
783.272
783.291
783.31
783.329
783.349
783.37
783.39
783.411
783.433
783.455
783.477
783.499
783.522
783.544
783.568
783.591
783.615
783.638
783.663
783.687
783.712
783.736
783.761
783.786
783.812
783.837
783.863
783.889
783.915
783.941
783.967
783.993
784.02
784.046
784.073
784.099
784.126
784.153
784.18
784.207
784.234
784.261
784.288
784.315
784.342
784.369
784.396
784.424
784.451
784.479
784.506
784.533
784.559
784.586
784.612
784.638
784.664
784.69
784.716
784.743
784.769
784.796
784.822
784.849
784.875
784.901
784.927
784.952
784.978
785.004
785.029
785.054
785.078
785.102
785.126
785.15
785.174
785.197
785.221
785.245
785.269
785.293
785.317
785.341
785.365
785.389
785.412
785.435
785.457
785.479
785.501
785.522
785.544
785.566
785.587
785.609
785.63
785.651
785.672
785.693
785.714
785.735
785.755
785.776
785.796
785.816
785.836
785.855
785.875
785.894
785.913
785.932
785.951
785.97
785.988
786.006
786.025
786.042
786.06
786.078
786.095
786.112
786.129
786.146
786.163
786.179
786.195
786.211
786.227
786.243
786.258
786.274
786.289
786.304
786.319
786.333
786.348
786.362
786.376
786.39
786.403
786.417
786.43
786.443
786.456
786.469
786.482
786.494
786.506
786.518
786.53
786.542
786.553
786.564
786.575
786.586
786.597
786.608
786.617
786.629
786.637
786.649
786.655
786.669
786.673
786.688
786.69
786.706
786.706
786.724
786.722
786.741
786.737
786.756
786.752
786.77
786.766
786.782
786.782
786.786
786.81
786.8
783.512
783.473
783.418
783.369
783.322
783.283
783.253
783.227
783.205
783.191
783.185
783.183
783.183
783.186
783.195
783.208
783.222
783.239
783.256
783.275
783.294
783.313
783.333
783.354
783.375
783.396
783.417
783.439
783.461
783.483
783.506
783.529
783.552
783.576
783.599
783.623
783.648
783.672
783.697
783.721
783.746
783.772
783.797
783.823
783.848
783.874
783.9
783.926
783.952
783.979
784.005
784.032
784.059
784.085
784.112
784.139
784.166
784.193
784.22
784.247
784.274
784.301
784.328
784.356
784.383
784.41
784.438
784.465
784.493
784.52
784.546
784.573
784.599
784.625
784.651
784.677
784.704
784.73
784.757
784.783
784.81
784.836
784.862
784.889
784.914
784.94
784.966
784.992
785.017
785.042
785.066
785.091
785.115
785.139
785.162
785.186
785.21
785.234
785.258
785.282
785.306
785.33
785.354
785.378
785.401
785.424
785.446
785.468
785.49
785.512
785.534
785.555
785.577
785.598
785.62
785.641
785.662
785.683
785.704
785.725
785.745
785.766
785.786
785.806
785.826
785.846
785.865
785.884
785.904
785.923
785.941
785.96
785.978
785.997
786.015
786.033
786.05
786.068
786.085
786.102
786.119
786.136
786.153
786.169
786.186
786.202
786.217
786.233
786.249
786.264
786.279
786.294
786.309
786.324
786.338
786.352
786.366
786.38
786.394
786.407
786.421
786.434
786.447
786.459
786.472
786.484
786.497
786.509
786.52
786.532
786.544
786.555
786.566
786.577
786.587
786.598
786.608
786.619
786.627
786.64
786.646
786.66
786.664
786.679
786.681
786.697
786.697
786.715
786.713
786.731
786.728
786.746
786.743
786.76
786.757
786.774
786.771
786.787
786.785
786.801
783.512
783.473
783.418
783.369
783.322
783.283
783.253
783.227
783.205
783.191
783.185
783.183
783.183
783.186
783.194
783.208
783.222
783.239
783.256
783.275
783.294
783.313
783.333
783.354
783.375
783.396
783.417
783.439
783.461
783.483
783.506
783.529
783.552
783.576
783.599
783.623
783.648
783.672
783.697
783.721
783.746
783.772
783.797
783.823
783.848
783.874
783.9
783.926
783.952
783.979
784.005
784.032
784.059
784.085
784.112
784.139
784.166
784.193
784.22
784.247
784.274
784.301
784.328
784.355
784.383
784.41
784.438
784.465
784.493
784.52
784.546
784.573
784.599
784.625
784.651
784.677
784.704
784.73
784.757
784.783
784.81
784.836
784.862
784.888
784.914
784.94
784.966
784.992
785.017
785.042
785.066
785.091
785.115
785.139
785.162
785.186
785.21
785.234
785.258
785.282
785.306
785.33
785.354
785.378
785.401
785.424
785.446
785.468
785.49
785.512
785.534
785.555
785.577
785.598
785.62
785.641
785.662
785.683
785.704
785.725
785.745
785.766
785.786
785.806
785.826
785.846
785.865
785.884
785.904
785.923
785.941
785.96
785.978
785.997
786.015
786.033
786.05
786.068
786.085
786.102
786.119
786.136
786.153
786.169
786.186
786.202
786.217
786.233
786.249
786.264
786.279
786.294
786.309
786.324
786.338
786.352
786.366
786.38
786.394
786.407
786.421
786.434
786.447
786.459
786.472
786.484
786.497
786.509
786.52
786.532
786.544
786.555
786.566
786.577
786.587
786.598
786.608
786.619
786.627
786.64
786.646
786.66
786.664
786.679
786.681
786.697
786.697
786.715
786.713
786.731
786.728
786.746
786.743
786.76
786.757
786.774
786.771
786.787
786.784
786.799
783.512
783.473
783.418
783.369
783.322
783.283
783.253
783.227
783.205
783.191
783.185
783.184
783.183
783.186
783.195
783.208
783.222
783.239
783.256
783.275
783.294
783.313
783.334
783.354
783.375
783.396
783.417
783.439
783.461
783.484
783.506
783.529
783.552
783.576
783.6
783.623
783.648
783.672
783.697
783.721
783.746
783.772
783.797
783.823
783.848
783.874
783.9
783.926
783.953
783.979
784.005
784.032
784.059
784.085
784.112
784.139
784.166
784.193
784.22
784.247
784.274
784.301
784.328
784.356
784.383
784.41
784.438
784.465
784.493
784.52
784.547
784.573
784.599
784.625
784.651
784.677
784.704
784.73
784.757
784.783
784.81
784.836
784.862
784.889
784.914
784.94
784.966
784.992
785.017
785.042
785.066
785.091
785.115
785.139
785.162
785.186
785.21
785.234
785.258
785.282
785.306
785.33
785.354
785.378
785.401
785.424
785.446
785.468
785.49
785.512
785.534
785.555
785.577
785.598
785.62
785.641
785.662
785.683
785.704
785.725
785.745
785.766
785.786
785.806
785.826
785.846
785.865
785.884
785.904
785.923
785.941
785.96
785.978
785.997
786.015
786.033
786.05
786.068
786.085
786.102
786.119
786.136
786.153
786.169
786.186
786.202
786.217
786.233
786.249
786.264
786.279
786.294
786.309
786.324
786.338
786.352
786.366
786.38
786.394
786.407
786.421
786.434
786.447
786.459
786.472
786.484
786.497
786.509
786.52
786.532
786.544
786.555
786.566
786.577
786.587
786.598
786.608
786.619
786.627
786.64
786.646
786.66
786.664
786.679
786.681
786.697
786.697
786.715
786.713
786.731
786.728
786.746
786.743
786.76
786.757
786.774
786.771
786.786
786.785
786.795
783.512
783.473
783.418
783.369
783.322
783.283
783.253
783.227
783.205
783.192
783.186
783.184
783.184
783.186
783.195
783.208
783.223
783.239
783.256
783.275
783.294
783.314
783.334
783.354
783.375
783.396
783.417
783.439
783.461
783.484
783.506
783.529
783.552
783.576
783.6
783.624
783.648
783.672
783.697
783.722
783.747
783.772
783.797
783.823
783.848
783.874
783.9
783.926
783.953
783.979
784.005
784.032
784.059
784.085
784.112
784.139
784.166
784.193
784.22
784.247
784.274
784.301
784.328
784.356
784.383
784.41
784.438
784.466
784.493
784.52
784.547
784.573
784.599
784.625
784.651
784.677
784.704
784.73
784.757
784.783
784.81
784.836
784.863
784.889
784.914
784.94
784.966
784.992
785.017
785.042
785.066
785.091
785.115
785.139
785.162
785.186
785.21
785.234
785.258
785.282
785.306
785.33
785.354
785.378
785.401
785.424
785.446
785.468
785.49
785.512
785.534
785.555
785.577
785.598
785.62
785.641
785.662
785.683
785.704
785.725
785.745
785.766
785.786
785.806
785.826
785.846
785.865
785.884
785.904
785.923
785.941
785.96
785.978
785.997
786.015
786.033
786.05
786.068
786.085
786.102
786.119
786.136
786.153
786.169
786.186
786.202
786.217
786.233
786.249
786.264
786.279
786.294
786.309
786.324
786.338
786.352
786.366
786.38
786.394
786.407
786.421
786.434
786.447
786.459
786.472
786.484
786.497
786.509
786.52
786.532
786.544
786.555
786.566
786.577
786.587
786.598
786.608
786.619
786.627
786.64
786.646
786.66
786.664
786.679
786.681
786.697
786.697
786.715
786.713
786.731
786.728
786.746
786.743
786.76
786.757
786.774
786.771
786.787
786.784
786.799
783.512
783.473
783.418
783.369
783.322
783.283
783.253
783.227
783.205
783.192
783.186
783.184
783.184
783.186
783.195
783.208
783.223
783.239
783.256
783.275
783.294
783.314
783.334
783.354
783.375
783.396
783.417
783.439
783.461
783.484
783.506
783.529
783.552
783.576
783.6
783.624
783.648
783.672
783.697
783.722
783.747
783.772
783.797
783.823
783.848
783.874
783.9
783.926
783.953
783.979
784.005
784.032
784.059
784.085
784.112
784.139
784.166
784.193
784.22
784.247
784.274
784.301
784.328
784.356
784.383
784.41
784.438
784.466
784.493
784.52
784.547
784.573
784.599
784.625
784.651
784.677
784.704
784.73
784.757
784.783
784.81
784.836
784.863
784.889
784.914
784.94
784.966
784.992
785.017
785.042
785.066
785.091
785.115
785.139
785.162
785.186
785.21
785.234
785.258
785.282
785.306
785.33
785.354
785.378
785.401
785.424
785.446
785.468
785.49
785.512
785.534
785.555
785.577
785.598
785.62
785.641
785.662
785.683
785.704
785.725
785.745
785.766
785.786
785.806
785.826
785.846
785.865
785.884
785.904
785.923
785.941
785.96
785.978
785.997
786.015
786.033
786.05
786.068
786.085
786.102
786.119
786.136
786.153
786.169
786.186
786.202
786.217
786.233
786.249
786.264
786.279
786.294
786.309
786.324
786.338
786.352
786.366
786.38
786.394
786.407
786.421
786.434
786.447
786.459
786.472
786.484
786.497
786.509
786.52
786.532
786.544
786.555
786.566
786.577
786.588
786.598
786.608
786.619
786.628
786.638
786.647
786.657
786.666
786.675
786.686
786.689
786.706
786.705
786.722
786.722
786.735
786.74
786.746
786.759
786.759
786.77
786.776
786.781
786.787
786.793
783.512
783.473
783.418
783.369
783.322
783.283
783.253
783.227
783.205
783.191
783.185
783.184
783.183
783.186
783.195
783.208
783.222
783.239
783.256
783.275
783.294
783.313
783.334
783.354
783.375
783.396
783.417
783.439
783.461
783.484
783.506
783.529
783.552
783.576
783.6
783.623
783.648
783.672
783.697
783.721
783.746
783.772
783.797
783.823
783.848
783.874
783.9
783.926
783.953
783.979
784.005
784.032
784.059
784.085
784.112
784.139
784.166
784.193
784.22
784.247
784.274
784.301
784.328
784.356
784.383
784.41
784.438
784.465
784.493
784.52
784.547
784.573
784.599
784.625
784.651
784.677
784.704
784.73
784.757
784.783
784.81
784.836
784.862
784.889
784.914
784.94
784.966
784.992
785.017
785.042
785.066
785.091
785.115
785.139
785.162
785.186
785.21
785.234
785.258
785.282
785.306
785.33
785.354
785.378
785.401
785.424
785.446
785.468
785.49
785.512
785.534
785.555
785.577
785.598
785.62
785.641
785.662
785.683
785.704
785.725
785.745
785.766
785.786
785.806
785.826
785.846
785.865
785.884
785.904
785.923
785.941
785.96
785.978
785.997
786.015
786.033
786.05
786.068
786.085
786.102
786.119
786.136
786.153
786.169
786.186
786.202
786.217
786.233
786.249
786.264
786.279
786.294
786.309
786.324
786.338
786.352
786.366
786.38
786.394
786.407
786.421
786.434
786.447
786.459
786.472
786.484
786.497
786.509
786.52
786.532
786.544
786.555
786.566
786.577
786.588
786.598
786.609
786.618
786.63
786.636
786.65
786.654
786.67
786.672
786.688
786.689
786.706
786.705
786.723
786.721
786.739
786.736
786.754
786.751
786.767
786.764
786.781
786.777
786.79
786.793
783.512
783.473
783.418
783.369
783.322
783.283
783.253
783.227
783.205
783.191
783.185
783.183
783.183
783.186
783.194
783.208
783.222
783.239
783.256
783.275
783.294
783.313
783.333
783.354
783.375
783.396
783.417
783.439
783.461
783.483
783.506
783.529
783.552
783.576
783.599
783.623
783.648
783.672
783.697
783.721
783.746
783.772
783.797
783.823
783.848
783.874
783.9
783.926
783.952
783.979
784.005
784.032
784.059
784.085
784.112
784.139
784.166
784.193
784.22
784.247
784.274
784.301
784.328
784.355
784.383
784.41
784.438
784.465
784.493
784.52
784.546
784.573
784.599
784.625
784.651
784.677
784.704
784.73
784.757
784.783
784.81
784.836
784.862
784.888
784.914
784.94
784.966
784.992
785.017
785.042
785.066
785.091
785.115
785.139
785.162
785.186
785.21
785.234
785.258
785.282
785.306
785.33
785.354
785.378
785.401
785.424
785.446
785.468
785.49
785.512
785.534
785.555
785.577
785.598
785.62
785.641
785.662
785.683
785.704
785.725
785.745
785.766
785.786
785.806
785.826
785.846
785.865
785.884
785.904
785.923
785.941
785.96
785.978
785.997
786.015
786.033
786.05
786.068
786.085
786.102
786.119
786.136
786.153
786.169
786.186
786.202
786.217
786.233
786.249
786.264
786.279
786.294
786.309
786.324
786.338
786.352
786.366
786.38
786.394
786.407
786.421
786.434
786.447
786.459
786.472
786.484
786.497
786.509
786.52
786.532
786.544
786.555
786.566
786.577
786.588
786.598
786.609
786.618
786.63
786.636
786.65
786.654
786.67
786.672
786.688
786.688
786.706
786.705
786.723
786.721
786.738
786.736
786.753
786.75
786.767
786.764
786.781
786.777
786.796
786.794
783.512
783.473
783.418
783.369
783.322
783.283
783.253
783.227
783.205
783.191
783.185
783.183
783.183
783.186
783.195
783.208
783.222
783.239
783.256
783.275
783.294
783.313
783.333
783.354
783.375
783.396
783.417
783.439
783.461
783.483
783.506
783.529
783.552
783.576
783.599
783.623
783.648
783.672
783.697
783.721
783.746
783.772
783.797
783.823
783.848
783.874
783.9
783.926
783.952
783.979
784.005
784.032
784.059
784.085
784.112
784.139
784.166
784.193
784.22
784.247
784.274
784.301
784.328
784.356
784.383
784.41
784.438
784.465
784.493
784.52
784.546
784.573
784.599
784.625
784.651
784.677
784.704
784.73
784.757
784.783
784.81
784.836
784.862
784.889
784.914
784.94
784.966
784.992
785.017
785.042
785.066
785.091
785.115
785.139
785.162
785.186
785.21
785.234
785.258
785.282
785.306
785.33
785.354
785.378
785.401
785.424
785.446
785.468
785.49
785.512
785.534
785.555
785.577
785.598
785.62
785.641
785.662
785.683
785.704
785.725
785.745
785.766
785.786
785.806
785.826
785.846
785.865
785.884
785.904
785.923
785.941
785.96
785.978
785.997
786.015
786.033
786.05
786.068
786.085
786.102
786.119
786.136
786.153
786.169
786.186
786.202
786.217
786.233
786.249
786.264
786.279
786.294
786.309
786.324
786.338
786.352
786.366
786.38
786.394
786.407
786.421
786.434
786.447
786.459
786.472
786.484
786.497
786.509
786.52
786.532
786.544
786.555
786.566
786.577
786.588
786.598
786.609
786.617
786.63
786.636
786.65
786.654
786.67
786.672
786.689
786.688
786.706
786.705
786.723
786.721
786.738
786.736
786.753
786.75
786.767
786.764
786.781
786.777
786.798
786.8
783.529
783.49
783.435
783.385
783.339
783.3
783.27
783.244
783.222
783.208
783.202
783.2
783.2
783.202
783.211
783.224
783.238
783.255
783.272
783.291
783.31
783.329
783.349
783.37
783.39
783.411
783.433
783.455
783.477
783.499
783.522
783.544
783.568
783.591
783.615
783.638
783.663
783.687
783.712
783.736
783.761
783.786
783.812
783.837
783.863
783.889
783.915
783.941
783.967
783.993
784.02
784.046
784.073
784.099
784.126
784.153
784.18
784.207
784.234
784.261
784.288
784.315
784.342
784.369
784.396
784.424
784.451
784.479
784.506
784.533
784.559
784.586
784.612
784.638
784.664
784.69
784.716
784.743
784.769
784.796
784.822
784.849
784.875
784.901
784.927
784.952
784.978
785.004
785.029
785.054
785.078
785.102
785.126
785.15
785.174
785.197
785.221
785.245
785.269
785.293
785.317
785.341
785.365
785.389
785.412
785.435
785.457
785.479
785.501
785.522
785.544
785.566
785.587
785.609
785.63
785.651
785.672
785.693
785.714
785.735
785.755
785.776
785.796
785.816
785.836
785.855
785.875
785.894
785.913
785.932
785.951
785.97
785.988
786.006
786.025
786.042
786.06
786.078
786.095
786.112
786.129
786.146
786.163
786.179
786.195
786.211
786.227
786.243
786.258
786.274
786.289
786.304
786.319
786.333
786.348
786.362
786.376
786.39
786.403
786.417
786.43
786.443
786.456
786.469
786.482
786.494
786.506
786.518
786.53
786.542
786.553
786.564
786.576
786.586
786.597
786.607
786.619
786.627
786.639
786.646
786.66
786.664
786.679
786.681
786.698
786.698
786.716
786.714
786.733
786.73
786.748
786.745
786.763
786.759
786.777
786.773
786.791
786.785
786.813
786.808
786.8
786.804
786.81
786.816
786.825
786.837
786.851
786.861
786.867
786.871
786.873
786.875
786.877
786.878
786.88
786.881
786.883
786.886
786.888
786.889
786.806
786.81
786.813
786.816
786.82
786.825
786.831
786.837
786.844
786.85
786.855
786.86
786.864
786.866
786.868
786.868
786.869
786.87
786.871
786.871
786.81
786.812
786.814
786.818
786.82
786.824
786.829
786.832
786.839
786.843
786.851
786.855
786.86
786.862
786.866
786.867
786.868
786.868
786.867
786.869
786.803
786.804
786.808
786.809
786.814
786.815
786.819
786.82
786.824
786.826
786.831
786.835
786.843
786.848
786.857
786.862
786.868
786.871
786.875
786.877
786.805
786.805
786.806
786.806
786.807
786.808
786.809
786.81
786.811
786.812
786.813
786.814
786.815
786.816
786.817
786.818
786.819
786.821
786.823
786.824
786.801
786.801
786.802
786.803
786.804
786.805
786.807
786.808
786.811
786.813
786.815
786.817
786.821
786.824
786.83
786.835
786.843
786.851
786.857
786.863
786.798
786.798
786.799
786.799
786.8
786.8
786.8
786.799
786.799
786.799
786.799
786.799
786.798
786.798
786.797
786.796
786.795
786.794
786.793
786.792
786.795
786.797
786.798
786.799
786.801
786.802
786.803
786.803
786.804
786.804
786.805
786.805
786.804
786.802
786.8
786.796
786.792
786.788
786.784
786.782
786.8
786.8
786.8
786.8
786.799
786.799
786.798
786.797
786.797
786.795
786.792
786.788
786.784
786.779
786.775
786.771
786.767
786.763
786.76
786.758
786.807
786.806
786.805
786.804
786.803
786.801
786.798
786.795
786.792
786.788
786.785
786.781
786.777
786.774
786.77
786.766
786.763
786.76
786.759
786.759
786.89
786.899
786.898
786.892
786.889
786.892
786.896
786.898
786.896
786.893
786.893
786.895
786.899
786.903
786.906
786.907
786.908
786.909
786.911
786.913
786.915
786.917
786.919
786.921
786.923
786.925
786.927
786.93
786.932
786.933
786.935
786.937
786.938
786.94
786.942
786.944
786.946
786.948
786.949
786.951
786.952
786.953
786.954
786.955
786.956
786.958
786.959
786.96
786.961
786.962
786.963
786.964
786.965
786.966
786.968
786.969
786.97
786.97
786.971
786.971
786.972
786.973
786.973
786.974
786.975
786.975
786.976
786.976
786.976
786.977
786.977
786.978
786.978
786.978
786.978
786.978
786.978
786.978
786.978
786.979
786.979
786.979
786.98
786.98
786.98
786.98
786.98
786.98
786.98
786.98
786.979
786.979
786.979
786.978
786.978
786.978
786.978
786.978
786.978
786.978
786.978
786.977
786.977
786.977
786.977
786.977
786.976
786.976
786.974
786.973
786.973
786.973
786.973
786.972
786.97
786.965
786.959
786.953
786.948
786.946
786.949
786.951
786.943
786.923
786.898
786.881
786.888
786.975
787.295
787.786
788.275
788.732
789.131
789.453
789.683
789.808
789.839
789.836
789.784
789.54
788.934
788.331
787.832
787.46
787.207
787.047
786.945
786.879
786.841
786.833
786.85
786.875
786.892
786.903
786.911
786.916
786.92
786.922
786.924
786.926
786.927
786.928
786.928
786.929
786.929
786.93
786.93
786.93
786.93
786.93
786.931
786.93
786.931
786.93
786.931
786.929
786.933
786.928
786.934
786.928
786.934
786.928
786.934
786.928
786.935
786.928
786.935
786.928
786.935
786.928
786.935
786.928
786.936
786.929
786.936
786.929
786.937
786.929
786.94
786.936
786.869
786.872
786.879
786.877
786.874
786.873
786.876
786.878
786.877
786.874
786.872
786.872
786.874
786.878
786.881
786.883
786.883
786.884
786.885
786.886
786.888
786.89
786.892
786.894
786.896
786.898
786.9
786.902
786.904
786.906
786.908
786.909
786.911
786.912
786.914
786.916
786.918
786.919
786.921
786.923
786.924
786.925
786.926
786.927
786.928
786.929
786.931
786.932
786.933
786.934
786.935
786.936
786.936
786.938
786.939
786.94
786.941
786.942
786.943
786.943
786.944
786.944
786.945
786.945
786.946
786.947
786.947
786.948
786.948
786.948
786.948
786.949
786.949
786.949
786.95
786.95
786.95
786.95
786.949
786.949
786.949
786.95
786.95
786.95
786.951
786.951
786.951
786.951
786.951
786.95
786.95
786.95
786.95
786.95
786.949
786.949
786.949
786.949
786.949
786.949
786.949
786.949
786.948
786.948
786.948
786.948
786.948
786.947
786.948
786.947
786.947
786.947
786.946
786.945
786.944
786.942
786.939
786.935
786.934
786.934
786.936
786.938
786.937
786.929
786.912
786.887
786.862
786.839
786.813
786.78
786.744
786.712
786.697
786.707
786.767
786.867
786.972
787.074
787.166
787.244
787.277
787.278
787.264
787.22
787.15
787.081
787.018
786.965
786.925
786.903
786.898
786.9
786.903
786.906
786.909
786.911
786.913
786.915
786.916
786.918
786.919
786.919
786.92
786.921
786.921
786.921
786.922
786.922
786.922
786.922
786.922
786.922
786.923
786.922
786.923
786.921
786.924
786.92
786.925
786.92
786.925
786.92
786.925
786.92
786.926
786.92
786.926
786.921
786.926
786.921
786.926
786.921
786.927
786.921
786.927
786.922
786.928
786.922
786.929
786.927
786.868
786.871
786.879
786.878
786.875
786.875
786.879
786.881
786.881
786.878
786.876
786.877
786.88
786.883
786.885
786.886
786.887
786.888
786.889
786.891
786.893
786.895
786.897
786.899
786.901
786.902
786.904
786.907
786.909
786.91
786.912
786.914
786.916
786.917
786.919
786.92
786.922
786.924
786.926
786.927
786.929
786.93
786.931
786.932
786.933
786.934
786.935
786.936
786.937
786.938
786.939
786.94
786.941
786.942
786.943
786.944
786.946
786.946
786.947
786.948
786.948
786.949
786.949
786.95
786.951
786.951
786.952
786.952
786.953
786.953
786.953
786.953
786.954
786.954
786.954
786.954
786.954
786.954
786.954
786.954
786.954
786.954
786.954
786.955
786.955
786.955
786.955
786.955
786.955
786.955
786.955
786.954
786.954
786.954
786.953
786.953
786.953
786.953
786.953
786.952
786.952
786.952
786.952
786.952
786.952
786.952
786.952
786.951
786.951
786.951
786.951
786.951
786.95
786.95
786.949
786.948
786.945
786.941
786.938
786.938
786.94
786.946
786.951
786.944
786.923
786.889
786.847
786.8
786.754
786.711
786.672
786.639
786.612
786.598
786.605
786.646
786.713
786.784
786.854
786.919
786.974
787.016
787.041
787.046
787.041
787.022
786.996
786.971
786.95
786.934
786.924
786.917
786.914
786.913
786.913
786.914
786.915
786.916
786.917
786.918
786.919
786.92
786.92
786.921
786.921
786.921
786.922
786.922
786.922
786.922
786.922
786.922
786.923
786.922
786.923
786.921
786.924
786.92
786.925
786.92
786.925
786.92
786.925
786.92
786.926
786.92
786.926
786.921
786.926
786.921
786.926
786.921
786.927
786.921
786.927
786.922
786.928
786.922
786.927
786.925
786.876
786.881
786.892
786.901
786.905
786.908
786.912
786.918
786.925
786.929
786.932
786.934
786.937
786.941
786.945
786.949
786.952
786.955
786.956
786.958
786.96
786.963
786.965
786.967
786.969
786.972
786.974
786.976
786.978
786.98
786.982
786.983
786.985
786.987
786.988
786.99
786.992
786.994
786.995
786.997
786.998
786.999
787
787.002
787.003
787.004
787.005
787.006
787.007
787.008
787.009
787.01
787.011
787.012
787.013
787.014
787.015
787.016
787.017
787.017
787.018
787.019
787.019
787.02
787.02
787.021
787.021
787.022
787.022
787.022
787.023
787.023
787.023
787.023
787.023
787.023
787.023
787.023
787.024
787.024
787.024
787.024
787.025
787.025
787.025
787.025
787.025
787.025
787.024
787.024
787.024
787.023
787.023
787.023
787.023
787.023
787.023
787.022
787.022
787.022
787.022
787.021
787.021
787.02
787.019
787.018
787.018
787.018
787.017
787.016
787.014
787.013
787.01
787.005
787.001
786.997
786.993
786.993
786.995
786.996
786.995
786.989
786.973
786.95
786.922
786.896
786.872
786.85
786.827
786.805
786.789
786.782
786.785
786.8
786.82
786.845
786.871
786.895
786.918
786.935
786.948
786.956
786.958
786.956
786.951
786.945
786.938
786.932
786.927
786.923
786.921
786.919
786.919
786.919
786.919
786.92
786.92
786.92
786.921
786.921
786.921
786.922
786.922
786.922
786.922
786.922
786.922
786.922
786.922
786.922
786.922
786.922
786.922
786.922
786.923
786.921
786.924
786.921
786.924
786.921
786.924
786.922
786.924
786.921
786.926
786.92
786.927
786.921
786.926
786.921
786.926
786.921
786.927
786.921
786.927
786.922
786.927
786.922
786.924
786.925
786.828
786.834
786.84
786.845
786.849
786.853
786.855
786.855
786.854
786.852
786.852
786.853
786.856
786.859
786.861
786.863
786.865
786.867
786.87
786.872
786.875
786.877
786.879
786.88
786.882
786.884
786.886
786.887
786.889
786.891
786.893
786.894
786.896
786.898
786.9
786.901
786.903
786.904
786.905
786.907
786.908
786.91
786.911
786.913
786.914
786.915
786.916
786.917
786.918
786.919
786.92
786.921
786.922
786.923
786.924
786.925
786.925
786.926
786.927
786.928
786.929
786.93
786.93
786.931
786.931
786.932
786.932
786.933
786.933
786.934
786.934
786.934
786.935
786.935
786.935
786.935
786.935
786.935
786.936
786.936
786.936
786.936
786.935
786.935
786.935
786.935
786.935
786.936
786.936
786.936
786.936
786.936
786.936
786.936
786.936
786.936
786.936
786.936
786.936
786.936
786.936
786.936
786.936
786.936
786.936
786.936
786.936
786.936
786.936
786.936
786.935
786.936
786.936
786.937
786.936
786.936
786.936
786.937
786.937
786.935
786.934
786.935
786.938
786.941
786.94
786.935
786.926
786.915
786.902
786.888
786.876
786.867
786.863
786.863
786.866
786.873
786.881
786.889
786.897
786.904
786.909
786.913
786.916
786.918
786.919
786.92
786.92
786.921
786.921
786.921
786.921
786.921
786.921
786.921
786.922
786.922
786.922
786.922
786.922
786.922
786.922
786.923
786.923
786.923
786.923
786.923
786.923
786.923
786.923
786.922
786.923
786.922
786.923
786.922
786.922
786.923
786.922
786.923
786.921
786.923
786.922
786.922
786.924
786.921
786.925
786.922
786.923
786.924
786.922
786.925
786.921
786.926
786.923
786.923
786.926
786.923
786.925
786.925
786.925
786.924
786.867
786.89
786.915
786.94
786.963
786.982
786.999
787.014
787.027
787.038
787.049
787.058
787.066
787.072
787.077
787.082
787.085
787.088
787.091
787.094
787.097
787.099
787.102
787.104
787.106
787.109
787.111
787.113
787.115
787.117
787.118
787.12
787.122
787.124
787.126
787.128
787.13
787.131
787.132
787.134
787.135
787.136
787.137
787.138
787.139
787.14
787.141
787.143
787.144
787.145
787.146
787.147
787.148
787.149
787.15
787.151
787.151
787.152
787.153
787.153
787.154
787.155
787.155
787.155
787.156
787.156
787.156
787.157
787.157
787.157
787.157
787.157
787.157
787.158
787.158
787.158
787.158
787.158
787.158
787.158
787.158
787.157
787.157
787.156
787.155
787.154
787.153
787.152
787.15
787.148
787.146
787.145
787.143
787.141
787.139
787.136
787.133
787.13
787.127
787.124
787.121
787.118
787.116
787.112
787.108
787.103
787.098
787.092
787.086
787.08
787.074
787.07
787.067
787.065
787.064
787.064
787.061
787.055
787.045
787.031
787.013
786.993
786.971
786.949
786.93
786.914
786.901
786.889
786.879
786.871
786.865
786.861
786.859
786.86
786.863
786.868
786.876
786.886
786.896
786.905
786.914
786.92
786.924
786.927
786.929
786.93
786.931
786.931
786.93
786.93
786.929
786.929
786.928
786.928
786.927
786.927
786.926
786.926
786.925
786.925
786.925
786.924
786.924
786.924
786.923
786.923
786.923
786.923
786.923
786.923
786.922
786.923
786.922
786.923
786.922
786.924
786.921
786.924
786.921
786.925
786.92
786.925
786.92
786.926
786.92
786.926
786.92
786.926
786.921
786.926
786.921
786.927
786.921
786.927
786.922
786.927
786.922
786.927
786.923
786.927
786.788
786.779
786.772
786.768
786.768
786.77
786.772
786.773
786.774
786.774
786.775
786.775
786.776
786.777
786.778
786.778
786.779
786.78
786.782
786.783
786.784
786.786
786.787
786.789
786.79
786.791
786.792
786.793
786.794
786.795
786.796
786.797
786.799
786.8
786.801
786.803
786.804
786.805
786.806
786.808
786.809
786.81
786.812
786.813
786.814
786.815
786.816
786.817
786.818
786.82
786.821
786.822
786.823
786.824
786.825
786.826
786.827
786.827
786.828
786.829
786.83
786.831
786.832
786.832
786.833
786.833
786.834
786.834
786.835
786.836
786.836
786.837
786.837
786.837
786.837
786.837
786.837
786.838
786.838
786.838
786.838
786.838
786.838
786.838
786.838
786.838
786.838
786.838
786.838
786.838
786.838
786.838
786.838
786.838
786.837
786.837
786.837
786.836
786.836
786.836
786.836
786.835
786.835
786.835
786.834
786.834
786.834
786.833
786.833
786.832
786.833
786.833
786.832
786.831
786.831
786.831
786.833
786.832
786.83
786.83
786.832
786.834
786.835
786.838
786.838
786.837
786.837
786.839
786.847
786.856
786.865
786.873
786.872
786.865
786.844
786.819
786.801
786.796
786.803
786.821
786.842
786.863
786.88
786.894
786.904
786.912
786.918
786.922
786.924
786.926
786.927
786.927
786.927
786.927
786.927
786.927
786.926
786.926
786.925
786.925
786.925
786.924
786.924
786.924
786.924
786.923
786.923
786.923
786.923
786.923
786.922
786.923
786.922
786.923
786.922
786.924
786.921
786.924
786.921
786.925
786.92
786.925
786.92
786.926
786.92
786.926
786.92
786.926
786.921
786.926
786.921
786.927
786.921
786.927
786.921
786.927
786.922
786.925
786.926
786.926
786.777
786.795
786.819
786.848
786.878
786.906
786.931
786.955
786.977
786.997
787.015
787.03
787.044
787.055
787.063
787.07
787.076
787.08
787.084
787.087
787.09
787.092
787.094
787.097
787.099
787.101
787.103
787.105
787.107
787.109
787.11
787.112
787.113
787.115
787.117
787.119
787.12
787.122
787.124
787.125
787.127
787.128
787.129
787.13
787.13
787.131
787.132
787.133
787.133
787.134
787.135
787.136
787.137
787.137
787.137
787.137
787.137
787.137
787.137
787.137
787.137
787.137
787.136
787.136
787.136
787.135
787.135
787.135
787.135
787.134
787.134
787.134
787.133
787.133
787.133
787.134
787.134
787.135
787.135
787.136
787.137
787.137
787.138
787.138
787.138
787.137
787.136
787.135
787.133
787.132
787.131
787.129