/*--------------------------------*- C++ -*----------------------------------*\
| =========                 |                                                 |
| \\      /  F ield         | OpenFOAM: The Open Source CFD Toolbox           |
|  \\    /   O peration     | Version:  3.0.x                                 |
|   \\  /    A nd           | Web:      www.OpenFOAM.org                      |
|    \\/     M anipulation  |                                                 |
\*---------------------------------------------------------------------------*/
FoamFile
{
    version     2.0;
    format      ascii;
    class       volScalarField;
    location    "0.5";
    object      T;
}
// * * * * * * * * * * * * * * * * * * * * * * * * * * * * * * * * * * * * * //

dimensions      [0 0 0 1 0 0 0];

internalField   nonuniform List<scalar> 
6900
(
774.756
774.753
774.75
774.749
774.749
774.75
774.752
774.755
774.757
774.76
774.763
774.766
774.769
774.773
774.777
774.781
774.785
774.79
774.795
774.8
774.806
774.811
774.817
774.823
774.829
774.836
774.843
774.85
774.857
774.864
774.872
774.88
774.889
774.897
774.906
774.916
774.925
774.935
774.945
774.955
774.965
774.974
774.983
774.991
775
775.01
775.02
775.031
775.043
775.055
775.067
775.079
775.09
775.102
775.113
775.124
775.134
775.144
775.155
775.166
775.178
775.191
775.205
775.219
775.234
775.249
775.264
775.278
775.293
775.307
775.322
775.337
775.353
775.369
775.386
775.403
775.421
775.44
775.458
775.477
775.497
775.517
775.536
775.557
775.577
775.598
775.618
775.639
775.66
775.682
775.703
775.725
775.747
775.769
775.791
775.814
775.836
775.859
775.882
775.906
775.929
775.953
775.977
776.001
776.026
776.05
776.076
776.101
776.126
776.152
776.178
776.205
776.231
776.258
776.285
776.312
776.34
776.368
776.396
776.424
776.452
776.481
776.509
776.538
776.567
776.596
776.626
776.655
776.685
776.714
776.744
776.774
776.805
776.835
776.865
776.896
776.927
776.958
776.989
777.02
777.052
777.083
777.115
777.147
777.179
777.212
777.244
777.277
777.31
777.343
777.376
777.41
777.443
777.477
777.511
777.546
777.58
777.615
777.65
777.685
777.72
777.756
777.791
777.827
777.863
777.898
777.934
777.971
778.007
778.043
778.079
778.116
778.152
778.189
778.226
778.262
778.299
778.336
778.372
778.409
778.446
778.483
778.52
778.557
778.593
778.632
778.667
778.707
778.74
778.782
778.814
778.858
778.888
778.934
778.962
779.009
779.037
779.083
779.117
779.152
774.753
774.749
774.746
774.745
774.746
774.747
774.749
774.751
774.754
774.756
774.759
774.763
774.766
774.77
774.774
774.778
774.782
774.787
774.792
774.797
774.802
774.808
774.814
774.82
774.826
774.832
774.839
774.846
774.854
774.861
774.869
774.877
774.886
774.894
774.903
774.912
774.922
774.932
774.942
774.952
774.962
774.971
774.98
774.988
774.997
775.007
775.017
775.028
775.04
775.052
775.064
775.076
775.087
775.099
775.11
775.121
775.131
775.142
775.152
775.163
775.175
775.188
775.202
775.217
775.231
775.246
775.261
775.276
775.29
775.305
775.32
775.335
775.351
775.367
775.384
775.401
775.419
775.437
775.456
775.475
775.495
775.514
775.534
775.554
775.575
775.595
775.616
775.637
775.658
775.68
775.701
775.723
775.745
775.767
775.789
775.811
775.834
775.857
775.88
775.903
775.927
775.951
775.975
775.999
776.023
776.048
776.073
776.098
776.124
776.15
776.176
776.202
776.229
776.256
776.283
776.31
776.338
776.365
776.393
776.422
776.45
776.478
776.507
776.536
776.565
776.594
776.623
776.653
776.682
776.712
776.742
776.772
776.802
776.833
776.863
776.894
776.925
776.956
776.987
777.018
777.049
777.081
777.113
777.145
777.177
777.209
777.242
777.275
777.308
777.341
777.374
777.407
777.441
777.475
777.509
777.543
777.578
777.613
777.648
777.683
777.718
777.753
777.789
777.824
777.86
777.896
777.932
777.968
778.005
778.041
778.077
778.114
778.15
778.187
778.223
778.26
778.297
778.333
778.37
778.407
778.444
778.481
778.517
778.555
778.591
778.63
778.665
778.705
778.738
778.78
778.812
778.856
778.885
778.932
778.959
779.007
779.034
779.083
779.109
779.166
774.753
774.749
774.746
774.746
774.746
774.747
774.749
774.751
774.754
774.756
774.759
774.763
774.766
774.77
774.774
774.778
774.782
774.787
774.792
774.797
774.802
774.808
774.814
774.82
774.826
774.833
774.839
774.846
774.854
774.861
774.869
774.877
774.886
774.894
774.903
774.912
774.922
774.932
774.942
774.952
774.962
774.971
774.98
774.988
774.997
775.007
775.017
775.028
775.04
775.052
775.064
775.076
775.087
775.099
775.11
775.121
775.132
775.142
775.152
775.163
775.175
775.188
775.202
775.217
775.231
775.246
775.261
775.276
775.29
775.305
775.32
775.335
775.351
775.367
775.384
775.401
775.419
775.437
775.456
775.475
775.495
775.514
775.534
775.554
775.575
775.595
775.616
775.637
775.658
775.68
775.701
775.723
775.745
775.767
775.789
775.811
775.834
775.857
775.88
775.903
775.927
775.951
775.975
775.999
776.023
776.048
776.073
776.098
776.124
776.15
776.176
776.202
776.229
776.256
776.283
776.31
776.338
776.365
776.393
776.422
776.45
776.478
776.507
776.536
776.565
776.594
776.623
776.653
776.682
776.712
776.742
776.772
776.802
776.833
776.863
776.894
776.925
776.956
776.987
777.018
777.049
777.081
777.113
777.145
777.177
777.209
777.242
777.275
777.308
777.341
777.374
777.407
777.441
777.475
777.509
777.543
777.578
777.613
777.648
777.683
777.718
777.753
777.789
777.824
777.86
777.896
777.932
777.968
778.005
778.041
778.077
778.114
778.15
778.187
778.223
778.26
778.297
778.333
778.37
778.407
778.444
778.481
778.517
778.555
778.591
778.629
778.665
778.704
778.739
778.778
778.814
778.852
778.89
778.927
778.963
779.004
779.037
779.077
779.115
779.153
774.753
774.749
774.746
774.745
774.746
774.747
774.749
774.751
774.754
774.756
774.759
774.763
774.766
774.77
774.774
774.778
774.782
774.787
774.792
774.797
774.802
774.808
774.814
774.82
774.826
774.832
774.839
774.846
774.854
774.861
774.869
774.877
774.886
774.894
774.903
774.912
774.922
774.932
774.942
774.952
774.962
774.971
774.98
774.988
774.997
775.007
775.017
775.028
775.04
775.052
775.064
775.076
775.087
775.099
775.11
775.121
775.131
775.142
775.152
775.163
775.175
775.188
775.202
775.217
775.231
775.246
775.261
775.276
775.29
775.305
775.32
775.335
775.351
775.367
775.384
775.401
775.419
775.437
775.456
775.475
775.495
775.514
775.534
775.554
775.575
775.595
775.616
775.637
775.658
775.68
775.701
775.723
775.745
775.767
775.789
775.811
775.834
775.857
775.88
775.903
775.927
775.951
775.975
775.999
776.023
776.048
776.073
776.098
776.124
776.15
776.176
776.202
776.229
776.256
776.283
776.31
776.338
776.365
776.393
776.422
776.45
776.478
776.507
776.536
776.565
776.594
776.623
776.653
776.682
776.712
776.742
776.772
776.802
776.833
776.863
776.894
776.925
776.956
776.987
777.018
777.049
777.081
777.113
777.145
777.177
777.209
777.242
777.275
777.308
777.341
777.374
777.407
777.441
777.475
777.509
777.543
777.578
777.613
777.648
777.683
777.718
777.753
777.789
777.824
777.86
777.896
777.932
777.968
778.005
778.041
778.077
778.114
778.15
778.187
778.223
778.26
778.297
778.333
778.37
778.407
778.444
778.48
778.518
778.554
778.592
778.628
778.667
778.701
778.742
778.775
778.818
778.849
778.894
778.922
778.97
778.996
779.046
779.07
779.124
779.145
774.756
774.753
774.75
774.749
774.749
774.75
774.752
774.755
774.757
774.76
774.763
774.766
774.769
774.773
774.777
774.781
774.785
774.79
774.795
774.8
774.806
774.811
774.817
774.823
774.829
774.836
774.843
774.85
774.857
774.864
774.872
774.88
774.889
774.897
774.906
774.916
774.925
774.935
774.945
774.955
774.965
774.974
774.983
774.991
775
775.01
775.02
775.031
775.043
775.055
775.067
775.079
775.09
775.102
775.113
775.124
775.134
775.144
775.155
775.166
775.178
775.191
775.205
775.219
775.234
775.249
775.264
775.278
775.293
775.307
775.322
775.337
775.353
775.369
775.386
775.403
775.421
775.44
775.458
775.477
775.497
775.517
775.536
775.557
775.577
775.598
775.618
775.639
775.66
775.682
775.703
775.725
775.747
775.769
775.791
775.814
775.836
775.859
775.882
775.906
775.929
775.953
775.977
776.001
776.026
776.05
776.076
776.101
776.126
776.152
776.178
776.205
776.231
776.258
776.285
776.312
776.34
776.368
776.396
776.424
776.452
776.481
776.509
776.538
776.567
776.596
776.626
776.655
776.685
776.714
776.744
776.774
776.805
776.835
776.865
776.896
776.927
776.958
776.989
777.02
777.052
777.083
777.115
777.147
777.179
777.212
777.244
777.277
777.31
777.343
777.376
777.41
777.443
777.477
777.511
777.546
777.58
777.615
777.65
777.685
777.72
777.756
777.791
777.827
777.863
777.898
777.934
777.971
778.007
778.043
778.079
778.116
778.152
778.189
778.226
778.262
778.299
778.335
778.372
778.409
778.446
778.483
778.52
778.556
778.595
778.63
778.67
778.703
778.745
778.777
778.82
778.851
778.896
778.924
778.972
778.998
779.048
779.072
779.134
779.139
779.19
779.208
779.221
779.233
779.244
779.255
779.262
779.268
779.274
779.28
779.287
779.303
779.325
779.331
779.325
779.306
779.293
779.296
779.294
779.288
779.185
779.198
779.207
779.216
779.226
779.234
779.24
779.245
779.251
779.257
779.264
779.278
779.302
779.311
779.302
779.278
779.269
779.276
779.281
779.276
779.173
779.181
779.187
779.192
779.198
779.202
779.208
779.213
779.22
779.225
779.231
779.241
779.249
779.256
779.272
779.292
779.306
779.31
779.314
779.322
779.165
779.17
779.176
779.18
779.18
779.181
779.179
779.176
779.175
779.172
779.169
779.168
779.165
779.162
779.164
779.164
779.169
779.172
779.176
779.178
779.135
779.136
779.139
779.141
779.144
779.145
779.146
779.146
779.146
779.146
779.146
779.146
779.146
779.147
779.149
779.148
779.152
779.155
779.163
779.176
779.298
779.298
779.336
779.371
779.375
779.385
779.422
779.468
779.487
779.51
779.538
779.568
779.595
779.625
779.654
779.681
779.709
779.737
779.765
779.792
779.822
779.851
779.879
779.907
779.935
779.963
779.992
780.021
780.051
780.08
780.108
780.137
780.165
780.194
780.223
780.252
780.28
780.308
780.336
780.364
780.392
780.42
780.448
780.476
780.504
780.531
780.559
780.586
780.613
780.641
780.668
780.696
780.723
780.751
780.779
780.806
780.834
780.861
780.888
780.915
780.941
780.967
780.993
781.019
781.045
781.071
781.096
781.122
781.147
781.172
781.197
781.222
781.247
781.272
781.297
781.322
781.347
781.372
781.398
781.423
781.447
781.471
781.495
781.518
781.541
781.565
781.591
781.619
781.644
781.669
781.692
781.713
781.734
781.755
781.777
781.799
781.822
781.848
781.876
781.902
781.92
781.936
781.963
782.001
782.037
782.055
782.062
782.074
782.112
782.208
782.297
782.339
782.344
782.332
782.287
782.247
782.227
782.223
782.235
782.266
782.294
782.318
782.341
782.363
782.384
782.404
782.423
782.442
782.461
782.479
782.498
782.515
782.533
782.551
782.568
782.585
782.602
782.619
782.636
782.652
782.669
782.685
782.701
782.717
782.732
782.748
782.763
782.779
782.794
782.809
782.824
782.838
782.853
782.867
782.882
782.896
782.91
782.924
782.938
782.951
782.965
782.978
782.991
783.004
783.017
783.03
783.043
783.055
783.068
783.08
783.093
783.105
783.117
783.128
783.14
783.151
783.164
783.174
783.187
783.196
783.209
783.217
783.231
783.237
783.252
783.258
783.273
783.278
783.293
783.297
783.312
783.316
783.33
783.334
783.348
783.352
783.364
783.373
783.375
783.391
779.298
779.309
779.36
779.39
779.394
779.419
779.482
779.509
779.519
779.546
779.59
779.612
779.629
779.658
779.693
779.726
779.748
779.767
779.792
779.82
779.851
779.879
779.904
779.929
779.955
779.983
780.012
780.041
780.07
780.098
780.126
780.154
780.183
780.214
780.245
780.274
780.3
780.327
780.354
780.381
780.409
780.437
780.464
780.492
780.519
780.546
780.574
780.601
780.629
780.656
780.684
780.712
780.74
780.768
780.795
780.823
780.85
780.877
780.903
780.929
780.956
780.981
781.007
781.033
781.059
781.084
781.11
781.135
781.161
781.186
781.211
781.236
781.261
781.287
781.313
781.338
781.364
781.389
781.415
781.44
781.463
781.487
781.512
781.539
781.567
781.597
781.628
781.658
781.68
781.698
781.715
781.734
781.754
781.776
781.799
781.825
781.852
781.876
781.895
781.915
781.946
781.985
782.016
782.031
782.039
782.056
782.101
782.179
782.259
782.315
782.334
782.333
782.314
782.269
782.235
782.217
782.212
782.221
782.248
782.274
782.298
782.321
782.342
782.363
782.383
782.402
782.422
782.441
782.459
782.478
782.496
782.514
782.531
782.549
782.566
782.583
782.6
782.617
782.634
782.65
782.667
782.683
782.699
782.715
782.73
782.746
782.761
782.777
782.792
782.807
782.822
782.836
782.851
782.865
782.88
782.894
782.908
782.922
782.936
782.949
782.963
782.976
782.989
783.002
783.015
783.028
783.041
783.054
783.066
783.078
783.091
783.103
783.115
783.126
783.139
783.15
783.162
783.172
783.185
783.194
783.207
783.215
783.229
783.236
783.25
783.256
783.271
783.276
783.291
783.295
783.31
783.314
783.328
783.332
783.346
783.35
783.363
783.368
783.375
783.391
779.401
779.45
779.508
779.557
779.609
779.659
779.701
779.739
779.773
779.807
779.84
779.869
779.896
779.924
779.954
779.981
780.007
780.032
780.059
780.086
780.114
780.142
780.169
780.196
780.224
780.252
780.279
780.307
780.334
780.361
780.388
780.415
780.442
780.47
780.498
780.526
780.554
780.581
780.609
780.636
780.663
780.689
780.716
780.742
780.768
780.794
780.819
780.845
780.872
780.898
780.925
780.952
780.979
781.007
781.035
781.063
781.09
781.118
781.145
781.172
781.198
781.225
781.251
781.277
781.304
781.331
781.358
781.385
781.412
781.439
781.467
781.496
781.525
781.554
781.582
781.61
781.64
781.67
781.698
781.72
781.734
781.735
781.731
781.717
781.698
781.686
781.68
781.677
781.676
781.681
781.696
781.716
781.738
781.762
781.787
781.813
781.839
781.865
781.89
781.913
781.936
781.958
781.979
781.999
782.018
782.037
782.055
782.073
782.09
782.107
782.123
782.14
782.157
782.175
782.194
782.213
782.233
782.253
782.272
782.292
782.311
782.33
782.349
782.368
782.386
782.405
782.424
782.442
782.46
782.478
782.496
782.514
782.532
782.549
782.566
782.583
782.6
782.617
782.634
782.65
782.667
782.683
782.699
782.715
782.73
782.746
782.761
782.777
782.792
782.807
782.822
782.836
782.851
782.865
782.88
782.894
782.908
782.922
782.936
782.949
782.963
782.976
782.989
783.002
783.015
783.028
783.041
783.054
783.066
783.078
783.091
783.103
783.115
783.127
783.138
783.15
783.161
783.173
783.183
783.195
783.205
783.217
783.227
783.238
783.248
783.258
783.268
783.278
783.287
783.299
783.305
783.318
783.325
783.334
783.345
783.353
783.36
783.37
783.378
783.386
779.193
779.235
779.27
779.297
779.331
779.372
779.41
779.442
779.473
779.507
779.541
779.572
779.602
779.634
779.665
779.696
779.725
779.754
779.783
779.813
779.842
779.87
779.898
779.926
779.954
779.982
780.01
780.038
780.065
780.093
780.121
780.148
780.176
780.205
780.233
780.261
780.288
780.316
780.344
780.372
780.4
780.428
780.456
780.484
780.512
780.54
780.568
780.595
780.623
780.65
780.678
780.705
780.732
780.759
780.786
780.813
780.84
780.867
780.894
780.921
780.948
780.975
781.002
781.028
781.055
781.081
781.107
781.132
781.158
781.183
781.208
781.234
781.259
781.283
781.308
781.333
781.357
781.381
781.405
781.429
781.453
781.476
781.498
781.522
781.548
781.574
781.598
781.624
781.652
781.678
781.699
781.72
781.746
781.775
781.802
781.827
781.855
781.886
781.918
781.949
781.981
782.012
782.047
782.091
782.143
782.193
782.227
782.236
782.234
782.22
782.19
782.167
782.153
782.15
782.158
782.185
782.212
782.236
782.26
782.282
782.303
782.324
782.345
782.365
782.384
782.403
782.422
782.441
782.459
782.478
782.496
782.514
782.531
782.549
782.566
782.583
782.6
782.617
782.634
782.65
782.667
782.683
782.699
782.715
782.73
782.746
782.761
782.777
782.792
782.807
782.822
782.836
782.851
782.865
782.88
782.894
782.908
782.922
782.936
782.949
782.963
782.976
782.989
783.002
783.015
783.028
783.041
783.054
783.066
783.078
783.091
783.103
783.115
783.127
783.138
783.15
783.161
783.173
783.183
783.196
783.205
783.218
783.226
783.239
783.246
783.261
783.266
783.281
783.285
783.3
783.305
783.319
783.323
783.337
783.341
783.355
783.359
783.372
783.376
783.387
779.208
779.258
779.3
779.336
779.377
779.419
779.46
779.498
779.536
779.574
779.613
779.649
779.685
779.721
779.758
779.793
779.827
779.859
779.891
779.922
779.953
779.984
780.013
780.042
780.072
780.101
780.13
780.159
780.188
780.216
780.245
780.274
780.303
780.332
780.361
780.389
780.418
780.446
780.474
780.503
780.531
780.559
780.586
780.614
780.641
780.668
780.696
780.723
780.75
780.777
780.804
780.832
780.859
780.886
780.914
780.941
780.968
780.995
781.022
781.048
781.074
781.1
781.126
781.152
781.178
781.203
781.228
781.253
781.278
781.303
781.327
781.351
781.376
781.4
781.424
781.449
781.473
781.497
781.522
781.547
781.571
781.596
781.621
781.647
781.672
781.696
781.719
781.742
781.765
781.789
781.814
781.835
781.852
781.875
781.911
781.951
781.974
781.981
781.991
782.023
782.112
782.201
782.247
782.254
782.245
782.206
782.165
782.142
782.129
782.124
782.126
782.14
782.159
782.177
782.196
782.215
782.235
782.254
782.274
782.293
782.312
782.331
782.35
782.369
782.388
782.407
782.425
782.444
782.462
782.48
782.498
782.516
782.534
782.551
782.568
782.585
782.602
782.619
782.636
782.652
782.669
782.685
782.701
782.717
782.732
782.748
782.763
782.779
782.794
782.809
782.824
782.838
782.853
782.867
782.882
782.896
782.91
782.924
782.937
782.951
782.965
782.978
782.991
783.004
783.017
783.03
783.043
783.056
783.068
783.08
783.093
783.105
783.117
783.129
783.14
783.152
783.163
783.175
783.185
783.198
783.207
783.22
783.228
783.241
783.248
783.262
783.268
783.283
783.287
783.302
783.306
783.321
783.325
783.338
783.346
783.352
783.367
783.37
783.379
783.389
783.398
783.399
783.401
783.401
783.402
783.401
783.401
783.4
783.399
783.398
783.397
783.397
783.396
783.396
783.395
783.395
783.394
783.394
783.393
783.393
783.392
783.393
783.393
783.394
783.393
783.393
783.393
783.392
783.391
783.391
783.392
783.392
783.391
783.392
783.395
783.396
783.397
783.398
783.4
783.404
783.391
783.393
783.394
783.396
783.398
783.4
783.404
783.408
783.41
783.414
783.418
783.421
783.424
783.433
783.442
783.446
783.452
783.46
783.474
783.481
783.393
783.396
783.399
783.402
783.405
783.409
783.415
783.421
783.423
783.424
783.425
783.43
783.434
783.435
783.44
783.457
783.463
783.461
783.462
783.464
783.396
783.399
783.402
783.404
783.408
783.412
783.416
783.421
783.425
783.427
783.429
783.43
783.431
783.435
783.452
783.473
783.476
783.469
783.465
783.455
783.396
783.399
783.408
783.425
783.439
783.448
783.461
783.48
783.501
783.515
783.524
783.541
783.563
783.578
783.587
783.597
783.618
783.638
783.648
783.652
783.658
783.671
783.69
783.699
783.7
783.701
783.706
783.718
783.732
783.734
783.732
783.731
783.736
783.741
783.745
783.749
783.752
783.755
783.757
783.76
783.762
783.764
783.767
783.769
783.771
783.772
783.774
783.776
783.778
783.779
783.781
783.783
783.785
783.787
783.789
783.791
783.793
783.795
783.796
783.797
783.798
783.799
783.8
783.801
783.802
783.803
783.804
783.805
783.806
783.808
783.809
783.813
783.813
783.812
783.812
783.814
783.816
783.819
783.82
783.82
783.821
783.827
783.829
783.829
783.827
783.83
783.848
783.858
783.856
783.848
783.862
783.962
784.04
784.043
783.995
783.895
783.832
783.807
783.801
783.774
783.417
783.436
783.461
783.484
783.491
783.492
783.503
783.534
783.552
783.55
783.551
783.567
783.587
783.584
783.581
783.589
783.616
783.621
783.613
783.605
783.608
783.631
783.646
783.641
783.626
783.619
783.624
783.645
783.654
783.649
783.637
783.631
783.632
783.636
783.639
783.642
783.644
783.645
783.646
783.647
783.649
783.65
783.651
783.652
783.653
783.655
783.656
783.657
783.659
783.66
783.662
783.664
783.665
783.667
783.669
783.67
783.672
783.674
783.676
783.678
783.68
783.681
783.683
783.685
783.687
783.688
783.689
783.691
783.692
783.694
783.698
783.701
783.7
783.7
783.699
783.699
783.701
783.705
783.707
783.707
783.708
783.714
783.718
783.719
783.721
783.727
783.736
783.741
783.751
783.759
783.769
783.793
783.815
783.825
783.846
783.883
783.906
783.91
783.904
783.862
783.524
783.574
783.616
783.661
783.7
783.73
783.758
783.792
783.819
783.828
783.839
783.861
783.879
783.872
783.868
783.882
783.908
783.915
783.888
783.877
783.888
783.912
783.932
783.91
783.876
783.871
783.886
783.912
783.93
783.906
783.874
783.865
783.867
783.871
783.874
783.877
783.878
783.88
783.881
783.882
783.883
783.885
783.886
783.889
783.891
783.893
783.896
783.898
783.9
783.903
783.905
783.908
783.91
783.911
783.914
783.917
783.921
783.925
783.927
783.93
783.933
783.937
783.941
783.945
783.948
783.953
783.959
783.967
783.974
783.978
783.978
783.973
783.932
783.882
783.837
783.802
783.772
783.746
783.725
783.714
783.71
783.711
783.711
783.716
783.719
783.725
783.73
783.734
783.737
783.742
783.741
783.746
783.743
783.744
783.744
783.741
783.739
783.736
783.732
783.725
783.494
783.494
783.491
783.53
783.601
783.6
783.563
783.565
783.646
783.653
783.615
783.61
783.685
783.696
783.651
783.62
783.656
783.748
783.742
783.672
783.628
783.646
783.75
783.768
783.746
783.66
783.628
783.654
783.756
783.766
783.735
783.654
783.626
783.62
783.622
783.626
783.629
783.632
783.635
783.638
783.641
783.644
783.646
783.649
783.652
783.654
783.657
783.659
783.662
783.665
783.667
783.67
783.672
783.675
783.677
783.679
783.681
783.683
783.684
783.685
783.687
783.688
783.689
783.69
783.691
783.692
783.692
783.695
783.698
783.7
783.709
783.765
783.767
783.738
783.715
783.71
783.71
783.711
783.713
783.714
783.715
783.716
783.718
783.723
783.727
783.728
783.731
783.737
783.742
783.743
783.744
783.749
783.768
783.778
783.779
783.774
783.77
783.778
783.839
783.911
783.46
783.48
783.483
783.484
783.506
783.527
783.527
783.521
783.523
783.527
783.538
783.552
783.559
783.552
783.552
783.558
783.58
783.587
783.583
783.577
783.581
783.594
783.613
783.6
783.606
783.601
783.597
783.609
783.627
783.615
783.62
783.609
783.599
783.599
783.604
783.609
783.613
783.617
783.62
783.623
783.626
783.629
783.631
783.634
783.637
783.64
783.642
783.645
783.647
783.649
783.652
783.654
783.656
783.659
783.661
783.663
783.665
783.667
783.669
783.671
783.673
783.674
783.675
783.676
783.677
783.679
783.679
783.68
783.682
783.686
783.701
783.7
783.696
783.694
783.691
783.69
783.692
783.694
783.696
783.698
783.699
783.702
783.703
783.704
783.705
783.708
783.713
783.714
783.716
783.721
783.728
783.729
783.728
783.728
783.734
783.753
783.76
783.759
783.752
783.748
783.773
783.762
783.755
783.748
783.741
783.735
783.729
783.723
783.717
783.713
783.71
783.706
783.702
783.698
783.695
783.693
783.691
783.69
783.688
783.687
783.838
783.826
783.815
783.801
783.789
783.777
783.766
783.755
783.744
783.733
783.724
783.714
783.705
783.694
783.688
783.687
783.689
783.691
783.693
783.698
783.726
783.727
783.729
783.73
783.73
783.73
783.729
783.728
783.728
783.728
783.729
783.731
783.736
783.739
783.744
783.747
783.754
783.757
783.768
783.782
783.932
783.94
783.945
783.948
783.95
783.951
783.951
783.946
783.93
783.907
783.882
783.857
783.833
783.811
783.791
783.771
783.747
783.731
783.736
783.767
783.762
783.784
783.815
783.849
783.881
783.908
783.928
783.942
783.955
783.965
783.963
783.945
783.919
783.885
783.844
783.806
783.771
783.738
783.724
783.733
783.685
783.684
783.689
783.7
783.703
783.705
783.711
783.727
783.739
783.743
783.747
783.757
783.776
783.79
783.793
783.795
783.802
783.817
783.838
783.851
783.855
783.849
783.849
783.855
783.872
783.89
783.895
783.892
783.876
783.87
783.872
783.875
783.878
783.88
783.881
783.882
783.883
783.884
783.885
783.886
783.886
783.887
783.888
783.888
783.888
783.888
783.888
783.888
783.888
783.888
783.888
783.889
783.891
783.894
783.892
783.883
783.882
783.892
783.904
783.905
783.89
783.885
783.891
783.903
783.902
783.893
783.892
783.894
783.898
783.899
783.899
783.899
783.9
783.904
783.904
783.902
783.902
783.91
783.923
783.922
783.919
783.954
784.094
784.148
784.106
783.979
783.899
783.857
783.83
783.806
783.789
783.781
783.778
783.778
783.778
783.778
783.779
783.779
783.779
783.779
783.779
783.778
783.778
783.778
783.778
783.778
783.778
783.777
783.777
783.777
783.776
783.776
783.776
783.775
783.775
783.775
783.775
783.774
783.774
783.774
783.774
783.774
783.774
783.773
783.773
783.773
783.773
783.773
783.773
783.773
783.773
783.773
783.772
783.772
783.772
783.772
783.772
783.771
783.771
783.771
783.771
783.77
783.77
783.77
783.769
783.769
783.769
783.768
783.768
783.768
783.767
783.767
783.766
783.766
783.766
783.766
783.765
783.765
783.765
783.765
783.764
783.764
783.764
783.764
783.764
783.764
783.765
783.765
783.765
783.765
783.765
783.766
783.766
783.766
783.766
783.767
783.767
783.768
783.768
783.769
783.768
783.77
783.769
783.771
783.769
783.772
783.77
783.773
783.771
783.774
783.771
783.775
783.772
783.774
783.775
783.772
783.777
783.774
783.775
783.777
783.702
783.716
783.749
783.772
783.771
783.769
783.785
783.818
783.816
783.804
783.805
783.833
783.849
783.838
783.81
783.807
783.824
783.865
783.876
783.864
783.827
783.804
783.806
783.836
783.872
783.884
783.876
783.837
783.803
783.787
783.788
783.793
783.797
783.798
783.798
783.797
783.794
783.792
783.79
783.788
783.786
783.784
783.782
783.781
783.78
783.779
783.778
783.777
783.777
783.776
783.775
783.776
783.778
783.781
783.782
783.786
783.809
783.833
783.831
783.823
783.795
783.793
783.807
783.81
783.803
783.788
783.781
783.781
783.781
783.784
783.786
783.787
783.788
783.79
783.794
783.796
783.798
783.805
783.811
783.82
783.826
783.837
783.869
783.894
783.904
783.928
783.959
783.976
783.976
783.956
783.88
783.807
783.765
783.751
783.753
783.76
783.766
783.769
783.771
783.773
783.774
783.775
783.775
783.776
783.776
783.776
783.776
783.775
783.775
783.775
783.775
783.775
783.774
783.774
783.774
783.773
783.773
783.773
783.773
783.773
783.772
783.772
783.772
783.772
783.772
783.772
783.772
783.771
783.771
783.771
783.771
783.771
783.771
783.771
783.771
783.77
783.77
783.77
783.77
783.769
783.769
783.769
783.769
783.768
783.768
783.768
783.767
783.767
783.766
783.766
783.766
783.765
783.765
783.765
783.764
783.764
783.764
783.764
783.763
783.763
783.763
783.763
783.763
783.763
783.763
783.763
783.763
783.763
783.763
783.764
783.764
783.764
783.764
783.765
783.765
783.766
783.766
783.767
783.766
783.768
783.767
783.769
783.767
783.77
783.768
783.771
783.769
783.772
783.769
783.773
783.77
783.773
783.771
783.774
783.771
783.775
783.772
783.774
783.773
783.774
783.813
783.856
783.896
783.937
783.969
783.994
784.022
784.056
784.072
784.072
784.081
784.101
784.118
784.106
784.085
784.085
784.102
784.123
784.128
784.111
784.077
784.066
784.08
784.108
784.129
784.13
784.115
784.076
784.031
784.012
784.011
784.013
784.014
784.015
784.016
784.016
784.016
784.016
784.016
784.016
784.016
784.017
784.017
784.017
784.017
784.016
784.017
784.018
784.019
784.019
784.02
784.022
784.028
784.041
784.062
784.096
784.142
784.163
784.15
784.109
784.091
784.1
784.103
784.069
783.992
783.918
783.876
783.845
783.818
783.798
783.788
783.785
783.784
783.786
783.789
783.794
783.798
783.801
783.804
783.807
783.809
783.81
783.811
783.81
783.808
783.806
783.803
783.8
783.798
783.795
783.791
783.786
783.782
783.779
783.777
783.777
783.777
783.777
783.777
783.777
783.777
783.777
783.777
783.777
783.776
783.776
783.776
783.776
783.775
783.775
783.775
783.775
783.774
783.774
783.774
783.773
783.773
783.773
783.773
783.773
783.772
783.772
783.772
783.772
783.772
783.772
783.772
783.771
783.771
783.771
783.771
783.771
783.771
783.771
783.771
783.77
783.77
783.77
783.77
783.769
783.769
783.769
783.769
783.768
783.768
783.768
783.767
783.767
783.766
783.766
783.766
783.765
783.765
783.765
783.764
783.764
783.764
783.764
783.763
783.763
783.763
783.763
783.763
783.763
783.763
783.763
783.763
783.763
783.763
783.764
783.764
783.764
783.764
783.765
783.765
783.766
783.766
783.766
783.766
783.767
783.767
783.768
783.768
783.769
783.769
783.769
783.77
783.771
783.77
783.772
783.77
783.773
783.772
783.772
783.773
783.773
783.772
783.774
783.774
783.775
783.788
783.771
783.766
783.823
783.88
783.856
783.818
783.854
783.939
783.914
783.847
783.86
783.971
783.999
783.962
783.854
783.843
783.932
784.007
784.008
784.003
783.91
783.824
783.852
783.946
783.99
783.988
783.98
783.967
783.849
783.779
783.759
783.759
783.761
783.764
783.766
783.768
783.769
783.77
783.771
783.773
783.773
783.774
783.774
783.775
783.775
783.775
783.775
783.775
783.776
783.776
783.776
783.777
783.78
783.784
783.798
783.896
784.003
784.009
784.008
783.921
783.849
783.877
783.946
783.943
783.878
783.813
783.793
783.789
783.789
783.79
783.791
783.791
783.791
783.794
783.797
783.799
783.8
783.804
783.806
783.807
783.807
783.812
783.828
783.839
783.841
783.838
783.837
783.855
783.933
784
784.017
783.998
783.904
783.808
783.762
783.753
783.758
783.766
783.77
783.772
783.774
783.775
783.775
783.775
783.776
783.775
783.775
783.775
783.775
783.775
783.774
783.774
783.774
783.774
783.773
783.773
783.773
783.773
783.773
783.772
783.772
783.772
783.772
783.772
783.772
783.772
783.771
783.771
783.771
783.771
783.771
783.771
783.771
783.771
783.77
783.77
783.77
783.77
783.769
783.769
783.769
783.769
783.768
783.768
783.768
783.767
783.767
783.766
783.766
783.766
783.765
783.765
783.765
783.764
783.764
783.764
783.764
783.763
783.763
783.763
783.763
783.763
783.763
783.763
783.763
783.763
783.763
783.763
783.764
783.764
783.764
783.764
783.765
783.765
783.765
783.766
783.766
783.767
783.766
783.768
783.767
783.769
783.768
783.77
783.768
783.771
783.769
783.772
783.77
783.773
783.77
783.774
783.771
783.774
783.772
783.774
783.774
783.771
783.777
783.743
783.738
783.739
783.756
783.781
783.786
783.783
783.776
783.782
783.782
783.783
783.789
783.807
783.818
783.812
783.797
783.789
783.794
783.832
783.843
783.853
783.835
783.81
783.783
783.793
783.828
783.841
783.84
783.848
783.808
783.762
783.741
783.74
783.743
783.748
783.75
783.752
783.753
783.754
783.755
783.757
783.758
783.759
783.76
783.761
783.761
783.761
783.762
783.762
783.762
783.763
783.763
783.764
783.767
783.775
783.797
783.805
783.829
783.84
783.852
783.837
783.829
783.799
783.797
783.804
783.793
783.779
783.77
783.769
783.771
783.772
783.774
783.776
783.777
783.778
783.778
783.779
783.782
783.784
783.785
783.789
783.793
783.793
783.793
783.792
783.796
783.811
783.819
783.819