/*--------------------------------*- C++ -*----------------------------------*\
| =========                 |                                                 |
| \\      /  F ield         | OpenFOAM: The Open Source CFD Toolbox           |
|  \\    /   O peration     | Version:  3.0.x                                 |
|   \\  /    A nd           | Web:      www.OpenFOAM.org                      |
|    \\/     M anipulation  |                                                 |
\*---------------------------------------------------------------------------*/
FoamFile
{
    version     2.0;
    format      ascii;
    class       volScalarField;
    location    "0.50995";
    object      p;
}
// * * * * * * * * * * * * * * * * * * * * * * * * * * * * * * * * * * * * * //

dimensions      [1 -1 -2 0 0 0 0];

internalField   nonuniform List<scalar> 
13800
(
1.8067e+07
1.80672e+07
1.80674e+07
1.80677e+07
1.80681e+07
1.80684e+07
1.80689e+07
1.80694e+07
1.80699e+07
1.80705e+07
1.80712e+07
1.80719e+07
1.80726e+07
1.80735e+07
1.80743e+07
1.80752e+07
1.80762e+07
1.80772e+07
1.80783e+07
1.80794e+07
1.80806e+07
1.80819e+07
1.80832e+07
1.80845e+07
1.80859e+07
1.80874e+07
1.80889e+07
1.80905e+07
1.80921e+07
1.80938e+07
1.80955e+07
1.80973e+07
1.80991e+07
1.8101e+07
1.8103e+07
1.8105e+07
1.8107e+07
1.81091e+07
1.81113e+07
1.81135e+07
1.81158e+07
1.81182e+07
1.81205e+07
1.8123e+07
1.81255e+07
1.8128e+07
1.81307e+07
1.81333e+07
1.81361e+07
1.81388e+07
1.81417e+07
1.81446e+07
1.81475e+07
1.81505e+07
1.81536e+07
1.81567e+07
1.81599e+07
1.81631e+07
1.81664e+07
1.81698e+07
1.81732e+07
1.81766e+07
1.81802e+07
1.81838e+07
1.81874e+07
1.81911e+07
1.81949e+07
1.81987e+07
1.82026e+07
1.82065e+07
1.82105e+07
1.82146e+07
1.82187e+07
1.82229e+07
1.82271e+07
1.82314e+07
1.82358e+07
1.82402e+07
1.82447e+07
1.82492e+07
1.82539e+07
1.82585e+07
1.82633e+07
1.82681e+07
1.82729e+07
1.82779e+07
1.82828e+07
1.82879e+07
1.8293e+07
1.82982e+07
1.83034e+07
1.83087e+07
1.83141e+07
1.83195e+07
1.8325e+07
1.83306e+07
1.83362e+07
1.83419e+07
1.83476e+07
1.83534e+07
1.83593e+07
1.83652e+07
1.83713e+07
1.83773e+07
1.83834e+07
1.83896e+07
1.83959e+07
1.84022e+07
1.84086e+07
1.84151e+07
1.84216e+07
1.84281e+07
1.84348e+07
1.84415e+07
1.84482e+07
1.8455e+07
1.84619e+07
1.84689e+07
1.84759e+07
1.84829e+07
1.84901e+07
1.84972e+07
1.85045e+07
1.85118e+07
1.85192e+07
1.85266e+07
1.8534e+07
1.85416e+07
1.85492e+07
1.85568e+07
1.85645e+07
1.85723e+07
1.85801e+07
1.85879e+07
1.85958e+07
1.86038e+07
1.86118e+07
1.86199e+07
1.8628e+07
1.86362e+07
1.86444e+07
1.86526e+07
1.86609e+07
1.86693e+07
1.86777e+07
1.86861e+07
1.86946e+07
1.87031e+07
1.87117e+07
1.87203e+07
1.8729e+07
1.87376e+07
1.87464e+07
1.87551e+07
1.87639e+07
1.87727e+07
1.87816e+07
1.87905e+07
1.87994e+07
1.88083e+07
1.88173e+07
1.88263e+07
1.88353e+07
1.88444e+07
1.88534e+07
1.88625e+07
1.88716e+07
1.88808e+07
1.88899e+07
1.88991e+07
1.89083e+07
1.89175e+07
1.89267e+07
1.89359e+07
1.89452e+07
1.89544e+07
1.89636e+07
1.89729e+07
1.89822e+07
1.89914e+07
1.90007e+07
1.901e+07
1.90192e+07
1.90285e+07
1.90378e+07
1.9047e+07
1.90563e+07
1.90656e+07
1.90748e+07
1.9084e+07
1.90933e+07
1.91025e+07
1.91117e+07
1.91209e+07
1.91301e+07
1.91392e+07
1.91484e+07
1.91575e+07
1.91668e+07
1.91761e+07
1.8067e+07
1.80672e+07
1.80674e+07
1.80677e+07
1.80681e+07
1.80684e+07
1.80689e+07
1.80694e+07
1.80699e+07
1.80705e+07
1.80712e+07
1.80719e+07
1.80726e+07
1.80735e+07
1.80743e+07
1.80752e+07
1.80762e+07
1.80772e+07
1.80783e+07
1.80794e+07
1.80806e+07
1.80819e+07
1.80832e+07
1.80845e+07
1.80859e+07
1.80874e+07
1.80889e+07
1.80905e+07
1.80921e+07
1.80938e+07
1.80955e+07
1.80973e+07
1.80991e+07
1.8101e+07
1.8103e+07
1.8105e+07
1.8107e+07
1.81091e+07
1.81113e+07
1.81135e+07
1.81158e+07
1.81182e+07
1.81205e+07
1.8123e+07
1.81255e+07
1.8128e+07
1.81307e+07
1.81333e+07
1.81361e+07
1.81388e+07
1.81417e+07
1.81446e+07
1.81475e+07
1.81505e+07
1.81536e+07
1.81567e+07
1.81599e+07
1.81631e+07
1.81664e+07
1.81698e+07
1.81732e+07
1.81766e+07
1.81802e+07
1.81838e+07
1.81874e+07
1.81911e+07
1.81949e+07
1.81987e+07
1.82026e+07
1.82065e+07
1.82105e+07
1.82146e+07
1.82187e+07
1.82229e+07
1.82271e+07
1.82314e+07
1.82358e+07
1.82402e+07
1.82447e+07
1.82492e+07
1.82539e+07
1.82585e+07
1.82633e+07
1.82681e+07
1.82729e+07
1.82779e+07
1.82828e+07
1.82879e+07
1.8293e+07
1.82982e+07
1.83034e+07
1.83087e+07
1.83141e+07
1.83195e+07
1.8325e+07
1.83306e+07
1.83362e+07
1.83419e+07
1.83476e+07
1.83534e+07
1.83593e+07
1.83652e+07
1.83713e+07
1.83773e+07
1.83834e+07
1.83896e+07
1.83959e+07
1.84022e+07
1.84086e+07
1.84151e+07
1.84216e+07
1.84281e+07
1.84348e+07
1.84415e+07
1.84482e+07
1.8455e+07
1.84619e+07
1.84689e+07
1.84759e+07
1.84829e+07
1.84901e+07
1.84972e+07
1.85045e+07
1.85118e+07
1.85192e+07
1.85266e+07
1.8534e+07
1.85416e+07
1.85492e+07
1.85568e+07
1.85645e+07
1.85723e+07
1.85801e+07
1.85879e+07
1.85958e+07
1.86038e+07
1.86118e+07
1.86199e+07
1.8628e+07
1.86362e+07
1.86444e+07
1.86526e+07
1.86609e+07
1.86693e+07
1.86777e+07
1.86861e+07
1.86946e+07
1.87031e+07
1.87117e+07
1.87203e+07
1.8729e+07
1.87376e+07
1.87464e+07
1.87551e+07
1.87639e+07
1.87727e+07
1.87816e+07
1.87905e+07
1.87994e+07
1.88083e+07
1.88173e+07
1.88263e+07
1.88353e+07
1.88444e+07
1.88534e+07
1.88625e+07
1.88716e+07
1.88808e+07
1.88899e+07
1.88991e+07
1.89083e+07
1.89175e+07
1.89267e+07
1.89359e+07
1.89452e+07
1.89544e+07
1.89636e+07
1.89729e+07
1.89822e+07
1.89914e+07
1.90007e+07
1.901e+07
1.90192e+07
1.90285e+07
1.90378e+07
1.9047e+07
1.90563e+07
1.90656e+07
1.90748e+07
1.9084e+07
1.90933e+07
1.91025e+07
1.91117e+07
1.91209e+07
1.91301e+07
1.91392e+07
1.91484e+07
1.91575e+07
1.91668e+07
1.91761e+07
1.8067e+07
1.80672e+07
1.80674e+07
1.80677e+07
1.80681e+07
1.80684e+07
1.80689e+07
1.80694e+07
1.80699e+07
1.80705e+07
1.80712e+07
1.80719e+07
1.80726e+07
1.80735e+07
1.80743e+07
1.80752e+07
1.80762e+07
1.80772e+07
1.80783e+07
1.80794e+07
1.80806e+07
1.80819e+07
1.80832e+07
1.80845e+07
1.80859e+07
1.80874e+07
1.80889e+07
1.80905e+07
1.80921e+07
1.80938e+07
1.80955e+07
1.80973e+07
1.80991e+07
1.8101e+07
1.8103e+07
1.8105e+07
1.8107e+07
1.81091e+07
1.81113e+07
1.81135e+07
1.81158e+07
1.81182e+07
1.81205e+07
1.8123e+07
1.81255e+07
1.8128e+07
1.81307e+07
1.81333e+07
1.81361e+07
1.81388e+07
1.81417e+07
1.81446e+07
1.81475e+07
1.81505e+07
1.81536e+07
1.81567e+07
1.81599e+07
1.81631e+07
1.81664e+07
1.81698e+07
1.81732e+07
1.81766e+07
1.81802e+07
1.81838e+07
1.81874e+07
1.81911e+07
1.81949e+07
1.81987e+07
1.82026e+07
1.82065e+07
1.82105e+07
1.82146e+07
1.82187e+07
1.82229e+07
1.82271e+07
1.82314e+07
1.82358e+07
1.82402e+07
1.82447e+07
1.82492e+07
1.82539e+07
1.82585e+07
1.82633e+07
1.82681e+07
1.82729e+07
1.82779e+07
1.82828e+07
1.82879e+07
1.8293e+07
1.82982e+07
1.83034e+07
1.83087e+07
1.83141e+07
1.83195e+07
1.8325e+07
1.83306e+07
1.83362e+07
1.83419e+07
1.83476e+07
1.83534e+07
1.83593e+07
1.83652e+07
1.83713e+07
1.83773e+07
1.83834e+07
1.83896e+07
1.83959e+07
1.84022e+07
1.84086e+07
1.84151e+07
1.84216e+07
1.84281e+07
1.84348e+07
1.84415e+07
1.84482e+07
1.8455e+07
1.84619e+07
1.84689e+07
1.84759e+07
1.84829e+07
1.84901e+07
1.84972e+07
1.85045e+07
1.85118e+07
1.85192e+07
1.85266e+07
1.8534e+07
1.85416e+07
1.85492e+07
1.85568e+07
1.85645e+07
1.85723e+07
1.85801e+07
1.85879e+07
1.85958e+07
1.86038e+07
1.86118e+07
1.86199e+07
1.8628e+07
1.86362e+07
1.86444e+07
1.86526e+07
1.86609e+07
1.86693e+07
1.86777e+07
1.86861e+07
1.86946e+07
1.87031e+07
1.87117e+07
1.87203e+07
1.8729e+07
1.87376e+07
1.87464e+07
1.87551e+07
1.87639e+07
1.87727e+07
1.87816e+07
1.87905e+07
1.87994e+07
1.88083e+07
1.88173e+07
1.88263e+07
1.88353e+07
1.88444e+07
1.88534e+07
1.88625e+07
1.88716e+07
1.88808e+07
1.88899e+07
1.88991e+07
1.89083e+07
1.89175e+07
1.89267e+07
1.89359e+07
1.89452e+07
1.89544e+07
1.89636e+07
1.89729e+07
1.89822e+07
1.89914e+07
1.90007e+07
1.901e+07
1.90192e+07
1.90285e+07
1.90378e+07
1.9047e+07
1.90563e+07
1.90656e+07
1.90748e+07
1.9084e+07
1.90933e+07
1.91025e+07
1.91117e+07
1.91209e+07
1.91301e+07
1.91392e+07
1.91484e+07
1.91575e+07
1.91668e+07
1.91761e+07
1.8067e+07
1.80672e+07
1.80674e+07
1.80677e+07
1.80681e+07
1.80684e+07
1.80689e+07
1.80694e+07
1.80699e+07
1.80705e+07
1.80712e+07
1.80719e+07
1.80726e+07
1.80735e+07
1.80743e+07
1.80752e+07
1.80762e+07
1.80772e+07
1.80783e+07
1.80794e+07
1.80806e+07
1.80819e+07
1.80832e+07
1.80845e+07
1.80859e+07
1.80874e+07
1.80889e+07
1.80905e+07
1.80921e+07
1.80938e+07
1.80955e+07
1.80973e+07
1.80991e+07
1.8101e+07
1.8103e+07
1.8105e+07
1.8107e+07
1.81091e+07
1.81113e+07
1.81135e+07
1.81158e+07
1.81182e+07
1.81205e+07
1.8123e+07
1.81255e+07
1.8128e+07
1.81307e+07
1.81333e+07
1.81361e+07
1.81388e+07
1.81417e+07
1.81446e+07
1.81475e+07
1.81505e+07
1.81536e+07
1.81567e+07
1.81599e+07
1.81631e+07
1.81664e+07
1.81698e+07
1.81732e+07
1.81766e+07
1.81802e+07
1.81838e+07
1.81874e+07
1.81911e+07
1.81949e+07
1.81987e+07
1.82026e+07
1.82065e+07
1.82105e+07
1.82146e+07
1.82187e+07
1.82229e+07
1.82271e+07
1.82314e+07
1.82358e+07
1.82402e+07
1.82447e+07
1.82492e+07
1.82539e+07
1.82585e+07
1.82633e+07
1.82681e+07
1.82729e+07
1.82779e+07
1.82828e+07
1.82879e+07
1.8293e+07
1.82982e+07
1.83034e+07
1.83087e+07
1.83141e+07
1.83195e+07
1.8325e+07
1.83306e+07
1.83362e+07
1.83419e+07
1.83476e+07
1.83534e+07
1.83593e+07
1.83652e+07
1.83713e+07
1.83773e+07
1.83834e+07
1.83896e+07
1.83959e+07
1.84022e+07
1.84086e+07
1.84151e+07
1.84216e+07
1.84281e+07
1.84348e+07
1.84415e+07
1.84482e+07
1.8455e+07
1.84619e+07
1.84689e+07
1.84759e+07
1.84829e+07
1.84901e+07
1.84972e+07
1.85045e+07
1.85118e+07
1.85192e+07
1.85266e+07
1.8534e+07
1.85416e+07
1.85492e+07
1.85568e+07
1.85645e+07
1.85723e+07
1.85801e+07
1.85879e+07
1.85958e+07
1.86038e+07
1.86118e+07
1.86199e+07
1.8628e+07
1.86362e+07
1.86444e+07
1.86526e+07
1.86609e+07
1.86693e+07
1.86777e+07
1.86861e+07
1.86946e+07
1.87031e+07
1.87117e+07
1.87203e+07
1.8729e+07
1.87376e+07
1.87464e+07
1.87551e+07
1.87639e+07
1.87727e+07
1.87816e+07
1.87905e+07
1.87994e+07
1.88083e+07
1.88173e+07
1.88263e+07
1.88353e+07
1.88444e+07
1.88534e+07
1.88625e+07
1.88716e+07
1.88808e+07
1.88899e+07
1.88991e+07
1.89083e+07
1.89175e+07
1.89267e+07
1.89359e+07
1.89452e+07
1.89544e+07
1.89636e+07
1.89729e+07
1.89822e+07
1.89914e+07
1.90007e+07
1.901e+07
1.90192e+07
1.90285e+07
1.90378e+07
1.9047e+07
1.90563e+07
1.90656e+07
1.90748e+07
1.9084e+07
1.90933e+07
1.91025e+07
1.91117e+07
1.91209e+07
1.91301e+07
1.91392e+07
1.91484e+07
1.91575e+07
1.91668e+07
1.9176e+07
1.8067e+07
1.80672e+07
1.80674e+07
1.80677e+07
1.80681e+07
1.80684e+07
1.80689e+07
1.80694e+07
1.80699e+07
1.80705e+07
1.80712e+07
1.80719e+07
1.80726e+07
1.80735e+07
1.80743e+07
1.80752e+07
1.80762e+07
1.80772e+07
1.80783e+07
1.80794e+07
1.80806e+07
1.80819e+07
1.80832e+07
1.80845e+07
1.80859e+07
1.80874e+07
1.80889e+07
1.80905e+07
1.80921e+07
1.80938e+07
1.80955e+07
1.80973e+07
1.80991e+07
1.8101e+07
1.8103e+07
1.8105e+07
1.8107e+07
1.81091e+07
1.81113e+07
1.81135e+07
1.81158e+07
1.81182e+07
1.81205e+07
1.8123e+07
1.81255e+07
1.8128e+07
1.81307e+07
1.81333e+07
1.81361e+07
1.81388e+07
1.81417e+07
1.81446e+07
1.81475e+07
1.81505e+07
1.81536e+07
1.81567e+07
1.81599e+07
1.81631e+07
1.81664e+07
1.81698e+07
1.81732e+07
1.81766e+07
1.81802e+07
1.81838e+07
1.81874e+07
1.81911e+07
1.81949e+07
1.81987e+07
1.82026e+07
1.82065e+07
1.82105e+07
1.82146e+07
1.82187e+07
1.82229e+07
1.82271e+07
1.82314e+07
1.82358e+07
1.82402e+07
1.82447e+07
1.82492e+07
1.82539e+07
1.82585e+07
1.82633e+07
1.82681e+07
1.82729e+07
1.82779e+07
1.82828e+07
1.82879e+07
1.8293e+07
1.82982e+07
1.83034e+07
1.83087e+07
1.83141e+07
1.83195e+07
1.8325e+07
1.83306e+07
1.83362e+07
1.83419e+07
1.83476e+07
1.83534e+07
1.83593e+07
1.83652e+07
1.83713e+07
1.83773e+07
1.83834e+07
1.83896e+07
1.83959e+07
1.84022e+07
1.84086e+07
1.84151e+07
1.84216e+07
1.84281e+07
1.84348e+07
1.84415e+07
1.84482e+07
1.8455e+07
1.84619e+07
1.84689e+07
1.84759e+07
1.84829e+07
1.84901e+07
1.84972e+07
1.85045e+07
1.85118e+07
1.85192e+07
1.85266e+07
1.8534e+07
1.85416e+07
1.85492e+07
1.85568e+07
1.85645e+07
1.85723e+07
1.85801e+07
1.85879e+07
1.85958e+07
1.86038e+07
1.86118e+07
1.86199e+07
1.8628e+07
1.86362e+07
1.86444e+07
1.86526e+07
1.86609e+07
1.86693e+07
1.86777e+07
1.86861e+07
1.86946e+07
1.87031e+07
1.87117e+07
1.87203e+07
1.8729e+07
1.87376e+07
1.87464e+07
1.87551e+07
1.87639e+07
1.87727e+07
1.87816e+07
1.87905e+07
1.87994e+07
1.88083e+07
1.88173e+07
1.88263e+07
1.88353e+07
1.88444e+07
1.88534e+07
1.88625e+07
1.88716e+07
1.88808e+07
1.88899e+07
1.88991e+07
1.89083e+07
1.89175e+07
1.89267e+07
1.89359e+07
1.89452e+07
1.89544e+07
1.89636e+07
1.89729e+07
1.89822e+07
1.89914e+07
1.90007e+07
1.901e+07
1.90192e+07
1.90285e+07
1.90378e+07
1.9047e+07
1.90563e+07
1.90656e+07
1.90748e+07
1.9084e+07
1.90933e+07
1.91025e+07
1.91117e+07
1.91209e+07
1.91301e+07
1.91392e+07
1.91484e+07
1.91575e+07
1.91667e+07
1.91758e+07
1.8067e+07
1.80672e+07
1.80674e+07
1.80677e+07
1.80681e+07
1.80684e+07
1.80689e+07
1.80694e+07
1.80699e+07
1.80705e+07
1.80712e+07
1.80719e+07
1.80726e+07
1.80735e+07
1.80743e+07
1.80752e+07
1.80762e+07
1.80772e+07
1.80783e+07
1.80794e+07
1.80806e+07
1.80819e+07
1.80832e+07
1.80845e+07
1.80859e+07
1.80874e+07
1.80889e+07
1.80905e+07
1.80921e+07
1.80938e+07
1.80955e+07
1.80973e+07
1.80991e+07
1.8101e+07
1.8103e+07
1.8105e+07
1.8107e+07
1.81091e+07
1.81113e+07
1.81135e+07
1.81158e+07
1.81182e+07
1.81205e+07
1.8123e+07
1.81255e+07
1.8128e+07
1.81307e+07
1.81333e+07
1.81361e+07
1.81388e+07
1.81417e+07
1.81446e+07
1.81475e+07
1.81505e+07
1.81536e+07
1.81567e+07
1.81599e+07
1.81631e+07
1.81664e+07
1.81698e+07
1.81732e+07
1.81766e+07
1.81802e+07
1.81838e+07
1.81874e+07
1.81911e+07
1.81949e+07
1.81987e+07
1.82026e+07
1.82065e+07
1.82105e+07
1.82146e+07
1.82187e+07
1.82229e+07
1.82271e+07
1.82314e+07
1.82358e+07
1.82402e+07
1.82447e+07
1.82492e+07
1.82539e+07
1.82585e+07
1.82633e+07
1.82681e+07
1.82729e+07
1.82779e+07
1.82828e+07
1.82879e+07
1.8293e+07
1.82982e+07
1.83034e+07
1.83087e+07
1.83141e+07
1.83195e+07
1.8325e+07
1.83306e+07
1.83362e+07
1.83419e+07
1.83476e+07
1.83534e+07
1.83593e+07
1.83652e+07
1.83713e+07
1.83773e+07
1.83834e+07
1.83896e+07
1.83959e+07
1.84022e+07
1.84086e+07
1.84151e+07
1.84216e+07
1.84281e+07
1.84348e+07
1.84415e+07
1.84482e+07
1.8455e+07
1.84619e+07
1.84689e+07
1.84759e+07
1.84829e+07
1.84901e+07
1.84972e+07
1.85045e+07
1.85118e+07
1.85192e+07
1.85266e+07
1.8534e+07
1.85416e+07
1.85492e+07
1.85568e+07
1.85645e+07
1.85723e+07
1.85801e+07
1.85879e+07
1.85958e+07
1.86038e+07
1.86118e+07
1.86199e+07
1.8628e+07
1.86362e+07
1.86444e+07
1.86526e+07
1.86609e+07
1.86693e+07
1.86777e+07
1.86861e+07
1.86946e+07
1.87031e+07
1.87117e+07
1.87203e+07
1.8729e+07
1.87376e+07
1.87464e+07
1.87551e+07
1.87639e+07
1.87727e+07
1.87816e+07
1.87905e+07
1.87994e+07
1.88083e+07
1.88173e+07
1.88263e+07
1.88353e+07
1.88444e+07
1.88534e+07
1.88625e+07
1.88716e+07
1.88808e+07
1.88899e+07
1.88991e+07
1.89083e+07
1.89175e+07
1.89267e+07
1.89359e+07
1.89452e+07
1.89544e+07
1.89636e+07
1.89729e+07
1.89822e+07
1.89914e+07
1.90007e+07
1.901e+07
1.90192e+07
1.90285e+07
1.90378e+07
1.9047e+07
1.90563e+07
1.90656e+07
1.90748e+07
1.9084e+07
1.90933e+07
1.91025e+07
1.91117e+07
1.91209e+07
1.91301e+07
1.91392e+07
1.91484e+07
1.91575e+07
1.91665e+07
1.91755e+07
1.8067e+07
1.80672e+07
1.80674e+07
1.80677e+07
1.80681e+07
1.80684e+07
1.80689e+07
1.80694e+07
1.80699e+07
1.80705e+07
1.80712e+07
1.80719e+07
1.80726e+07
1.80735e+07
1.80743e+07
1.80752e+07
1.80762e+07
1.80772e+07
1.80783e+07
1.80794e+07
1.80806e+07
1.80819e+07
1.80832e+07
1.80845e+07
1.80859e+07
1.80874e+07
1.80889e+07
1.80905e+07
1.80921e+07
1.80938e+07
1.80955e+07
1.80973e+07
1.80991e+07
1.8101e+07
1.8103e+07
1.8105e+07
1.8107e+07
1.81091e+07
1.81113e+07
1.81135e+07
1.81158e+07
1.81182e+07
1.81205e+07
1.8123e+07
1.81255e+07
1.8128e+07
1.81307e+07
1.81333e+07
1.81361e+07
1.81388e+07
1.81417e+07
1.81446e+07
1.81475e+07
1.81505e+07
1.81536e+07
1.81567e+07
1.81599e+07
1.81631e+07
1.81664e+07
1.81698e+07
1.81732e+07
1.81766e+07
1.81802e+07
1.81838e+07
1.81874e+07
1.81911e+07
1.81949e+07
1.81987e+07
1.82026e+07
1.82065e+07
1.82105e+07
1.82146e+07
1.82187e+07
1.82229e+07
1.82271e+07
1.82314e+07
1.82358e+07
1.82402e+07
1.82447e+07
1.82492e+07
1.82539e+07
1.82585e+07
1.82633e+07
1.82681e+07
1.82729e+07
1.82779e+07
1.82828e+07
1.82879e+07
1.8293e+07
1.82982e+07
1.83034e+07
1.83087e+07
1.83141e+07
1.83195e+07
1.8325e+07
1.83306e+07
1.83362e+07
1.83419e+07
1.83476e+07
1.83534e+07
1.83593e+07
1.83652e+07
1.83713e+07
1.83773e+07
1.83834e+07
1.83896e+07
1.83959e+07
1.84022e+07
1.84086e+07
1.84151e+07
1.84216e+07
1.84281e+07
1.84348e+07
1.84415e+07
1.84482e+07
1.8455e+07
1.84619e+07
1.84689e+07
1.84759e+07
1.84829e+07
1.84901e+07
1.84972e+07
1.85045e+07
1.85118e+07
1.85192e+07
1.85266e+07
1.8534e+07
1.85416e+07
1.85492e+07
1.85568e+07
1.85645e+07
1.85723e+07
1.85801e+07
1.85879e+07
1.85958e+07
1.86038e+07
1.86118e+07
1.86199e+07
1.8628e+07
1.86362e+07
1.86444e+07
1.86526e+07
1.86609e+07
1.86693e+07
1.86777e+07
1.86861e+07
1.86946e+07
1.87031e+07
1.87117e+07
1.87203e+07
1.8729e+07
1.87376e+07
1.87464e+07
1.87551e+07
1.87639e+07
1.87727e+07
1.87816e+07
1.87905e+07
1.87994e+07
1.88083e+07
1.88173e+07
1.88263e+07
1.88353e+07
1.88444e+07
1.88534e+07
1.88625e+07
1.88716e+07
1.88808e+07
1.88899e+07
1.88991e+07
1.89083e+07
1.89175e+07
1.89267e+07
1.89359e+07
1.89452e+07
1.89544e+07
1.89636e+07
1.89729e+07
1.89822e+07
1.89914e+07
1.90007e+07
1.901e+07
1.90192e+07
1.90285e+07
1.90378e+07
1.9047e+07
1.90563e+07
1.90656e+07
1.90748e+07
1.9084e+07
1.90933e+07
1.91025e+07
1.91117e+07
1.91209e+07
1.91301e+07
1.91392e+07
1.91484e+07
1.91575e+07
1.91664e+07
1.91753e+07
1.8067e+07
1.80672e+07
1.80674e+07
1.80677e+07
1.80681e+07
1.80684e+07
1.80689e+07
1.80694e+07
1.80699e+07
1.80705e+07
1.80712e+07
1.80719e+07
1.80726e+07
1.80735e+07
1.80743e+07
1.80752e+07
1.80762e+07
1.80772e+07
1.80783e+07
1.80794e+07
1.80806e+07
1.80819e+07
1.80832e+07
1.80845e+07
1.80859e+07
1.80874e+07
1.80889e+07
1.80905e+07
1.80921e+07
1.80938e+07
1.80955e+07
1.80973e+07
1.80991e+07
1.8101e+07
1.8103e+07
1.8105e+07
1.8107e+07
1.81091e+07
1.81113e+07
1.81135e+07
1.81158e+07
1.81182e+07
1.81205e+07
1.8123e+07
1.81255e+07
1.8128e+07
1.81307e+07
1.81333e+07
1.81361e+07
1.81388e+07
1.81417e+07
1.81446e+07
1.81475e+07
1.81505e+07
1.81536e+07
1.81567e+07
1.81599e+07
1.81631e+07
1.81664e+07
1.81698e+07
1.81732e+07
1.81766e+07
1.81802e+07
1.81838e+07
1.81874e+07
1.81911e+07
1.81949e+07
1.81987e+07
1.82026e+07
1.82065e+07
1.82105e+07
1.82146e+07
1.82187e+07
1.82229e+07
1.82271e+07
1.82314e+07
1.82358e+07
1.82402e+07
1.82447e+07
1.82492e+07
1.82539e+07
1.82585e+07
1.82633e+07
1.82681e+07
1.82729e+07
1.82779e+07
1.82828e+07
1.82879e+07
1.8293e+07
1.82982e+07
1.83034e+07
1.83087e+07
1.83141e+07
1.83195e+07
1.8325e+07
1.83306e+07
1.83362e+07
1.83419e+07
1.83476e+07
1.83534e+07
1.83593e+07
1.83652e+07
1.83713e+07
1.83773e+07
1.83834e+07
1.83896e+07
1.83959e+07
1.84022e+07
1.84086e+07
1.84151e+07
1.84216e+07
1.84281e+07
1.84348e+07
1.84415e+07
1.84482e+07
1.8455e+07
1.84619e+07
1.84689e+07
1.84759e+07
1.84829e+07
1.84901e+07
1.84972e+07
1.85045e+07
1.85118e+07
1.85192e+07
1.85266e+07
1.8534e+07
1.85416e+07
1.85492e+07
1.85568e+07
1.85645e+07
1.85723e+07
1.85801e+07
1.85879e+07
1.85958e+07
1.86038e+07
1.86118e+07
1.86199e+07
1.8628e+07
1.86362e+07
1.86444e+07
1.86526e+07
1.86609e+07
1.86693e+07
1.86777e+07
1.86861e+07
1.86946e+07
1.87031e+07
1.87117e+07
1.87203e+07
1.8729e+07
1.87376e+07
1.87464e+07
1.87551e+07
1.87639e+07
1.87727e+07
1.87816e+07
1.87905e+07
1.87994e+07
1.88083e+07
1.88173e+07
1.88263e+07
1.88353e+07
1.88444e+07
1.88534e+07
1.88625e+07
1.88716e+07
1.88808e+07
1.88899e+07
1.88991e+07
1.89083e+07
1.89175e+07
1.89267e+07
1.89359e+07
1.89452e+07
1.89544e+07
1.89636e+07
1.89729e+07
1.89822e+07
1.89914e+07
1.90007e+07
1.901e+07
1.90192e+07
1.90285e+07
1.90378e+07
1.9047e+07
1.90563e+07
1.90656e+07
1.90748e+07
1.9084e+07
1.90933e+07
1.91025e+07
1.91117e+07
1.91209e+07
1.91301e+07
1.91392e+07
1.91484e+07
1.91574e+07
1.91664e+07
1.91752e+07
1.8067e+07
1.80672e+07
1.80674e+07
1.80677e+07
1.80681e+07
1.80684e+07
1.80689e+07
1.80694e+07
1.80699e+07
1.80705e+07
1.80712e+07
1.80719e+07
1.80726e+07
1.80735e+07
1.80743e+07
1.80752e+07
1.80762e+07
1.80772e+07
1.80783e+07
1.80794e+07
1.80806e+07
1.80819e+07
1.80832e+07
1.80845e+07
1.80859e+07
1.80874e+07
1.80889e+07
1.80905e+07
1.80921e+07
1.80938e+07
1.80955e+07
1.80973e+07
1.80991e+07
1.8101e+07
1.8103e+07
1.8105e+07
1.8107e+07
1.81091e+07
1.81113e+07
1.81135e+07
1.81158e+07
1.81182e+07
1.81205e+07
1.8123e+07
1.81255e+07
1.8128e+07
1.81307e+07
1.81333e+07
1.81361e+07
1.81388e+07
1.81417e+07
1.81446e+07
1.81475e+07
1.81505e+07
1.81536e+07
1.81567e+07
1.81599e+07
1.81631e+07
1.81664e+07
1.81698e+07
1.81732e+07
1.81766e+07
1.81802e+07
1.81838e+07
1.81874e+07
1.81911e+07
1.81949e+07
1.81987e+07
1.82026e+07
1.82065e+07
1.82105e+07
1.82146e+07
1.82187e+07
1.82229e+07
1.82271e+07
1.82314e+07
1.82358e+07
1.82402e+07
1.82447e+07
1.82492e+07
1.82539e+07
1.82585e+07
1.82633e+07
1.82681e+07
1.82729e+07
1.82779e+07
1.82828e+07
1.82879e+07
1.8293e+07
1.82982e+07
1.83034e+07
1.83087e+07
1.83141e+07
1.83195e+07
1.8325e+07
1.83306e+07
1.83362e+07
1.83419e+07
1.83476e+07
1.83534e+07
1.83593e+07
1.83652e+07
1.83713e+07
1.83773e+07
1.83834e+07
1.83896e+07
1.83959e+07
1.84022e+07
1.84086e+07
1.84151e+07
1.84216e+07
1.84281e+07
1.84348e+07
1.84415e+07
1.84482e+07
1.8455e+07
1.84619e+07
1.84689e+07
1.84759e+07
1.84829e+07
1.84901e+07
1.84972e+07
1.85045e+07
1.85118e+07
1.85192e+07
1.85266e+07
1.8534e+07
1.85416e+07
1.85492e+07
1.85568e+07
1.85645e+07
1.85723e+07
1.85801e+07
1.85879e+07
1.85958e+07
1.86038e+07
1.86118e+07
1.86199e+07
1.8628e+07
1.86362e+07
1.86444e+07
1.86526e+07
1.86609e+07
1.86693e+07
1.86777e+07
1.86861e+07
1.86946e+07
1.87031e+07
1.87117e+07
1.87203e+07
1.8729e+07
1.87376e+07
1.87464e+07
1.87551e+07
1.87639e+07
1.87727e+07
1.87816e+07
1.87905e+07
1.87994e+07
1.88083e+07
1.88173e+07
1.88263e+07
1.88353e+07
1.88444e+07
1.88534e+07
1.88625e+07
1.88716e+07
1.88808e+07
1.88899e+07
1.88991e+07
1.89083e+07
1.89175e+07
1.89267e+07
1.89359e+07
1.89452e+07
1.89544e+07
1.89636e+07
1.89729e+07
1.89822e+07
1.89914e+07
1.90007e+07
1.901e+07
1.90192e+07
1.90285e+07
1.90378e+07
1.9047e+07
1.90563e+07
1.90656e+07
1.90748e+07
1.9084e+07
1.90933e+07
1.91025e+07
1.91117e+07
1.91209e+07
1.91301e+07
1.91392e+07
1.91484e+07
1.91574e+07
1.91663e+07
1.91752e+07
1.8067e+07
1.80672e+07
1.80674e+07
1.80677e+07
1.80681e+07
1.80684e+07
1.80689e+07
1.80694e+07
1.80699e+07
1.80705e+07
1.80712e+07
1.80719e+07
1.80726e+07
1.80735e+07
1.80743e+07
1.80752e+07
1.80762e+07
1.80772e+07
1.80783e+07
1.80794e+07
1.80806e+07
1.80819e+07
1.80832e+07
1.80845e+07
1.80859e+07
1.80874e+07
1.80889e+07
1.80905e+07
1.80921e+07
1.80938e+07
1.80955e+07
1.80973e+07
1.80991e+07
1.8101e+07
1.8103e+07
1.8105e+07
1.8107e+07
1.81091e+07
1.81113e+07
1.81135e+07
1.81158e+07
1.81182e+07
1.81205e+07
1.8123e+07
1.81255e+07
1.8128e+07
1.81307e+07
1.81333e+07
1.81361e+07
1.81388e+07
1.81417e+07
1.81446e+07
1.81475e+07
1.81505e+07
1.81536e+07
1.81567e+07
1.81599e+07
1.81631e+07
1.81664e+07
1.81698e+07
1.81732e+07
1.81766e+07
1.81802e+07
1.81838e+07
1.81874e+07
1.81911e+07
1.81949e+07
1.81987e+07
1.82026e+07
1.82065e+07
1.82105e+07
1.82146e+07
1.82187e+07
1.82229e+07
1.82271e+07
1.82314e+07
1.82358e+07
1.82402e+07
1.82447e+07
1.82492e+07
1.82539e+07
1.82585e+07
1.82633e+07
1.82681e+07
1.82729e+07
1.82779e+07
1.82828e+07
1.82879e+07
1.8293e+07
1.82982e+07
1.83034e+07
1.83087e+07
1.83141e+07
1.83195e+07
1.8325e+07
1.83306e+07
1.83362e+07
1.83419e+07
1.83476e+07
1.83534e+07
1.83593e+07
1.83652e+07
1.83713e+07
1.83773e+07
1.83834e+07
1.83896e+07
1.83959e+07
1.84022e+07
1.84086e+07
1.84151e+07
1.84216e+07
1.84281e+07
1.84348e+07
1.84415e+07
1.84482e+07
1.8455e+07
1.84619e+07
1.84689e+07
1.84759e+07
1.84829e+07
1.84901e+07
1.84972e+07
1.85045e+07
1.85118e+07
1.85192e+07
1.85266e+07
1.8534e+07
1.85416e+07
1.85492e+07
1.85568e+07
1.85645e+07
1.85723e+07
1.85801e+07
1.85879e+07
1.85958e+07
1.86038e+07
1.86118e+07
1.86199e+07
1.8628e+07
1.86362e+07
1.86444e+07
1.86526e+07
1.86609e+07
1.86693e+07
1.86777e+07
1.86861e+07
1.86946e+07
1.87031e+07
1.87117e+07
1.87203e+07
1.8729e+07
1.87376e+07
1.87464e+07
1.87551e+07
1.87639e+07
1.87727e+07
1.87816e+07
1.87905e+07
1.87994e+07
1.88083e+07
1.88173e+07
1.88263e+07
1.88353e+07
1.88444e+07
1.88534e+07
1.88625e+07
1.88716e+07
1.88808e+07
1.88899e+07
1.88991e+07
1.89083e+07
1.89175e+07
1.89267e+07
1.89359e+07
1.89452e+07
1.89544e+07
1.89636e+07
1.89729e+07
1.89822e+07
1.89914e+07
1.90007e+07
1.901e+07
1.90192e+07
1.90285e+07
1.90378e+07
1.9047e+07
1.90563e+07
1.90656e+07
1.90748e+07
1.9084e+07
1.90933e+07
1.91025e+07
1.91117e+07
1.91209e+07
1.91301e+07
1.91392e+07
1.91484e+07
1.91574e+07
1.91663e+07
1.91752e+07
1.91847e+07
1.91882e+07
1.91905e+07
1.91923e+07
1.9194e+07
1.91957e+07
1.91974e+07
1.9199e+07
1.92006e+07
1.92023e+07
1.92039e+07
1.92055e+07
1.92072e+07
1.92087e+07
1.92102e+07
1.92117e+07
1.92132e+07
1.92146e+07
1.92159e+07
1.92169e+07
1.91845e+07
1.91877e+07
1.919e+07
1.91918e+07
1.91935e+07
1.91952e+07
1.91969e+07
1.91985e+07
1.92002e+07
1.92019e+07
1.92035e+07
1.92051e+07
1.92068e+07
1.92083e+07
1.92098e+07
1.92113e+07
1.92127e+07
1.92141e+07
1.92154e+07
1.92165e+07
1.91843e+07
1.91876e+07
1.919e+07
1.91918e+07
1.91935e+07
1.91952e+07
1.91969e+07
1.91985e+07
1.92002e+07
1.92018e+07
1.92035e+07
1.92051e+07
1.92067e+07
1.92082e+07
1.92097e+07
1.92112e+07
1.92126e+07
1.9214e+07
1.92153e+07
1.92163e+07
1.91833e+07
1.91857e+07
1.91877e+07
1.91894e+07
1.91911e+07
1.91928e+07
1.91945e+07
1.91961e+07
1.91978e+07
1.91996e+07
1.92012e+07
1.92028e+07
1.92045e+07
1.9206e+07
1.92075e+07
1.9209e+07
1.92104e+07
1.92117e+07
1.9213e+07
1.92142e+07
1.91828e+07
1.91853e+07
1.91875e+07
1.91895e+07
1.91913e+07
1.91931e+07
1.91947e+07
1.91964e+07
1.91979e+07
1.91995e+07
1.92011e+07
1.92026e+07
1.92041e+07
1.92056e+07
1.92071e+07
1.92085e+07
1.92099e+07
1.92113e+07
1.92126e+07
1.92139e+07
1.91797e+07
1.91807e+07
1.91817e+07
1.91829e+07
1.91841e+07
1.91855e+07
1.9187e+07
1.91888e+07
1.91904e+07
1.9192e+07
1.91938e+07
1.91955e+07
1.91971e+07
1.91989e+07
1.92006e+07
1.92022e+07
1.92039e+07
1.92056e+07
1.92074e+07
1.92092e+07
1.91784e+07
1.91796e+07
1.91812e+07
1.91829e+07
1.91846e+07
1.91862e+07
1.91878e+07
1.91892e+07
1.91908e+07
1.91923e+07
1.91938e+07
1.91953e+07
1.91968e+07
1.91983e+07
1.91998e+07
1.92014e+07
1.92031e+07
1.92048e+07
1.92067e+07
1.92087e+07
1.91743e+07
1.91734e+07
1.91728e+07
1.9173e+07
1.91738e+07
1.91749e+07
1.91763e+07
1.91777e+07
1.91794e+07
1.91811e+07
1.91829e+07
1.91848e+07
1.91868e+07
1.91888e+07
1.9191e+07
1.91933e+07
1.91957e+07
1.91983e+07
1.9201e+07
1.92039e+07
1.91734e+07
1.91726e+07
1.91724e+07
1.91729e+07
1.91738e+07
1.9175e+07
1.91763e+07
1.91778e+07
1.91794e+07
1.91811e+07
1.91829e+07
1.91847e+07
1.91866e+07
1.91886e+07
1.91907e+07
1.91929e+07
1.91953e+07
1.91978e+07
1.92005e+07
1.92034e+07
1.91722e+07
1.91702e+07
1.91695e+07
1.91698e+07
1.91705e+07
1.91716e+07
1.91729e+07
1.91744e+07
1.9176e+07
1.91778e+07
1.91796e+07
1.91815e+07
1.91835e+07
1.91856e+07
1.91879e+07
1.91902e+07
1.91927e+07
1.91954e+07
1.91983e+07
1.92015e+07
1.92179e+07
1.92232e+07
1.92297e+07
1.92364e+07
1.92433e+07
1.92501e+07
1.9257e+07
1.92638e+07
1.92707e+07
1.92775e+07
1.92843e+07
1.92911e+07
1.92978e+07
1.93046e+07
1.93114e+07
1.93181e+07
1.93248e+07
1.93315e+07
1.93381e+07
1.93448e+07
1.93514e+07
1.9358e+07
1.93645e+07
1.93711e+07
1.93776e+07
1.93841e+07
1.93905e+07
1.9397e+07
1.94034e+07
1.94098e+07
1.94161e+07
1.94225e+07
1.94288e+07
1.9435e+07
1.94413e+07
1.94475e+07
1.94536e+07
1.94598e+07
1.94659e+07
1.9472e+07
1.94781e+07
1.94841e+07
1.94901e+07
1.9496e+07
1.9502e+07
1.95079e+07
1.95137e+07
1.95195e+07
1.95253e+07
1.95311e+07
1.95368e+07
1.95425e+07
1.95482e+07
1.95538e+07
1.95594e+07
1.9565e+07
1.95705e+07
1.9576e+07
1.95815e+07
1.95869e+07
1.95923e+07
1.95976e+07
1.9603e+07
1.96082e+07
1.96135e+07
1.96187e+07
1.96239e+07
1.96291e+07
1.96342e+07
1.96392e+07
1.96443e+07
1.96493e+07
1.96543e+07
1.96592e+07
1.96641e+07
1.96689e+07
1.96738e+07
1.96786e+07
1.96833e+07
1.9688e+07
1.96927e+07
1.96973e+07
1.97019e+07
1.97065e+07
1.97111e+07
1.97156e+07
1.972e+07
1.97244e+07
1.97288e+07
1.97332e+07
1.97375e+07
1.97418e+07
1.9746e+07
1.97502e+07
1.97544e+07
1.97586e+07
1.97627e+07
1.97668e+07
1.97708e+07
1.97748e+07
1.97788e+07
1.97827e+07
1.97866e+07
1.97904e+07
1.97943e+07
1.9798e+07
1.98018e+07
1.98055e+07
1.98092e+07
1.98128e+07
1.98165e+07
1.982e+07
1.98236e+07
1.98271e+07
1.98306e+07
1.9834e+07
1.98374e+07
1.98408e+07
1.98441e+07
1.98474e+07
1.98507e+07
1.98539e+07
1.98571e+07
1.98603e+07
1.98634e+07
1.98665e+07
1.98696e+07
1.98726e+07
1.98756e+07
1.98786e+07
1.98815e+07
1.98844e+07
1.98872e+07
1.989e+07
1.98928e+07
1.98955e+07
1.98982e+07
1.99009e+07
1.99035e+07
1.99061e+07
1.99087e+07
1.99112e+07
1.99136e+07
1.99161e+07
1.99185e+07
1.99209e+07
1.99232e+07
1.99256e+07
1.99279e+07
1.99301e+07
1.99323e+07
1.99345e+07
1.99367e+07
1.99388e+07
1.99409e+07
1.9943e+07
1.9945e+07
1.9947e+07
1.99489e+07
1.99509e+07
1.99528e+07
1.99547e+07
1.99565e+07
1.99583e+07
1.99601e+07
1.99619e+07
1.99636e+07
1.99653e+07
1.9967e+07
1.99686e+07
1.99702e+07
1.99718e+07
1.99733e+07
1.99748e+07
1.99763e+07
1.99778e+07
1.99792e+07
1.99806e+07
1.9982e+07
1.99834e+07
1.99847e+07
1.9986e+07
1.99873e+07
1.99885e+07
1.99897e+07
1.99909e+07
1.99921e+07
1.99932e+07
1.99943e+07
1.99954e+07
1.99965e+07
1.99975e+07
1.99985e+07
1.99995e+07
2.00005e+07
2.00014e+07
2.00023e+07
2.00032e+07
2.00041e+07
2.0005e+07
1.92178e+07
1.92232e+07
1.92297e+07
1.92364e+07
1.92433e+07
1.92501e+07
1.9257e+07
1.92638e+07
1.92707e+07
1.92775e+07
1.92843e+07
1.92911e+07
1.92978e+07
1.93046e+07
1.93114e+07
1.93181e+07
1.93248e+07
1.93315e+07
1.93381e+07
1.93448e+07
1.93514e+07
1.9358e+07
1.93645e+07
1.93711e+07
1.93776e+07
1.93841e+07
1.93905e+07
1.9397e+07
1.94034e+07
1.94098e+07
1.94161e+07
1.94225e+07
1.94288e+07
1.9435e+07
1.94413e+07
1.94475e+07
1.94536e+07
1.94598e+07
1.94659e+07
1.9472e+07
1.94781e+07
1.94841e+07
1.94901e+07
1.9496e+07
1.9502e+07
1.95079e+07