/*--------------------------------*- C++ -*----------------------------------*\
| =========                 |                                                 |
| \\      /  F ield         | OpenFOAM: The Open Source CFD Toolbox           |
|  \\    /   O peration     | Version:  3.0.x                                 |
|   \\  /    A nd           | Web:      www.OpenFOAM.org                      |
|    \\/     M anipulation  |                                                 |
\*---------------------------------------------------------------------------*/
FoamFile
{
    version     2.0;
    format      ascii;
    class       volScalarField;
    location    "0.50995";
    object      T;
}
// * * * * * * * * * * * * * * * * * * * * * * * * * * * * * * * * * * * * * //

dimensions      [0 0 0 1 0 0 0];

internalField   nonuniform List<scalar> 
13800
(
773.521
773.517
773.515
773.515
773.516
773.518
773.521
773.524
773.528
773.532
773.537
773.542
773.547
773.553
773.559
773.566
773.573
773.58
773.588
773.596
773.604
773.613
773.622
773.632
773.642
773.652
773.663
773.674
773.686
773.698
773.71
773.723
773.736
773.749
773.763
773.777
773.792
773.807
773.823
773.838
773.855
773.871
773.888
773.906
773.924
773.942
773.96
773.979
773.999
774.018
774.039
774.059
774.08
774.102
774.124
774.146
774.169
774.192
774.216
774.24
774.264
774.288
774.313
774.337
774.363
774.388
774.414
774.441
774.469
774.497
774.525
774.554
774.584
774.614
774.644
774.674
774.705
774.736
774.768
774.8
774.832
774.865
774.898
774.931
774.964
774.998
775.033
775.068
775.103
775.14
775.177
775.214
775.252
775.291
775.33
775.369
775.409
775.449
775.489
775.53
775.571
775.612
775.653
775.696
775.738
775.782
775.825
775.87
775.914
775.96
776.005
776.051
776.098
776.145
776.192
776.24
776.289
776.337
776.387
776.436
776.486
776.537
776.587
776.639
776.69
776.742
776.794
776.847
776.9
776.954
777.008
777.062
777.116
777.171
777.227
777.282
777.338
777.394
777.451
777.508
777.565
777.623
777.681
777.739
777.797
777.856
777.915
777.974
778.034
778.093
778.153
778.214
778.274
778.335
778.396
778.457
778.518
778.58
778.641
778.703
778.765
778.828
778.89
778.952
779.015
779.078
779.141
779.204
779.267
779.33
779.393
779.457
779.52
779.583
779.647
779.71
779.774
779.838
779.901
779.965
780.028
780.093
780.154
780.221
780.28
780.349
780.406
780.477
780.531
780.604
780.656
780.732
780.78
780.859
780.903
780.986
781.028
781.11
781.161
781.225
773.506
773.502
773.5
773.5
773.501
773.503
773.506
773.509
773.513
773.518
773.522
773.527
773.533
773.539
773.545
773.551
773.558
773.566
773.573
773.581
773.59
773.599
773.608
773.618
773.628
773.638
773.649
773.66
773.672
773.684
773.696
773.709
773.722
773.736
773.75
773.764
773.779
773.794
773.809
773.825
773.841
773.858
773.875
773.892
773.91
773.929
773.947
773.966
773.986
774.006
774.026
774.046
774.067
774.089
774.111
774.134
774.156
774.18
774.204
774.228
774.252
774.276
774.301
774.325
774.35
774.376
774.402
774.429
774.457
774.485
774.513
774.542
774.572
774.602
774.632
774.662
774.693
774.725
774.757
774.789
774.821
774.854
774.887
774.92
774.954
774.988
775.022
775.057
775.093
775.129
775.166
775.203
775.241
775.28
775.319
775.359
775.399
775.439
775.479
775.52
775.56
775.602
775.643
775.686
775.728
775.772
775.815
775.86
775.905
775.95
775.996
776.042
776.088
776.136
776.183
776.231
776.279
776.328
776.377
776.427
776.477
776.527
776.578
776.629
776.681
776.733
776.785
776.838
776.891
776.944
776.998
777.052
777.107
777.162
777.217
777.273
777.329
777.385
777.442
777.498
777.556
777.613
777.671
777.729
777.788
777.846
777.905
777.965
778.024
778.084
778.144
778.204
778.265
778.325
778.386
778.447
778.509
778.57
778.632
778.694
778.756
778.818
778.881
778.943
779.006
779.068
779.131
779.194
779.257
779.321
779.384
779.447
779.511
779.574
779.638
779.701
779.765
779.828
779.892
779.956
780.018
780.084
780.145
780.212
780.271
780.34
780.396
780.467
780.522
780.595
780.646
780.723
780.77
780.85
780.894
780.977
781.018
781.102
781.147
781.251
773.506
773.502
773.5
773.5
773.501
773.503
773.506
773.509
773.513
773.518
773.522
773.527
773.533
773.539
773.545
773.551
773.558
773.566
773.573
773.581
773.59
773.599
773.608
773.618
773.628
773.638
773.649
773.66
773.672
773.684
773.696
773.709
773.722
773.736
773.75
773.764
773.779
773.794
773.809
773.825
773.841
773.858
773.875
773.892
773.91
773.928
773.947
773.966
773.986
774.005
774.026
774.046
774.067
774.089
774.111
774.134
774.156
774.18
774.204
774.228
774.252
774.276
774.301
774.325
774.35
774.376
774.402
774.429
774.457
774.485
774.513
774.542
774.572
774.602
774.632
774.662
774.693
774.725
774.756
774.789
774.821
774.854
774.887
774.92
774.954
774.987
775.022
775.057
775.093
775.129
775.166
775.203
775.241
775.28
775.319
775.359
775.399
775.439
775.479
775.52
775.56
775.602
775.643
775.686
775.728
775.772
775.815
775.86
775.905
775.95
775.996
776.042
776.088
776.135
776.183
776.231
776.279
776.328
776.377
776.427
776.477
776.527
776.578
776.629
776.681
776.733
776.785
776.838
776.891
776.944
776.998
777.052
777.107
777.162
777.217
777.273
777.329
777.385
777.442
777.498
777.556
777.613
777.671
777.729
777.788
777.846
777.905
777.965
778.024
778.084
778.144
778.204
778.265
778.325
778.386
778.447
778.509
778.57
778.632
778.694
778.756
778.818
778.881
778.943
779.006
779.068
779.131
779.194
779.257
779.321
779.384
779.447
779.511
779.574
779.637
779.701
779.765
779.828
779.892
779.956
780.018
780.084
780.145
780.212
780.271
780.34
780.396
780.467
780.522
780.595
780.646
780.723
780.77
780.85
780.894
780.977
781.018
781.102
781.146
781.251
773.506
773.502
773.5
773.5
773.501
773.503
773.506
773.51
773.513
773.518
773.522
773.527
773.533
773.539
773.545
773.551
773.558
773.566
773.573
773.582
773.59
773.599
773.608
773.618
773.628
773.638
773.649
773.66
773.672
773.684
773.696
773.709
773.722
773.736
773.75
773.764
773.779
773.794
773.809
773.825
773.841
773.858
773.875
773.892
773.91
773.929
773.947
773.966
773.986
774.006
774.026
774.046
774.067
774.089
774.111
774.134
774.157
774.18
774.204
774.228
774.252
774.276
774.301
774.325
774.351
774.376
774.402
774.429
774.457
774.485
774.513
774.543
774.572
774.602
774.632
774.662
774.693
774.725
774.757
774.789
774.821
774.854
774.887
774.92
774.954
774.988
775.022
775.057
775.093
775.129
775.166
775.203
775.241
775.28
775.319
775.359
775.399
775.439
775.479
775.52
775.56
775.602
775.643
775.686
775.728
775.772
775.815
775.86
775.905
775.95
775.996
776.042
776.088
776.135
776.183
776.231
776.279
776.328
776.377
776.427
776.477
776.527
776.578
776.629
776.681
776.733
776.785
776.838
776.891
776.944
776.998
777.052
777.107
777.162
777.217
777.273
777.329
777.385
777.442
777.498
777.556
777.613
777.671
777.729
777.788
777.846
777.905
777.965
778.024
778.084
778.144
778.204
778.265
778.325
778.386
778.447
778.509
778.57
778.632
778.694
778.756
778.818
778.881
778.943
779.006
779.068
779.131
779.194
779.257
779.321
779.384
779.447
779.511
779.574
779.638
779.701
779.765
779.828
779.892
779.956
780.018
780.084
780.145
780.212
780.271
780.339
780.396
780.467
780.522
780.595
780.646
780.723
780.77
780.85
780.894
780.976
781.019
781.102
781.146
781.235
773.506
773.502
773.5
773.501
773.501
773.503
773.506
773.51
773.514
773.518
773.522
773.527
773.533
773.539
773.545
773.551
773.558
773.566
773.574
773.582
773.59
773.599
773.608
773.618
773.628
773.638
773.649
773.66
773.672
773.684
773.696
773.709
773.722
773.736
773.75
773.764
773.779
773.794
773.809
773.825
773.841
773.858
773.875
773.893
773.91
773.929
773.947
773.966
773.986
774.006
774.026
774.046
774.067
774.089
774.111
774.134
774.157
774.18
774.204
774.228
774.252
774.276
774.301
774.325
774.351
774.376
774.402
774.429
774.457
774.485
774.513
774.543
774.572
774.602
774.632
774.663
774.693
774.725
774.757
774.789
774.821
774.854
774.887
774.92
774.954
774.988
775.022
775.057
775.093
775.129
775.166
775.203
775.241
775.28
775.319
775.359
775.399
775.439
775.479
775.52
775.56
775.602
775.643
775.686
775.728
775.772
775.815
775.86
775.905
775.95
775.996
776.042
776.088
776.135
776.183
776.231
776.279
776.328
776.377
776.427
776.477
776.527
776.578
776.629
776.681
776.733
776.785
776.838
776.891
776.944
776.998
777.052
777.107
777.162
777.217
777.273
777.329
777.385
777.442
777.498
777.556
777.613
777.671
777.729
777.788
777.846
777.905
777.965
778.024
778.084
778.144
778.204
778.265
778.325
778.386
778.447
778.509
778.57
778.632
778.694
778.756
778.818
778.881
778.943
779.006
779.068
779.131
779.194
779.257
779.321
779.384
779.447
779.511
779.574
779.637
779.701
779.764
779.828
779.891
779.956
780.018
780.084
780.145
780.212
780.271
780.34
780.396
780.467
780.521
780.595
780.646
780.723
780.77
780.85
780.895
780.975
781.019
781.101
781.144
781.237
773.506
773.502
773.5
773.501
773.501
773.503
773.506
773.51
773.514
773.518
773.522
773.527
773.533
773.539
773.545
773.551
773.558
773.566
773.574
773.582
773.59
773.599
773.608
773.618
773.628
773.638
773.649
773.66
773.672
773.684
773.696
773.709
773.722
773.736
773.75
773.764
773.779
773.794
773.809
773.825
773.841
773.858
773.875
773.893
773.91
773.929
773.947
773.966
773.986
774.006
774.026
774.046
774.067
774.089
774.111
774.134
774.157
774.18
774.204
774.228
774.252
774.276
774.301
774.325
774.351
774.376
774.402
774.429
774.457
774.485
774.513
774.543
774.572
774.602
774.632
774.663
774.693
774.725
774.757
774.789
774.821
774.854
774.887
774.92
774.954
774.988
775.022
775.057
775.093
775.129
775.166
775.203
775.241
775.28
775.319
775.359
775.399
775.439
775.479
775.52
775.56
775.602
775.643
775.686
775.728
775.772
775.815
775.86
775.905
775.95
775.996
776.042
776.088
776.135
776.183
776.231
776.279
776.328
776.377
776.427
776.477
776.527
776.578
776.629
776.681
776.733
776.785
776.838
776.891
776.944
776.998
777.052
777.107
777.162
777.217
777.273
777.329
777.385
777.442
777.498
777.556
777.613
777.671
777.729
777.788
777.846
777.905
777.965
778.024
778.084
778.144
778.204
778.265
778.325
778.386
778.447
778.509
778.57
778.632
778.694
778.756
778.818
778.881
778.943
779.006
779.068
779.131
779.194
779.257
779.321
779.384
779.447
779.511
779.574
779.638
779.701
779.765
779.828
779.892
779.955
780.019
780.083
780.146
780.21
780.273
780.337
780.401
780.461
780.531
780.584
780.659
780.71
780.782
780.839
780.903
780.97
781.024
781.092
781.154
781.209
773.506
773.502
773.5
773.5
773.501
773.503
773.506
773.51
773.513
773.518
773.522
773.527
773.533
773.539
773.545
773.551
773.558
773.566
773.573
773.582
773.59
773.599
773.608
773.618
773.628
773.638
773.649
773.66
773.672
773.684
773.696
773.709
773.722
773.736
773.75
773.764
773.779
773.794
773.809
773.825
773.841
773.858
773.875
773.892
773.91
773.929
773.947
773.966
773.986
774.006
774.026
774.046
774.067
774.089
774.111
774.134
774.157
774.18
774.204
774.228
774.252
774.276
774.301
774.325
774.351
774.376
774.402
774.429
774.457
774.485
774.513
774.543
774.572
774.602
774.632
774.662
774.693
774.725
774.757
774.789
774.821
774.854
774.887
774.92
774.954
774.988
775.022
775.057
775.093
775.129
775.166
775.203
775.241
775.28
775.319
775.359
775.399
775.439
775.479
775.52
775.56
775.602
775.643
775.686
775.728
775.772
775.815
775.86
775.905
775.95
775.996
776.042
776.088
776.135
776.183
776.231
776.279
776.328
776.377
776.427
776.477
776.527
776.578
776.629
776.681
776.733
776.785
776.838
776.891
776.944
776.998
777.052
777.107
777.162
777.217
777.273
777.329
777.385
777.442
777.498
777.556
777.613
777.671
777.729
777.788
777.846
777.905
777.965
778.024
778.084
778.144
778.204
778.265
778.325
778.386
778.447
778.509
778.57
778.632
778.694
778.756
778.818
778.881
778.943
779.006
779.068
779.131
779.194
779.257
779.321
779.384
779.447
779.511
779.574
779.638
779.701
779.765
779.828
779.892
779.955
780.02
780.081
780.148
780.207
780.276
780.333
780.404
780.459
780.531
780.584
780.659
780.709
780.786
780.833
780.913
780.956
781.039
781.079
781.168
781.199
773.506
773.502
773.5
773.5
773.501
773.503
773.506
773.509
773.513
773.518
773.522
773.527
773.533
773.539
773.545
773.551
773.558
773.566
773.573
773.581
773.59
773.599
773.608
773.618
773.628
773.638
773.649
773.66
773.672
773.684
773.696
773.709
773.722
773.736
773.75
773.764
773.779
773.794
773.809
773.825
773.841
773.858
773.875
773.892
773.91
773.928
773.947
773.966
773.986
774.005
774.026
774.046
774.067
774.089
774.111
774.134
774.156
774.18
774.204
774.228
774.252
774.276
774.301
774.325
774.35
774.376
774.402
774.429
774.457
774.485
774.513
774.542
774.572
774.602
774.632
774.662
774.693
774.725
774.756
774.789
774.821
774.854
774.887
774.92
774.954
774.987
775.022
775.057
775.093
775.129
775.166
775.203
775.241
775.28
775.319
775.359
775.399
775.439
775.479
775.52
775.56
775.602
775.643
775.686
775.728
775.772
775.815
775.86
775.905
775.95
775.996
776.042
776.088
776.135
776.183
776.231
776.279
776.328
776.377
776.427
776.477
776.527
776.578
776.629
776.681
776.733
776.785
776.838
776.891
776.944
776.998
777.052
777.107
777.162
777.217
777.273
777.329
777.385
777.442
777.498
777.556
777.613
777.671
777.729
777.788
777.846
777.905
777.965
778.024
778.084
778.144
778.204
778.265
778.325
778.386
778.447
778.509
778.57
778.632
778.694
778.756
778.818
778.881
778.943
779.006
779.068
779.131
779.194
779.257
779.321
779.384
779.447
779.511
779.574
779.638
779.701
779.765
779.828
779.892
779.955
780.02
780.081
780.148
780.207
780.276
780.333
780.404
780.458
780.532
780.583
780.66
780.708
780.786
780.832
780.914
780.955
781.04
781.078
781.183
781.166
773.506
773.502
773.5
773.5
773.501
773.503
773.506
773.509
773.513
773.518
773.522
773.527
773.533
773.539
773.545
773.551
773.558
773.566
773.573
773.581
773.59
773.599
773.608
773.618
773.628
773.638
773.649
773.66
773.672
773.684
773.696
773.709
773.722
773.736
773.75
773.764
773.779
773.794
773.809
773.825
773.841
773.858
773.875
773.892
773.91
773.929
773.947
773.966
773.986
774.006
774.026
774.046
774.067
774.089
774.111
774.134
774.156
774.18
774.204
774.228
774.252
774.276
774.301
774.325
774.35
774.376
774.402
774.429
774.457
774.485
774.513
774.542
774.572
774.602
774.632
774.662
774.693
774.725
774.757
774.789
774.821
774.854
774.887
774.92
774.954
774.988
775.022
775.057
775.093
775.129
775.166
775.203
775.241
775.28
775.319
775.359
775.399
775.439
775.479
775.52
775.56
775.602
775.643
775.686
775.728
775.772
775.815
775.86
775.905
775.95
775.996
776.042
776.088
776.136
776.183
776.231
776.279
776.328
776.377
776.427
776.477
776.527
776.578
776.629
776.681
776.733
776.785
776.838
776.891
776.944
776.998
777.052
777.107
777.162
777.217
777.273
777.329
777.385
777.442
777.498
777.556
777.613
777.671
777.729
777.788
777.846
777.905
777.965
778.024
778.084
778.144
778.204
778.265
778.325
778.386
778.447
778.509
778.57
778.632
778.694
778.756
778.818
778.881
778.943
779.006
779.068
779.131
779.194
779.257
779.321
779.384
779.447
779.511
779.574
779.638
779.701
779.765
779.828
779.892
779.955
780.02
780.081
780.148
780.207
780.276
780.333
780.404
780.458
780.532
780.583
780.66
780.708
780.787
780.832
780.914
780.955
781.04
781.078
781.188
781.132
773.521
773.517
773.515
773.515
773.516
773.518
773.521
773.524
773.528
773.532
773.537
773.542
773.547
773.553
773.559
773.566
773.573
773.58
773.588
773.596
773.604
773.613
773.622
773.632
773.642
773.652
773.663
773.674
773.686
773.698
773.71
773.723
773.736
773.749
773.763
773.777
773.792
773.807
773.823
773.838
773.855
773.871
773.888
773.906
773.924
773.942
773.96
773.979
773.999
774.018
774.039
774.059
774.08
774.102
774.124
774.146
774.169
774.192
774.216
774.24
774.264
774.288
774.313
774.337
774.363
774.388
774.414
774.441
774.469
774.497
774.525
774.554
774.584
774.614
774.644
774.674
774.705
774.736
774.768
774.8
774.832
774.865
774.898
774.931
774.964
774.998
775.033
775.068
775.103
775.14
775.177
775.214
775.252
775.291
775.33
775.369
775.409
775.449
775.489
775.53
775.571
775.612
775.653
775.696
775.738
775.782
775.825
775.87
775.914
775.96
776.005
776.051
776.098
776.145
776.192
776.24
776.289
776.337
776.387
776.436
776.486
776.537
776.587
776.639
776.69
776.742
776.794
776.847
776.9
776.954
777.008
777.062
777.116
777.171
777.227
777.282
777.338
777.394
777.451
777.508
777.565
777.623
777.681
777.739
777.797
777.856
777.915
777.974
778.034
778.093
778.153
778.214
778.274
778.335
778.396
778.457
778.518
778.58
778.641
778.703
778.765
778.828
778.89
778.952
779.015
779.078
779.141
779.204
779.267
779.33
779.393
779.457
779.52
779.583
779.647
779.71
779.774
779.837
779.902
779.964
780.029
780.09
780.157
780.216
780.286
780.342
780.414
780.467
780.541
780.592
780.669
780.717
780.796
780.841
780.923
780.965
781.049
781.087
781.202
781.1
781.306
781.34
781.365
781.381
781.394
781.405
781.417
781.429
781.441
781.453
781.466
781.478
781.492
781.505
781.517
781.528
781.539
781.548
781.554
781.551
781.295
781.321
781.342
781.359
781.375
781.389
781.403
781.414
781.425
781.436
781.446
781.457
781.47
781.48
781.491
781.501
781.51
781.519
781.526
781.528
781.294
781.319
781.338
781.356
781.373
781.387
781.403
781.415
781.427
781.438
781.447
781.456
781.465
781.472
781.483
781.49
781.502
781.509
781.52
781.523
781.279
781.294
781.31
781.324
781.339
781.355
781.372
781.387
781.404
781.42
781.436
781.45
781.467
781.479
781.494
781.505
781.517
781.524
781.534
781.539
781.266
781.285
781.3
781.314
781.327
781.339
781.351
781.362
781.372
781.381
781.391
781.399
781.408
781.416
781.426
781.435
781.444
781.455
781.464
781.477
781.241
781.248
781.258
781.267
781.279
781.291
781.303
781.32
781.335
781.35
781.368
781.384
781.403
781.421
781.441
781.459
781.479
781.496
781.514
781.527
781.229
781.237
781.247
781.26
781.27
781.28
781.288
781.293
781.301
781.304
781.307
781.31
781.313
781.316
781.32
781.325
781.332
781.339
781.352
781.365
781.179
781.179
781.184
781.192
781.2
781.21
781.221
781.232
781.246
781.26
781.275
781.291
781.307
781.323
781.341
781.359
781.378
781.395
781.415
781.432
781.147
781.143
781.145
781.15
781.154
781.161
781.168
781.176
781.184
781.193
781.202
781.212
781.222
781.234
781.246
781.259
781.274
781.291
781.31
781.332
781.127
781.119
781.116
781.121
781.126
781.132
781.141
781.153
781.166
781.181
781.195
781.212
781.227
781.246
781.263
781.284
781.305
781.328
781.352
781.379
781.577
781.597
781.635
781.684
781.732
781.776
781.817
781.858
781.902
781.949
781.997
782.045
782.09
782.134
782.178
782.222
782.267
782.312
782.357
782.402
782.447
782.491
782.535
782.579
782.624
782.668
782.711
782.755
782.798
782.841
782.883
782.926
782.969
783.011
783.054
783.096
783.137
783.179
783.22
783.26
783.301
783.341
783.381
783.421
783.461
783.501
783.54
783.579
783.618
783.656
783.695
783.733
783.772
783.81
783.847
783.884
783.921
783.958
783.994
784.03
784.067
784.102
784.138
784.174
784.209
784.244
784.278
784.312
784.346
784.38
784.414
784.447
784.48
784.513
784.546
784.578
784.61
784.642
784.674
784.705
784.737
784.768
784.799
784.829
784.86
784.89
784.919
784.949
784.978
785.007
785.036
785.064
785.092
785.12
785.148
785.175
785.203
785.23
785.257
785.283
785.31
785.336
785.362
785.387
785.413
785.438
785.463
785.487
785.51
785.534
785.558
785.582
785.606
785.628
785.648
785.666
785.683
785.7
785.717
785.739
785.763
785.786
785.796
785.792
785.79
785.797
785.846
786.04
786.516
787.059
787.588
788.067
788.467
788.768
788.955
789.03
789.034
789.005
788.842
788.316
787.687
787.17
786.78
786.516
786.352
786.255
786.197
786.166
786.159
786.179
786.221
786.255
786.283
786.306
786.327
786.345
786.362
786.378
786.393
786.407
786.421
786.434
786.447
786.459
786.471
786.483
786.495
786.506
786.518
786.528
786.539
786.549
786.56
786.569
786.581
786.588
786.601
786.605
786.62
786.623
786.638
786.64
786.655
786.656
786.672
786.672
786.687
786.687
786.702
786.702
786.716
786.715
786.729
786.728
786.742
786.741
786.755
786.752
786.771
786.77
781.556
781.581
781.618
781.663
781.711
781.755
781.797
781.837
781.88
781.925
781.972
782.019
782.065
782.109
782.153
782.197
782.241
782.286
782.33
782.375
782.42
782.464
782.508
782.552
782.596
782.64
782.684
782.727
782.771
782.813
782.856
782.899
782.941
782.983
783.026
783.068
783.109
783.151
783.192
783.233
783.273
783.313
783.353
783.393
783.433
783.472
783.512
783.551
783.59
783.628
783.666
783.705
783.743
783.781
783.819
783.856
783.893
783.93
783.966
784.002
784.038
784.074
784.109
784.145
784.18
784.215
784.25
784.284
784.318
784.351
784.385
784.418
784.452
784.485
784.517
784.549
784.581
784.613
784.644
784.676
784.707
784.739
784.769
784.8
784.831
784.861
784.89
784.92
784.949
784.978
785.007
785.035
785.063
785.091
785.119
785.146
785.173
785.201
785.228
785.255
785.281
785.307
785.333
785.359
785.384
785.409
785.434
785.459
785.484
785.508
785.531
785.556
785.578
785.6
785.622
785.643
785.662
785.682
785.704
785.727
785.751
785.774
785.791
785.8
785.798
785.793
785.791
785.789
785.781
785.766
785.753
785.749
785.769
785.847
785.965
786.09
786.212
786.322
786.412
786.472
786.485
786.478
786.456
786.408
786.358
786.313
786.276
786.25
786.239
786.242
786.258
786.275
786.291
786.308
786.324
786.34
786.355
786.37
786.385
786.399
786.412
786.425
786.438
786.451
786.463
786.475
786.487
786.498
786.509
786.52
786.531
786.541
786.552
786.561
786.573
786.58
786.593
786.597
786.612
786.615
786.63
786.632
786.647
786.648
786.664
786.664
786.679
786.679
786.694
786.694
786.708
786.708
786.721
786.721
786.734
786.733
786.746
786.745
786.759
786.762
781.551
781.581
781.618
781.664
781.713
781.759
781.801
781.841
781.884
781.93
781.978
782.024
782.069
782.113
782.157
782.201
782.246
782.29
782.335
782.38
782.424
782.469
782.513
782.557
782.601
782.645
782.688
782.732
782.775
782.818
782.861
782.903
782.946
782.988
783.03
783.072
783.114
783.155
783.197
783.237
783.278
783.318
783.358
783.398
783.438
783.477
783.516
783.556
783.594
783.633
783.671
783.709
783.747
783.785
783.823
783.861
783.898
783.934
783.971
784.007
784.043
784.078
784.114
784.149
784.185
784.22
784.254
784.288
784.322
784.356
784.39
784.423
784.456
784.489
784.522
784.554
784.586
784.617
784.649
784.68
784.712
784.743
784.774
784.805
784.835
784.865
784.895
784.924
784.953
784.982
785.011
785.039
785.067
785.095
785.123
785.15
785.178
785.205
785.232
785.258
785.285
785.311
785.337
785.363
785.388
785.414
785.439
785.463
785.488
785.512
785.536
785.56
785.583
785.606
785.629
785.65
785.669
785.688
785.708
785.73
785.755
785.783
785.807
785.818
785.812
785.798
785.774
785.745
785.718
785.695
785.675
785.659
785.652
785.659
785.706
785.789
785.88
785.974
786.064
786.142
786.206
786.252
786.279
786.291
786.291
786.285
786.276
786.27
786.268
786.271
786.278
786.288
786.3
786.314
786.328
786.342
786.357
786.371
786.385
786.399
786.413
786.426
786.438
786.451
786.463
786.475
786.487
786.498
786.509
786.52
786.531
786.541
786.552
786.561
786.572
786.58
786.593
786.597
786.612
786.615
786.63
786.632
786.647
786.648
786.664
786.664
786.679
786.679
786.694
786.694
786.708
786.708
786.721
786.721
786.734
786.733
786.746
786.745
786.758
786.759
781.56
781.612
781.655
781.701
781.749
781.799
781.848
781.897
781.942
781.988
782.034
782.081
782.129
782.177
782.223
782.268
782.313
782.358
782.402
782.447
782.492
782.537
782.581
782.626
782.67
782.714
782.757
782.801
782.844
782.887
782.93
782.972
783.015
783.057
783.099
783.141
783.183
783.225
783.266
783.306
783.347
783.387
783.427
783.467
783.507
783.546
783.586
783.624
783.663
783.702
783.74
783.779
783.817
783.855
783.893
783.93
783.967
784.003
784.04
784.076
784.112
784.148
784.184
784.219
784.254
784.289
784.323
784.358
784.392
784.426
784.459
784.493
784.526
784.558
784.59
784.623
784.655
784.687
784.719
784.75
784.782
784.813
784.844
784.874
784.904
784.934
784.964
784.993
785.022
785.051
785.08
785.108
785.136
785.164
785.192
785.22
785.247
785.274
785.301
785.327
785.354
785.38
785.406
785.431
785.456
785.48
785.505
785.529
785.554
785.577
785.6
785.622
785.643
785.661
785.682
785.701
785.719
785.741
785.765
785.789
785.81
785.826
785.833
785.829
785.821
785.814
785.809
785.805
785.8
785.797
785.8
785.813
785.838
785.874
785.917
785.963
786.008
786.052
786.091
786.125
786.152
786.174
786.191
786.203
786.213
786.222
786.232
786.242
786.253
786.265
786.278
786.291
786.305
786.32
786.334
786.348
786.362
786.376
786.389
786.402
786.415
786.428
786.44
786.452
786.464
786.476
786.487
786.499
786.51
786.521
786.531
786.542
786.552
786.561
786.572
786.58
786.592
786.598
786.611
786.616
786.628
786.634
786.645
786.649
786.663
786.664
786.68
786.679
786.693
786.694
786.708
786.707
786.721
786.721
786.734
786.733
786.746
786.745
786.753
786.759
781.5
781.546
781.594
781.639
781.684
781.727
781.77
781.813
781.859
781.905
781.953
781.999
782.045
782.09
782.135
782.18
782.226
782.271
782.316
782.361
782.406
782.45
782.494
782.538
782.582
782.625
782.669
782.712
782.755
782.799
782.841
782.884
782.926
782.969
783.01
783.052
783.094
783.135
783.176
783.217
783.258
783.299
783.339
783.379
783.419
783.458
783.497
783.536
783.575
783.614
783.652
783.69
783.728
783.766
783.803
783.84
783.877
783.914
783.951
783.987
784.024
784.059
784.095
784.13
784.165
784.2
784.234
784.269
784.303
784.337
784.371
784.404
784.437
784.47
784.503
784.535
784.567
784.599
784.631
784.662
784.693
784.724
784.754
784.785
784.815
784.845
784.875
784.905
784.934
784.963
784.992
785.021
785.049
785.077
785.105
785.133
785.16
785.187
785.214
785.241
785.268
785.294
785.32
785.346
785.371
785.397
785.422
785.447
785.472
785.496
785.52
785.545
785.569
785.593
785.616
785.639
785.662
785.685
785.707
785.727
785.748
785.772
785.797
785.819
785.838
785.852
785.863
785.872
785.879
785.885
785.893
785.904
785.919
785.938
785.961
785.986
786.013
786.039
786.064
786.088
786.11
786.13
786.15
786.168
786.185
786.201
786.217
786.233
786.248
786.264
786.279
786.293
786.308
786.322
786.336
786.35
786.364
786.377
786.39
786.403
786.416
786.429
786.441
786.453
786.465
786.476
786.488
786.499
786.51
786.521
786.531
786.541
786.552
786.562
786.572
786.582
786.59
786.601
786.608
786.619
786.626
786.635
786.645
786.65
786.662
786.666
786.676
786.683
786.689
786.699
786.701
786.714
786.716
786.724
786.732
786.735
786.743
786.749
786.754
786.758
781.566
781.63
781.695
781.76
781.822
781.881
781.938
781.993
782.048
782.102
782.154
782.206
782.256
782.306
782.354
782.401
782.447
782.493
782.539
782.584
782.629
782.674
782.718
782.762
782.806
782.85
782.894
782.937
782.981
783.023
783.066
783.109
783.151
783.194
783.236
783.278
783.32
783.361
783.402
783.443
783.484
783.524
783.564
783.604
783.643
783.683
783.722
783.761
783.8
783.839
783.877
783.916
783.954
783.992
784.029
784.066
784.103
784.14
784.176
784.212
784.248
784.284
784.32
784.355
784.39
784.424
784.459
784.493
784.527
784.56
784.594
784.627
784.66
784.693
784.725
784.758
784.79
784.822
784.853
784.885
784.916
784.946
784.977
785.007
785.037
785.066
785.095
785.124
785.152
785.179
785.207
785.234
785.261
785.288
785.314
785.34
785.364
785.389
785.413
785.437
785.461
785.484
785.508
785.531
785.553
785.574
785.594
785.614
785.633
785.651
785.669
785.687
785.707
785.728
785.75
785.772
785.794
785.813
785.827
785.837
785.842
785.843
785.841
785.839
785.839
785.841
785.847
785.854
785.862
785.872
785.884
785.898
785.915
785.935
785.959
785.984
786.012
786.039
786.066
786.092
786.116
786.138
786.159
786.177
786.195
786.212
786.228
786.243
786.258
786.273
786.287
786.301
786.315
786.328
786.342
786.355
786.368
786.381
786.393
786.406
786.418
786.43
786.442
786.454
786.465
786.477
786.488
786.499
786.51
786.521
786.531
786.542
786.551
786.563
786.571
786.583
786.589
786.602
786.607
786.621
786.624
786.638
786.64
786.655
786.656
786.671
786.672
786.686
786.687
786.701
786.701
786.714
786.714
786.728
786.727
786.74
786.739
786.752
786.751
786.762
781.406
781.454
781.5
781.544
781.589
781.633
781.678
781.723
781.768
781.813
781.858
781.903
781.948
781.994
782.039
782.085
782.13
782.175
782.22
782.264
782.309
782.353
782.397
782.441
782.484
782.528
782.571
782.614
782.657
782.7
782.743
782.785
782.827
782.869
782.911
782.953
782.995
783.036
783.077
783.118
783.158
783.199
783.239
783.279
783.319
783.358
783.398
783.437
783.476
783.515
783.553
783.591
783.629
783.667
783.704
783.741
783.778
783.815
783.852
783.888
783.924
783.96
783.995
784.031
784.066
784.101
784.136
784.17
784.205
784.239
784.272
784.306
784.339
784.372
784.404
784.437
784.469
784.501
784.533
784.565
784.596
784.627
784.657
784.687
784.718
784.748
784.777
784.807
784.836
784.865
784.894
784.923
784.951
784.979
785.006
785.034
785.061
785.088
785.115
785.141
785.167
785.194
785.22
785.245
785.27
785.296
785.32
785.345
785.37
785.394
785.418
785.441
785.465
785.489
785.513
785.536
785.557
785.579
785.603
785.628
785.651
785.674
785.696
785.717
785.736
785.758
785.785
785.814
785.842
785.869
785.892
785.91
785.919
785.918
785.915
785.916
785.926
785.948
785.979
786.015
786.052
786.086
786.118
786.147
786.172
786.195
786.216
786.235
786.252
786.269
786.284
786.299
786.314
786.328
786.341
786.355
786.368
786.381
786.393
786.406
786.418
786.43
786.442
786.454
786.466
786.477
786.488
786.499
786.51
786.521
786.531
786.542
786.551
786.563
786.571
786.583
786.589
786.602
786.607
786.621
786.624
786.638
786.64
786.655
786.656
786.671
786.672
786.686
786.687
786.701
786.701
786.714
786.714
786.728
786.727
786.74
786.739
786.749
786.755
786.761
781.492
781.559
781.626
781.693
781.758
781.822
781.884
781.945
782.005
782.065
782.123
782.18
782.234
782.287
782.339
782.388
782.436
782.483
782.53
782.575
782.62
782.665
782.71
782.754
782.798
782.842
782.885
782.929
782.972
783.015
783.058
783.1
783.143
783.185
783.227
783.269
783.311
783.352
783.394
783.435
783.475
783.516
783.556
783.595
783.635
783.674
783.713
783.752
783.791
783.829
783.868
783.906
783.944
783.982
784.02
784.057
784.093
784.13
784.166
784.202
784.237
784.273
784.308
784.342
784.376
784.41
784.444
784.478
784.511
784.544
784.577
784.609
784.641
784.673
784.705
784.737
784.769
784.8
784.832
784.864
784.895
784.927
784.958
784.989
785.019
785.05
785.079
785.108
785.137
785.165
785.193