/*--------------------------------*- C++ -*----------------------------------*\
| =========                 |                                                 |
| \\      /  F ield         | OpenFOAM: The Open Source CFD Toolbox           |
|  \\    /   O peration     | Version:  3.0.x                                 |
|   \\  /    A nd           | Web:      www.OpenFOAM.org                      |
|    \\/     M anipulation  |                                                 |
\*---------------------------------------------------------------------------*/
FoamFile
{
    version     2.0;
    format      ascii;
    class       volScalarField;
    location    "0.28995";
    object      rho;
}
// * * * * * * * * * * * * * * * * * * * * * * * * * * * * * * * * * * * * * //

dimensions      [1 -3 0 0 0 0 0];

internalField   nonuniform List<scalar> 
13800
(
50.6092
50.6092
50.6092
50.6092
50.6092
50.6092
50.6091
50.609
50.6089
50.6089
50.6089
50.609
50.6092
50.6094
50.6095
50.6096
50.6097
50.6097
50.6098
50.6098
50.6098
50.6098
50.6099
50.6099
50.6099
50.6099
50.6099
50.6098
50.6098
50.6098
50.6098
50.6099
50.6101
50.6103
50.6104
50.6106
50.6107
50.6108
50.6108
50.6108
50.6109
50.6111
50.6113
50.6115
50.6118
50.612
50.6123
50.6125
50.6127
50.6129
50.6131
50.6134
50.6136
50.6139
50.6141
50.6143
50.6145
50.6147
50.615
50.6152
50.6155
50.6159
50.6164
50.6168
50.6173
50.6179
50.6184
50.6189
50.6194
50.6199
50.6204
50.6208
50.6213
50.6218
50.6222
50.6226
50.623
50.6234
50.6238
50.6242
50.6245
50.6249
50.6251
50.6254
50.6256
50.6258
50.626
50.6261
50.6261
50.6261
50.6261
50.626
50.6259
50.6257
50.6255
50.6252
50.6249
50.6245
50.6241
50.6236
50.6231
50.6225
50.622
50.6213
50.6207
50.62
50.6193
50.6185
50.6177
50.617
50.6161
50.6153
50.6145
50.6137
50.6128
50.612
50.6112
50.6104
50.6095
50.6087
50.6079
50.6072
50.6064
50.6057
50.605
50.6043
50.6036
50.603
50.6024
50.6018
50.6012
50.6007
50.6002
50.5997
50.5993
50.5989
50.5985
50.5981
50.5977
50.5974
50.5971
50.5968
50.5965
50.5963
50.5961
50.5958
50.5957
50.5955
50.5953
50.5952
50.595
50.5949
50.5948
50.5947
50.5946
50.5945
50.5944
50.5943
50.5943
50.5942
50.5942
50.5941
50.5941
50.594
50.594
50.594
50.594
50.5939
50.5939
50.5939
50.5939
50.5939
50.5939
50.5939
50.5939
50.5939
50.5939
50.5939
50.5938
50.5938
50.5938
50.5938
50.5938
50.5938
50.5938
50.5938
50.5938
50.5938
50.5938
50.5938
50.5938
50.5938
50.5938
50.5938
50.5938
50.5938
50.5939
50.5941
50.5979
50.5889
50.6102
50.6102
50.6102
50.6102
50.6102
50.6101
50.6101
50.61
50.6099
50.6098
50.6099
50.6099
50.6101
50.6103
50.6104
50.6105
50.6106
50.6107
50.6107
50.6107
50.6107
50.6108
50.6108
50.6108
50.6108
50.6108
50.6108
50.6107
50.6106
50.6106
50.6107
50.6108
50.6109
50.6111
50.6113
50.6114
50.6115
50.6116
50.6116
50.6116
50.6117
50.6119
50.6121
50.6123
50.6126
50.6128
50.613
50.6133
50.6135
50.6137
50.6139
50.6141
50.6144
50.6146
50.6149
50.6151
50.6153
50.6155
50.6157
50.616
50.6163
50.6166
50.6171
50.6175
50.618
50.6186
50.6191
50.6196
50.6201
50.6206
50.6211
50.6215
50.622
50.6224
50.6229
50.6233
50.6237
50.6241
50.6245
50.6248
50.6252
50.6255
50.6258
50.626
50.6262
50.6264
50.6266
50.6267
50.6267
50.6267
50.6267
50.6266
50.6265
50.6263
50.6261
50.6258
50.6255
50.6251
50.6247
50.6242
50.6237
50.6232
50.6226
50.6219
50.6213
50.6206
50.6199
50.6191
50.6184
50.6176
50.6168
50.616
50.6151
50.6143
50.6135
50.6126
50.6118
50.611
50.6102
50.6094
50.6086
50.6078
50.607
50.6063
50.6056
50.6049
50.6043
50.6036
50.603
50.6024
50.6019
50.6013
50.6008
50.6004
50.5999
50.5995
50.5991
50.5987
50.5984
50.598
50.5977
50.5974
50.5972
50.5969
50.5967
50.5965
50.5963
50.5961
50.5959
50.5958
50.5956
50.5955
50.5954
50.5953
50.5952
50.5951
50.595
50.595
50.5949
50.5948
50.5948
50.5947
50.5947
50.5947
50.5946
50.5946
50.5946
50.5946
50.5945
50.5945
50.5945
50.5945
50.5945
50.5945
50.5945
50.5945
50.5945
50.5945
50.5945
50.5945
50.5945
50.5945
50.5945
50.5945
50.5945
50.5945
50.5945
50.5945
50.5945
50.5944
50.5944
50.5944
50.5944
50.5944
50.5944
50.5945
50.5946
50.5946
50.5986
50.586
50.6102
50.6102
50.6102
50.6102
50.6101
50.6101
50.6101
50.61
50.6099
50.6098
50.6099
50.6099
50.6101
50.6103
50.6104
50.6105
50.6106
50.6107
50.6107
50.6107
50.6107
50.6107
50.6108
50.6108
50.6108
50.6108
50.6108
50.6107
50.6106
50.6106
50.6107
50.6108
50.6109
50.6111
50.6113
50.6114
50.6115
50.6116
50.6116
50.6116
50.6117
50.6119
50.6121
50.6123
50.6126
50.6128
50.613
50.6133
50.6135
50.6137
50.6139
50.6141
50.6144
50.6146
50.6149
50.6151
50.6153
50.6155
50.6157
50.616
50.6163
50.6166
50.6171
50.6175
50.618
50.6186
50.6191
50.6196
50.6201
50.6206
50.6211
50.6215
50.622
50.6224
50.6229
50.6233
50.6237
50.6241
50.6245
50.6248
50.6252
50.6255
50.6258
50.626
50.6262
50.6264
50.6266
50.6267
50.6267
50.6267
50.6267
50.6266
50.6265
50.6263
50.6261
50.6258
50.6255
50.6251
50.6247
50.6242
50.6237
50.6232
50.6226
50.6219
50.6213
50.6206
50.6199
50.6191
50.6184
50.6176
50.6168
50.616
50.6151
50.6143
50.6135
50.6126
50.6118
50.611
50.6102
50.6094
50.6086
50.6078
50.607
50.6063
50.6056
50.6049
50.6043
50.6036
50.603
50.6024
50.6019
50.6013
50.6008
50.6004
50.5999
50.5995
50.5991
50.5987
50.5984
50.598
50.5977
50.5974
50.5972
50.5969
50.5967
50.5965
50.5963
50.5961
50.5959
50.5958
50.5956
50.5955
50.5954
50.5953
50.5952
50.5951
50.595
50.595
50.5949
50.5948
50.5948
50.5947
50.5947
50.5947
50.5946
50.5946
50.5946
50.5946
50.5945
50.5945
50.5945
50.5945
50.5945
50.5945
50.5945
50.5945
50.5945
50.5945
50.5945
50.5945
50.5945
50.5945
50.5945
50.5945
50.5945
50.5945
50.5945
50.5945
50.5945
50.5944
50.5944
50.5944
50.5944
50.5944
50.5944
50.5945
50.5946
50.5946
50.5985
50.5864
50.6102
50.6102
50.6102
50.6102
50.6101
50.6101
50.6101
50.6099
50.6099
50.6098
50.6098
50.6099
50.6101
50.6103
50.6104
50.6105
50.6106
50.6107
50.6107
50.6107
50.6107
50.6107
50.6108
50.6108
50.6108
50.6108
50.6108
50.6107
50.6106
50.6106
50.6107
50.6108
50.6109
50.6111
50.6113
50.6114
50.6115
50.6116
50.6116
50.6116
50.6117
50.6119
50.612
50.6123
50.6126
50.6128
50.613
50.6133
50.6135
50.6137
50.6139
50.6141
50.6144
50.6146
50.6149
50.6151
50.6153
50.6155
50.6157
50.616
50.6163
50.6166
50.6171
50.6175
50.618
50.6186
50.6191
50.6196
50.6201
50.6206
50.6211
50.6215
50.622
50.6224
50.6229
50.6233
50.6237
50.6241
50.6245
50.6248
50.6252
50.6255
50.6258
50.626
50.6262
50.6264
50.6266
50.6267
50.6267
50.6267
50.6267
50.6266
50.6265
50.6263
50.6261
50.6258
50.6255
50.6251
50.6247
50.6242
50.6237
50.6232
50.6226
50.6219
50.6213
50.6206
50.6199
50.6191
50.6184
50.6176
50.6168
50.616
50.6151
50.6143
50.6135
50.6126
50.6118
50.611
50.6102
50.6094
50.6086
50.6078
50.607
50.6063
50.6056
50.6049
50.6043
50.6036
50.603
50.6024
50.6019
50.6013
50.6008
50.6004
50.5999
50.5995
50.5991
50.5987
50.5984
50.598
50.5977
50.5974
50.5972
50.5969
50.5967
50.5965
50.5963
50.5961
50.5959
50.5958
50.5956
50.5955
50.5954
50.5953
50.5952
50.5951
50.595
50.595
50.5949
50.5948
50.5948
50.5947
50.5947
50.5947
50.5946
50.5946
50.5946
50.5946
50.5945
50.5945
50.5945
50.5945
50.5945
50.5945
50.5945
50.5945
50.5945
50.5945
50.5945
50.5945
50.5945
50.5945
50.5945
50.5945
50.5945
50.5945
50.5945
50.5945
50.5945
50.5944
50.5944
50.5944
50.5944
50.5944
50.5944
50.5944
50.5945
50.5947
50.5979
50.5903
50.6102
50.6102
50.6102
50.6101
50.6101
50.6101
50.6101
50.6099
50.6099
50.6098
50.6098
50.6099
50.6101
50.6103
50.6104
50.6105
50.6106
50.6107
50.6107
50.6107
50.6107
50.6107
50.6108
50.6108
50.6108
50.6108
50.6108
50.6107
50.6106
50.6106
50.6107
50.6108
50.6109
50.6111
50.6113
50.6114
50.6115
50.6116
50.6116
50.6116
50.6117
50.6119
50.612
50.6123
50.6126
50.6128
50.613
50.6133
50.6135
50.6137
50.6139
50.6141
50.6144
50.6146
50.6149
50.6151
50.6153
50.6155
50.6157
50.616
50.6163
50.6166
50.6171
50.6175
50.618
50.6186
50.6191
50.6196
50.6201
50.6206
50.6211
50.6215
50.622
50.6224
50.6229
50.6233
50.6237
50.6241
50.6245
50.6248
50.6252
50.6255
50.6258
50.626
50.6262
50.6264
50.6266
50.6267
50.6267
50.6267
50.6267
50.6266
50.6265
50.6263
50.6261
50.6258
50.6255
50.6251
50.6247
50.6242
50.6237
50.6232
50.6226
50.6219
50.6213
50.6206
50.6199
50.6191
50.6184
50.6176
50.6168
50.616
50.6151
50.6143
50.6135
50.6126
50.6118
50.611
50.6102
50.6094
50.6086
50.6078
50.607
50.6063
50.6056
50.6049
50.6043
50.6036
50.603
50.6024
50.6019
50.6013
50.6008
50.6004
50.5999
50.5995
50.5991
50.5987
50.5984
50.598
50.5977
50.5974
50.5972
50.5969
50.5967
50.5965
50.5963
50.5961
50.5959
50.5958
50.5956
50.5955
50.5954
50.5953
50.5952
50.5951
50.595
50.595
50.5949
50.5948
50.5948
50.5947
50.5947
50.5947
50.5946
50.5946
50.5946
50.5946
50.5945
50.5945
50.5945
50.5945
50.5945
50.5945
50.5945
50.5945
50.5945
50.5945
50.5945
50.5945
50.5945
50.5945
50.5945
50.5945
50.5945
50.5945
50.5945
50.5945
50.5945
50.5944
50.5944
50.5944
50.5944
50.5944
50.5944
50.5944
50.5945
50.5944
50.5961
50.5884
50.6102
50.6102
50.6102
50.6101
50.6101
50.6101
50.6101
50.6099
50.6099
50.6098
50.6098
50.6099
50.6101
50.6103
50.6104
50.6105
50.6106
50.6107
50.6107
50.6107
50.6107
50.6107
50.6108
50.6108
50.6108
50.6108
50.6108
50.6107
50.6106
50.6106
50.6107
50.6108
50.6109
50.6111
50.6113
50.6114
50.6115
50.6116
50.6116
50.6116
50.6117
50.6119
50.612
50.6123
50.6126
50.6128
50.613
50.6133
50.6135
50.6137
50.6139
50.6141
50.6144
50.6146
50.6149
50.6151
50.6153
50.6155
50.6157
50.616
50.6163
50.6166
50.6171
50.6175
50.618
50.6186
50.6191
50.6196
50.6201
50.6206
50.6211
50.6215
50.622
50.6224
50.6229
50.6233
50.6237
50.6241
50.6245
50.6248
50.6252
50.6255
50.6258
50.626
50.6262
50.6264
50.6266
50.6267
50.6267
50.6267
50.6267
50.6266
50.6265
50.6263
50.6261
50.6258
50.6255
50.6251
50.6247
50.6242
50.6237
50.6232
50.6226
50.6219
50.6213
50.6206
50.6199
50.6191
50.6184
50.6176
50.6168
50.616
50.6151
50.6143
50.6135
50.6126
50.6118
50.611
50.6102
50.6094
50.6086
50.6078
50.607
50.6063
50.6056
50.6049
50.6043
50.6036
50.603
50.6024
50.6019
50.6013
50.6008
50.6004
50.5999
50.5995
50.5991
50.5987
50.5984
50.598
50.5977
50.5974
50.5972
50.5969
50.5967
50.5965
50.5963
50.5961
50.5959
50.5958
50.5956
50.5955
50.5954
50.5953
50.5952
50.5951
50.595
50.595
50.5949
50.5948
50.5948
50.5947
50.5947
50.5947
50.5946
50.5946
50.5946
50.5946
50.5945
50.5945
50.5945
50.5945
50.5945
50.5945
50.5945
50.5945
50.5945
50.5945
50.5945
50.5945
50.5945
50.5945
50.5945
50.5945
50.5945
50.5945
50.5945
50.5945
50.5945
50.5944
50.5944
50.5944
50.5944
50.5944
50.5944
50.5944
50.5944
50.5942
50.5935
50.5917
50.6102
50.6102
50.6102
50.6102
50.6101
50.6101
50.6101
50.6099
50.6099
50.6098
50.6098
50.6099
50.6101
50.6103
50.6104
50.6105
50.6106
50.6107
50.6107
50.6107
50.6107
50.6107
50.6108
50.6108
50.6108
50.6108
50.6108
50.6107
50.6106
50.6106
50.6107
50.6108
50.6109
50.6111
50.6113
50.6114
50.6115
50.6116
50.6116
50.6116
50.6117
50.6119
50.612
50.6123
50.6126
50.6128
50.613
50.6133
50.6135
50.6137
50.6139
50.6141
50.6144
50.6146
50.6149
50.6151
50.6153
50.6155
50.6157
50.616
50.6163
50.6166
50.6171
50.6175
50.618
50.6186
50.6191
50.6196
50.6201
50.6206
50.6211
50.6215
50.622
50.6224
50.6229
50.6233
50.6237
50.6241
50.6245
50.6248
50.6252
50.6255
50.6258
50.626
50.6262
50.6264
50.6266
50.6267
50.6267
50.6267
50.6267
50.6266
50.6265
50.6263
50.6261
50.6258
50.6255
50.6251
50.6247
50.6242
50.6237
50.6232
50.6226
50.6219
50.6213
50.6206
50.6199
50.6191
50.6184
50.6176
50.6168
50.616
50.6151
50.6143
50.6135
50.6126
50.6118
50.611
50.6102
50.6094
50.6086
50.6078
50.607
50.6063
50.6056
50.6049
50.6043
50.6036
50.603
50.6024
50.6019
50.6013
50.6008
50.6004
50.5999
50.5995
50.5991
50.5987
50.5984
50.598
50.5977
50.5974
50.5972
50.5969
50.5967
50.5965
50.5963
50.5961
50.5959
50.5958
50.5956
50.5955
50.5954
50.5953
50.5952
50.5951
50.595
50.595
50.5949
50.5948
50.5948
50.5947
50.5947
50.5947
50.5946
50.5946
50.5946
50.5946
50.5945
50.5945
50.5945
50.5945
50.5945
50.5945
50.5945
50.5945
50.5945
50.5945
50.5945
50.5945
50.5945
50.5945
50.5945
50.5945
50.5945
50.5945
50.5945
50.5945
50.5945
50.5944
50.5944
50.5944
50.5944
50.5944
50.5944
50.5944
50.5943
50.5943
50.5905
50.6022
50.6102
50.6102
50.6102
50.6102
50.6101
50.6101
50.6101
50.61
50.6099
50.6098
50.6099
50.6099
50.6101
50.6103
50.6104
50.6105
50.6106
50.6107
50.6107
50.6107
50.6107
50.6107
50.6108
50.6108
50.6108
50.6108
50.6108
50.6107
50.6106
50.6106
50.6107
50.6108
50.6109
50.6111
50.6113
50.6114
50.6115
50.6116
50.6116
50.6116
50.6117
50.6119
50.6121
50.6123
50.6126
50.6128
50.613
50.6133
50.6135
50.6137
50.6139
50.6141
50.6144
50.6146
50.6149
50.6151
50.6153
50.6155
50.6157
50.616
50.6163
50.6166
50.6171
50.6175
50.618
50.6186
50.6191
50.6196
50.6201
50.6206
50.6211
50.6215
50.622
50.6224
50.6229
50.6233
50.6237
50.6241
50.6245
50.6248
50.6252
50.6255
50.6258
50.626
50.6262
50.6264
50.6266
50.6267
50.6267
50.6267
50.6267
50.6266
50.6265
50.6263
50.6261
50.6258
50.6255
50.6251
50.6247
50.6242
50.6237
50.6232
50.6226
50.6219
50.6213
50.6206
50.6199
50.6191
50.6184
50.6176
50.6168
50.616
50.6151
50.6143
50.6135
50.6126
50.6118
50.611
50.6102
50.6094
50.6086
50.6078
50.607
50.6063
50.6056
50.6049
50.6043
50.6036
50.603
50.6024
50.6019
50.6013
50.6008
50.6004
50.5999
50.5995
50.5991
50.5987
50.5984
50.598
50.5977
50.5974
50.5972
50.5969
50.5967
50.5965
50.5963
50.5961
50.5959
50.5958
50.5956
50.5955
50.5954
50.5953
50.5952
50.5951
50.595
50.595
50.5949
50.5948
50.5948
50.5947
50.5947
50.5947
50.5946
50.5946
50.5946
50.5946
50.5945
50.5945
50.5945
50.5945
50.5945
50.5945
50.5945
50.5945
50.5945
50.5945
50.5945
50.5945
50.5945
50.5945
50.5945
50.5945
50.5945
50.5945
50.5945
50.5945
50.5945
50.5944
50.5944
50.5944
50.5944
50.5944
50.5944
50.5944
50.5942
50.5947
50.5874
50.6312
50.6102
50.6102
50.6102
50.6102
50.6102
50.6101
50.6101
50.61
50.6099
50.6098
50.6099
50.6099
50.6101
50.6103
50.6104
50.6105
50.6106
50.6107
50.6107
50.6107
50.6107
50.6108
50.6108
50.6108
50.6108
50.6108
50.6108
50.6107
50.6106
50.6106
50.6107
50.6108
50.6109
50.6111
50.6113
50.6114
50.6115
50.6116
50.6116
50.6116
50.6117
50.6119
50.6121
50.6123
50.6126
50.6128
50.613
50.6133
50.6135
50.6137
50.6139
50.6141
50.6144
50.6146
50.6149
50.6151
50.6153
50.6155
50.6157
50.616
50.6163
50.6166
50.6171
50.6175
50.618
50.6186
50.6191
50.6196
50.6201
50.6206
50.6211
50.6215
50.622
50.6224
50.6229
50.6233
50.6237
50.6241
50.6245
50.6248
50.6252
50.6255
50.6258
50.626
50.6262
50.6264
50.6266
50.6267
50.6267
50.6267
50.6267
50.6266
50.6265
50.6263
50.6261
50.6258
50.6255
50.6251
50.6247
50.6242
50.6237
50.6232
50.6226
50.6219
50.6213
50.6206
50.6199
50.6191
50.6184
50.6176
50.6168
50.616
50.6151
50.6143
50.6135
50.6126
50.6118
50.611
50.6102
50.6094
50.6086
50.6078
50.607
50.6063
50.6056
50.6049
50.6043
50.6036
50.603
50.6024
50.6019
50.6013
50.6008
50.6004
50.5999
50.5995
50.5991
50.5987
50.5984
50.598
50.5977
50.5974
50.5972
50.5969
50.5967
50.5965
50.5963
50.5961
50.5959
50.5958
50.5956
50.5955
50.5954
50.5953
50.5952
50.5951
50.595
50.595
50.5949
50.5948
50.5948
50.5947
50.5947
50.5947
50.5946
50.5946
50.5946
50.5946
50.5945
50.5945
50.5945
50.5945
50.5945
50.5945
50.5945
50.5945
50.5945
50.5945
50.5945
50.5945
50.5945
50.5945
50.5945
50.5945
50.5945
50.5945
50.5945
50.5945
50.5945
50.5944
50.5944
50.5944
50.5944
50.5944
50.5944
50.5944
50.5942
50.5949
50.5857
50.6465
50.6092
50.6092
50.6092
50.6092
50.6092
50.6092
50.6091
50.609
50.6089
50.6089
50.6089
50.609
50.6092
50.6094
50.6095
50.6096
50.6097
50.6097
50.6098
50.6098
50.6098
50.6098
50.6099
50.6099
50.6099
50.6099
50.6099
50.6098
50.6098
50.6098
50.6098
50.6099
50.6101
50.6103
50.6104
50.6106
50.6107
50.6108
50.6108
50.6108
50.6109
50.6111
50.6113
50.6115
50.6118
50.612
50.6123
50.6125
50.6127
50.6129
50.6131
50.6134
50.6136
50.6139
50.6141
50.6143
50.6145
50.6147
50.615
50.6152
50.6155
50.6159
50.6164
50.6168
50.6173
50.6179
50.6184
50.6189
50.6194
50.6199
50.6204
50.6208
50.6213
50.6218
50.6222
50.6226
50.623
50.6234
50.6238
50.6242
50.6245
50.6249
50.6251
50.6254
50.6256
50.6258
50.626
50.6261
50.6261
50.6261
50.6261
50.626
50.6259
50.6257
50.6255
50.6252
50.6249
50.6245
50.6241
50.6236
50.6231
50.6225
50.622
50.6213
50.6207
50.62
50.6193
50.6185
50.6177
50.617
50.6161
50.6153
50.6145
50.6137
50.6128
50.612
50.6112
50.6104
50.6095
50.6087
50.6079
50.6072
50.6064
50.6057
50.605
50.6043
50.6036
50.603
50.6024
50.6018
50.6012
50.6007
50.6002
50.5997
50.5993
50.5989
50.5985
50.5981
50.5977
50.5974
50.5971
50.5968
50.5965
50.5963
50.5961
50.5958
50.5957
50.5955
50.5953
50.5952
50.595
50.5949
50.5948
50.5947
50.5946
50.5945
50.5944
50.5943
50.5943
50.5942
50.5942
50.5941
50.5941
50.594
50.594
50.594
50.594
50.5939
50.5939
50.5939
50.5939
50.5939
50.5939
50.5939
50.5939
50.5939
50.5939
50.5939
50.5938
50.5938
50.5938
50.5938
50.5938
50.5938
50.5938
50.5938
50.5938
50.5938
50.5938
50.5938
50.5938
50.5938
50.5938
50.5938
50.5938
50.5938
50.5936
50.5944
50.5835
50.6597
50.6836
50.7228
50.7357
50.7375
50.737
50.7367
50.7361
50.7349
50.7333
50.7316
50.7297
50.7276
50.7253
50.7226
50.7194
50.7153
50.7097
50.7024
50.692
50.6761
50.6782
50.7128
50.7263
50.7287
50.7286
50.7286
50.7282
50.7274
50.726
50.7245
50.7228
50.721
50.7188
50.7163
50.7131
50.7091
50.7034
50.696
50.6854
50.6695
50.6728
50.7077
50.7231
50.7264
50.7264
50.7264
50.726
50.725
50.7235
50.7219
50.7201
50.7182
50.7159
50.7134
50.7101
50.7061
50.7003
50.6924
50.6811
50.6638
50.6546
50.6741
50.6804
50.6798
50.6785
50.6776
50.6765
50.675
50.6732
50.6712
50.6692
50.667
50.6645
50.6615
50.6578
50.6533
50.6482
50.6408
50.6309
50.6169
50.6237
50.6361
50.6454
50.652
50.6567
50.6596
50.6609
50.6614
50.6612
50.6605
50.6593
50.6574
50.655
50.6518
50.6479
50.6429
50.6363
50.6287
50.6199
50.6094
50.5711
50.5614
50.5511
50.5403
50.5304
50.5221
50.5159
50.5108
50.5065
50.503
50.5002
50.4982
50.4964
50.4952
50.4937
50.4926
50.4921
50.4928
50.4938
50.4977
50.5129
50.4917
50.4845
50.4853
50.4868
50.4877
50.488
50.4887
50.4891
50.4896
50.4896
50.4897
50.4893
50.4893
50.4891
50.49
50.4913
50.4945
50.5004
50.5112
50.4438
50.3869
50.3438
50.3147
50.2948
50.2795
50.2675
50.2589
50.2531
50.2496
50.2479
50.248
50.2499
50.254
50.262
50.2721
50.2877
50.3054
50.3312
50.3627
50.4291
50.3674
50.3289
50.3071
50.2925
50.2815
50.2725
50.2667
50.2631
50.262
50.2622
50.2641
50.2674
50.2729
50.2812
50.2924
50.3071
50.3248
50.3484
50.3782
50.4106
50.3244
50.2762
50.2479
50.229
50.2128
50.1996
50.1898
50.1841
50.1789
50.177
50.1759
50.1781
50.1816
50.1895
50.2008
50.2159
50.2358
50.2619
50.2973
50.6073
50.5676
50.5567
50.5536
50.5527
50.5524
50.5524
50.5524
50.5524
50.5524
50.5524
50.5524
50.5523
50.5523
50.5523
50.5524
50.5524
50.5525
50.5525
50.5526
50.5526
50.5526
50.5526
50.5527
50.5527
50.5526
50.5527
50.5527
50.5527
50.5528
50.5528
50.5529
50.553
50.553
50.553
50.553
50.553
50.5529
50.5529
50.553
50.553
50.5531
50.5531
50.5532
50.5533
50.5534
50.5534
50.5535
50.5536
50.5537
50.5538
50.5539
50.554
50.5541
50.5543
50.5544
50.5546
50.5547
50.5549
50.555
50.5551
50.5553
50.5554
50.5556
50.5557
50.5559
50.5561
50.5564
50.5566
50.5569
50.5571
50.5574
50.5576
50.5579
50.5581
50.5584
50.5588
50.5591
50.5594
50.5598
50.5602
50.5606
50.5611
50.5616
50.5621
50.5625
50.563
50.5634
50.564
50.5645
50.5653
50.5663
50.5674
50.5684
50.5693
50.5703
50.571
50.5716
50.5721
50.5725
50.5727
50.572
50.5681
50.553
50.5132
50.4656
50.421
50.3825
50.3526
50.3321
50.3207
50.3166
50.3165
50.3214
50.3447
50.3955
50.4438
50.4843
50.5162
50.5397
50.5559
50.5665
50.5728
50.5761
50.5776
50.5779
50.5775
50.5769
50.5759
50.5748
50.5737
50.5728
50.572
50.5711
50.5704
50.5696
50.5689
50.5682
50.5675
50.5668
50.5661
50.5654
50.5648
50.5641
50.5634
50.5628
50.5621
50.5615
50.5609
50.5603
50.5597
50.5591
50.5585
50.5579
50.5574
50.5568
50.5563
50.5558
50.5553
50.5548
50.5544
50.5539
50.5535
50.5531
50.5527
50.5523
50.552
50.5516
50.5513
50.551
50.5507
50.5505
50.5502
50.55
50.5498
50.5496
50.5495
50.5493
50.5492
50.5491
50.549
50.5489
50.5488
50.5487
50.5487
50.5487
50.5487
50.5487
50.5487
50.5488
50.5488
50.5489
50.549
50.5491
50.5492
50.5492
50.549
50.5495
50.5397
50.5942
50.6072
50.57
50.5594
50.5566
50.5557
50.5555
50.5555
50.5556
50.5556
50.5556
50.5556
50.5556
50.5556
50.5555
50.5555
50.5555
50.5556
50.5556
50.5557
50.5557
50.5558
50.5558
50.5558
50.5559
50.5559
50.5559
50.5559
50.5559
50.5559
50.556
50.556
50.5561
50.5561
50.5562
50.5562
50.5563
50.5563
50.5562
50.5562
50.5562
50.5562
50.5563
50.5564
50.5564
50.5565
50.5566
50.5567
50.5568
50.5569
50.557
50.5571
50.5572
50.5573
50.5574
50.5575
50.5577
50.5578
50.558
50.5581
50.5583
50.5585
50.5586
50.5588
50.5589
50.5591
50.5592
50.5594
50.5597
50.5599
50.5601
50.5604
50.5607
50.561
50.5612
50.5615
50.5618
50.5621
50.5624
50.5627
50.5631
50.5635
50.5639
50.5643
50.5647
50.5652
50.5656
50.5661
50.5666
50.5671
50.5677
50.5683
50.569
50.5696
50.5703
50.5709
50.5714
50.572
50.5726
50.5733
50.5748
50.5778
50.5814
50.5848
50.5879
50.5904
50.5919
50.5926
50.5929
50.5926
50.5903
50.582
50.5695
50.5586
50.5502
50.5447
50.5418
50.5409
50.541
50.5432
50.5501
50.5577
50.5638
50.5683
50.5715
50.5735
50.5746
50.5751
50.5751
50.5749
50.5744
50.5738
50.5732
50.5725
50.5717
50.571
50.5702
50.5695
50.5688
50.5681
50.5674
50.5667
50.566
50.5654
50.5647
50.5641
50.5634
50.5628
50.5621
50.5615
50.5609
50.5603
50.5597
50.5591
50.5585
50.558
50.5575
50.5569
50.5564
50.5559
50.5554
50.555
50.5545
50.5541
50.5537
50.5533
50.5529
50.5526
50.5523
50.5519
50.5516
50.5514
50.5511
50.5509
50.5506
50.5504
50.5502
50.5501
50.5499
50.5498
50.5497
50.5496
50.5495
50.5494
50.5494
50.5493
50.5493
50.5493
50.5493
50.5493
50.5494
50.5494
50.5495
50.5496
50.5497
50.5498
50.5498
50.5497
50.55
50.5414
50.5848
50.6072
50.5711
50.5599
50.5565
50.5553
50.5549
50.5549
50.5549
50.5549
50.5549
50.5549
50.5549
50.5549
50.5549
50.5548
50.5549
50.5549
50.5549
50.555
50.555
50.5551
50.5551
50.5551
50.5552
50.5552
50.5552
50.5552
50.5552
50.5552
50.5553
50.5553
50.5554
50.5555
50.5555
50.5556
50.5556
50.5556
50.5556
50.5556
50.5555
50.5556
50.5556
50.5557
50.5557
50.5558
50.5559
50.556
50.5561
50.5562
50.5563
50.5564
50.5565
50.5566
50.5567
50.5568
50.557
50.5571
50.5573
50.5575
50.5576
50.5578
50.5579
50.5581
50.5582
50.5584
50.5586
50.5588
50.559
50.5592
50.5595
50.5597
50.56
50.5603
50.5606
50.5608
50.5611
50.5614
50.5618
50.5621
50.5624
50.5628
50.5632
50.5636
50.564
50.5645
50.5649
50.5654
50.5658
50.5663
50.5668
50.5674
50.568
50.5687
50.5694
50.5701
50.5707
50.5712
50.5718
50.5723
50.573
50.5742
50.5773
50.5834
50.5896
50.595
50.5994
50.6025
50.6044
50.6052
50.6054
50.6051
50.6029
50.5957
50.5865
50.5786
50.5724
50.5683
50.5659
50.5649
50.5646
50.5648
50.5666
50.5694
50.5715
50.573
50.5739
50.5744
50.5745
50.5743
50.574
50.5735
50.5729
50.5723
50.5716
50.5709
50.5702
50.5695
50.5688
50.5681
50.5674
50.5667
50.566
50.5654
50.5647
50.564
50.5634
50.5628
50.5621
50.5615
50.5609
50.5603
50.5597
50.5591
50.5585
50.558
50.5575
50.5569
50.5564
50.5559
50.5554
50.555
50.5545
50.5541
50.5537
50.5533
50.5529
50.5526
50.5523
50.5519
50.5516
50.5514
50.5511
50.5509
50.5506
50.5504
50.5502
50.5501
50.5499
50.5498
50.5497
50.5496
50.5495
50.5494
50.5494
50.5493
50.5493
50.5493
50.5493
50.5493
50.5494
50.5494
50.5495
50.5496
50.5497
50.5498
50.5498
50.5497
50.5498
50.5429
50.571
50.5777
50.5526
50.5461
50.5458
50.5464
50.5469
50.5472
50.5474
50.5476
50.5476
50.5477
50.5477
50.5477
50.5477
50.5477
50.5477
50.5477
50.5477
50.5478
50.5478
50.5478
50.5479
50.5479
50.548
50.548
50.548
50.5481
50.5481
50.5481
50.5481
50.5482
50.5482
50.5483
50.5483
50.5484
50.5484
50.5484
50.5484
50.5484
50.5484
50.5484
50.5485
50.5485
50.5486
50.5487
50.5487
50.5488
50.5489
50.549
50.5491
50.5492
50.5493
50.5494
50.5495
50.5497
50.5498
50.55
50.5501
50.5503
50.5504
50.5506
50.5507
50.5509
50.551
50.5512
50.5514
50.5516
50.5518
50.5521
50.5523
50.5526
50.5528
50.5531
50.5534
50.5536
50.5539
50.5543
50.5546
50.555
50.5554
50.5558
50.5562
50.5567
50.5571
50.5576
50.558
50.5585
50.5591
50.5597
50.5606
50.5614
50.5622
50.563
50.5637
50.5643
50.5649
50.5654
50.566
50.5669
50.5685
50.5716
50.5748
50.5778
50.5805
50.5826
50.5843
50.5853
50.5858
50.5861
50.586
50.5853
50.5829
50.5801
50.5778
50.576
50.5747
50.574
50.5735
50.5732
50.5731
50.5735
50.5741
50.5746
50.5749
50.5749
50.5748
50.5746
50.5743
50.5739
50.5734
50.5728
50.5722
50.5716
50.571
50.5704
50.5698
50.5691
50.5685
50.5679
50.5672
50.5666
50.5659
50.5653
50.5646
50.564
50.5634
50.5627
50.5621
50.5615
50.5609
50.5603
50.5597
50.5591
50.5585
50.558
50.5575
50.5569
50.5564
50.5559
50.5554
50.555
50.5545
50.5541
50.5537
50.5533
50.5529
50.5526
50.5523
50.5519
50.5516
50.5514
50.5511
50.5509
50.5506
50.5504
50.5502
50.5501
50.5499
50.5498
50.5497
50.5496
50.5495
50.5494
50.5494
50.5493
50.5493
50.5493
50.5493
50.5493
50.5494
50.5494
50.5495
50.5496
50.5497
50.5498
50.5498
50.5498
50.5491
50.5449
50.5475
50.5846
50.5745
50.5687
50.5632
50.5596
50.5579
50.5571
50.5568
50.5567
50.5566
50.5566
50.5566
50.5566
50.5566
50.5566
50.5566
50.5566
50.5566
50.5566
50.5566
50.5566
50.5567
50.5567
50.5568
50.5568
50.5568
50.5569
50.5569
50.5569
50.5569
50.557
50.557
50.557
50.5571
50.5571
50.5571
50.5572
50.5572
50.5573
50.5573
50.5574
50.5574
50.5574
50.5575
50.5575
50.5575
50.5576
50.5577
50.5578
50.5578
50.5579
50.5581
50.5582
50.5583
50.5584
50.5585
50.5587
50.5588
50.559
50.5591
50.5593
50.5595
50.5597
50.5598
50.56
50.5602
50.5604
50.5606
50.5608
50.5611
50.5613
50.5616
50.5618
50.5621
50.5624
50.5626
50.563
50.5633
50.5636
50.5639
50.5642
50.5646
50.565
50.5654
50.5658
50.5661
50.5665
50.5669
50.5673
50.5676
50.568
50.5684
50.5689
50.5694
50.5699
50.5704
50.5708
50.5712
50.5716
50.5719
50.5723
50.5728
50.5733
50.5742
50.5755
50.5767
50.5776
50.5783
50.5787
50.5789
50.579
50.5789
50.5786
50.5782
50.5778
50.5775
50.5772
50.577
50.5768
50.5766
50.5764
50.5762
50.5759
50.5756
50.5753
50.5749
50.5745
50.574
50.5735
50.573
50.5725
50.5719
50.5714
50.5708
50.5702
50.5696
50.569
50.5684
50.5678
50.5671
50.5665
50.5659
50.5652
50.5646
50.564
50.5633
50.5627
50.5621
50.5615
50.5609
50.5603
50.5597
50.5591
50.5585
50.558
50.5574
50.5569
50.5564
50.5559
50.5554
50.555
50.5545
50.5541
50.5537
50.5533
50.5529
50.5526
50.5523
50.5519
50.5516
50.5514
50.5511
50.5509
50.5506
50.5504
50.5502
50.5501
50.5499
50.5498
50.5497
50.5496
50.5495
50.5494
50.5494
50.5493
50.5493
50.5493
50.5493
50.5493
50.5494
50.5494
50.5495
50.5496
50.5497
50.5498
50.5499
50.55
50.5498
50.5489
50.5452
50.5054
50.5156
50.5217
50.5265
50.5296
50.5312
50.5319
50.5323
50.5325
50.5326
50.5327
50.5328
50.5329
50.5329
50.5329
50.5329
50.5329
50.5329
50.5329
50.5329
50.533
50.533
50.5331
50.5331
50.5332
50.5333
50.5333
50.5333
50.5334
50.5334
50.5334
50.5334
50.5335
50.5336
50.5336
50.5337
50.5337
50.5338
50.5338
50.5338
50.5338
50.5338
50.5338
50.5338
50.5339
50.534
50.5341
50.5342
50.5343
50.5344
50.5345
50.5346
50.5347
50.5348
50.535
50.5351
50.5353
50.5355
50.5357
50.5358
50.536
50.5362
50.5364
50.5366
50.5367
50.5369
50.5372
50.5374
50.5377
50.538
50.5384
50.5388
50.5391
50.5396
50.54
50.5405
50.5411
50.5417
50.5423
50.5429
50.5435
50.5441
50.5448
50.5456
50.5464
50.5473
50.5484
50.5495
50.5506
50.5516
50.5526
50.5534
50.5541
50.5547
50.5553
50.556
50.557
50.5589
50.5614
50.5641
50.5669
50.5696
50.5722
50.5746
50.5766
50.5782
50.5795
50.5805
50.5812
50.5814
50.5815
50.5815
50.5809
50.5799
50.5789
50.5781
50.5774
50.5768
50.5763
50.5758
50.5755
50.5751
50.5747
50.5744
50.5741
50.5737
50.5734
50.573
50.5726
50.5722
50.5718
50.5713
50.5708
50.5703
50.5698
50.5693
50.5687
50.5682
50.5676
50.567
50.5664
50.5658
50.5652
50.5645
50.5639
50.5633
50.5627
50.5621
50.5615
50.5609
50.5603
50.5597
50.5591
50.5585
50.558
50.5574
50.5569
50.5564
50.5559
50.5554
50.555
50.5545
50.5541
50.5537
50.5533
50.5529
50.5526
50.5523
50.5519
50.5516
50.5514
50.5511
50.5509
50.5506
50.5504
50.5502
50.5501
50.5499
50.5498
50.5497
50.5496
50.5495
50.5494
50.5494
50.5493
50.5493
50.5493
50.5493
50.5493
50.5494
50.5494
50.5495
50.5496
50.5497
50.5498
50.55
50.5503
50.5506
50.5527
50.549
50.5476
50.5694
50.5726
50.5706
50.5691
50.5684
50.5679
50.5676
50.5675
50.5674
50.5674
50.5674
50.5674
50.5675
50.5675
50.5676
50.5676
50.5676
50.5676
50.5676
50.5676
50.5675
50.5675
50.5676
50.5676
50.5676
50.5677
50.5677
50.5678
50.5678
50.5679
50.5679
50.5679
50.5679
50.5679
50.5679
50.568
50.568
50.568
50.5681
50.5681
50.5682
50.5682
50.5683
50.5684
50.5685
50.5686
50.5687
50.5687
50.5688
50.5688
50.5689
50.5689
50.569
50.5691
50.5693
50.5694
50.5696
50.5697
50.5699
50.5701
50.5702
50.5704
50.5705
50.5707
50.5709
50.5711
50.5713
50.5715
50.5718
50.5721
50.5723
50.5727
50.573
50.5733
50.5736
50.574
50.5743
50.5747
50.575
50.5753
50.5757
50.5761
50.5765
50.5769
50.5773
50.5777
50.5781
50.5786
50.579
50.5795
50.5799
50.5803
50.5806
50.5808
50.5811
50.5813
50.5817
50.582
50.5823
50.5822
50.5817
50.5814
50.5812
50.5812
50.5814
50.5818
50.5825
50.5844
50.5864
50.5879
50.5887
50.5889
50.5888
50.5883
50.5866
50.5843
50.5822
50.5805
50.579
50.5778
50.5769
50.576
50.5753
50.5747
50.5742
50.5737
50.5732
50.5727
50.5722
50.5718
50.5713
50.5708
50.5703
50.5698
50.5693
50.5687
50.5681
50.5676
50.567
50.5664
50.5658
50.5651
50.5645
50.5639
50.5633
50.5627
50.5621
50.5615
50.5609
50.5603
50.5597
50.5591
50.5585
50.558
50.5574
50.5569
50.5564
50.5559
50.5554
50.555
50.5545
50.5541
50.5537
50.5533
50.5529
50.5526
50.5523
50.5519
50.5516
50.5514
50.5511
50.5509
50.5506
50.5504
50.5502
50.5501
50.5499
50.5498
50.5497
50.5496
50.5495
50.5494
50.5494
50.5493
50.5493
50.5493
50.5493
50.5493
50.5494
50.5494
50.5495
50.5496
50.5497
50.5498
50.5501
50.5505
50.5515
50.5556
50.5552
50.4714
50.5167
50.5285
50.5324
50.5334
50.5335
50.5334
50.5333
50.5333
50.5332
50.5332
50.5333
50.5334
50.5335
50.5336
50.5336
50.5336
50.5336
50.5336
50.5335
50.5335
50.5336
50.5336
50.5337
50.5338
50.5339
50.5339
50.534
50.534
50.534
50.534
50.534
50.5341
50.5341
50.5342
50.5343
50.5344
50.5345
50.5346
50.5347
50.5347
50.5346
50.5346
50.5346
50.5346
50.5347
50.5348
50.535
50.5351
50.5353
50.5355
50.5356
50.5358
50.536
50.5361
50.5363
50.5366
50.5369
50.5371
50.5373
50.5376
50.5378
50.538
50.5381
50.5382
50.5384
50.5385
50.5386
50.5388
50.5391
50.5393
50.5397
50.54
50.5403
50.5407
50.5412
50.5416
50.542
50.5425
50.543