/*--------------------------------*- C++ -*----------------------------------*\
| =========                 |                                                 |
| \\      /  F ield         | OpenFOAM: The Open Source CFD Toolbox           |
|  \\    /   O peration     | Version:  3.0.x                                 |
|   \\  /    A nd           | Web:      www.OpenFOAM.org                      |
|    \\/     M anipulation  |                                                 |
\*---------------------------------------------------------------------------*/
FoamFile
{
    version     2.0;
    format      ascii;
    class       volScalarField;
    location    "0.39";
    object      rho;
}
// * * * * * * * * * * * * * * * * * * * * * * * * * * * * * * * * * * * * * //

dimensions      [1 -3 0 0 0 0 0];

internalField   nonuniform List<scalar> 
6900
(
50.9153
50.9152
50.9152
50.9152
50.9152
50.9151
50.9151
50.9151
50.915
50.915
50.9149
50.9149
50.9148
50.9148
50.9147
50.9147
50.9147
50.9147
50.9147
50.9147
50.9148
50.9148
50.9149
50.9151
50.9153
50.9156
50.9158
50.916
50.9162
50.9163
50.9164
50.9165
50.9166
50.9167
50.9169
50.9171
50.9173
50.9175
50.9177
50.918
50.9182
50.9184
50.9186
50.9187
50.9187
50.9187
50.9187
50.9187
50.9188
50.9189
50.919
50.9192
50.9193
50.9195
50.9197
50.9198
50.92
50.9201
50.9202
50.9203
50.9204
50.9205
50.9206
50.9207
50.9208
50.9209
50.921
50.9211
50.9212
50.9213
50.9213
50.9214
50.9214
50.9214
50.9214
50.9214
50.9213
50.9213
50.9213
50.9212
50.9212
50.9211
50.921
50.921
50.9209
50.9209
50.9209
50.9209
50.9209
50.9209
50.9209
50.921
50.921
50.9211
50.9212
50.9213
50.9214
50.9216
50.9217
50.9218
50.9219
50.922
50.9221
50.9222
50.9223
50.9223
50.9224
50.9224
50.9224
50.9224
50.9223
50.9222
50.9222
50.9221
50.922
50.9219
50.9218
50.9216
50.9215
50.9214
50.9214
50.9213
50.9213
50.9212
50.9212
50.9212
50.9213
50.9214
50.9215
50.9216
50.9217
50.9219
50.9221
50.9222
50.9224
50.9226
50.9228
50.9229
50.9231
50.9232
50.9233
50.9233
50.9233
50.9233
50.9233
50.9233
50.9232
50.9231
50.9229
50.9228
50.9226
50.9225
50.9223
50.9221
50.922
50.9218
50.9217
50.9216
50.9215
50.9215
50.9215
50.9215
50.9216
50.9217
50.9218
50.922
50.9222
50.9225
50.9227
50.923
50.9233
50.9235
50.9238
50.924
50.9242
50.9244
50.9245
50.9245
50.9245
50.9245
50.9244
50.9243
50.9241
50.924
50.9238
50.9236
50.9234
50.9232
50.9229
50.9227
50.9225
50.9223
50.9221
50.9219
50.9218
50.9217
50.9217
50.9217
50.9222
50.9195
50.9154
50.9154
50.9154
50.9154
50.9154
50.9153
50.9153
50.9152
50.9152
50.9151
50.9151
50.915
50.915
50.9149
50.9149
50.9149
50.9149
50.9149
50.9149
50.9149
50.9149
50.915
50.9151
50.9152
50.9155
50.9158
50.916
50.9162
50.9163
50.9165
50.9166
50.9167
50.9168
50.9169
50.917
50.9172
50.9174
50.9176
50.9179
50.9181
50.9183
50.9185
50.9187
50.9188
50.9188
50.9189
50.9188
50.9188
50.9189
50.919
50.9191
50.9193
50.9195
50.9196
50.9198
50.92
50.9201
50.9202
50.9203
50.9204
50.9205
50.9207
50.9208
50.9209
50.921
50.9211
50.9212
50.9212
50.9213
50.9214
50.9214
50.9215
50.9215
50.9215
50.9215
50.9215
50.9215
50.9214
50.9214
50.9213
50.9213
50.9212
50.9212
50.9211
50.9211
50.921
50.921
50.921
50.921
50.921
50.921
50.9211
50.9212
50.9212
50.9213
50.9214
50.9216
50.9217
50.9218
50.9219
50.922
50.9221
50.9222
50.9223
50.9224
50.9225
50.9225
50.9225
50.9225
50.9225
50.9224
50.9224
50.9223
50.9222
50.9221
50.922
50.9219
50.9218
50.9217
50.9216
50.9215
50.9214
50.9214
50.9213
50.9213
50.9214
50.9214
50.9215
50.9216
50.9217
50.9218
50.922
50.9222
50.9224
50.9225
50.9227
50.9229
50.923
50.9232
50.9233
50.9234
50.9234
50.9235
50.9235
50.9234
50.9234
50.9233
50.9232
50.923
50.9229
50.9227
50.9226
50.9224
50.9222
50.9221
50.9219
50.9218
50.9217
50.9216
50.9216
50.9216
50.9216
50.9217
50.9218
50.9219
50.9221
50.9223
50.9226
50.9228
50.9231
50.9234
50.9237
50.9239
50.9241
50.9243
50.9245
50.9246
50.9246
50.9246
50.9246
50.9245
50.9244
50.9243
50.9241
50.9239
50.9237
50.9235
50.9233
50.9231
50.9228
50.9226
50.9224
50.9222
50.922
50.9219
50.9218
50.9218
50.9218
50.9223
50.9199
50.9154
50.9154
50.9154
50.9154
50.9154
50.9153
50.9153
50.9152
50.9152
50.9151
50.9151
50.915
50.915
50.9149
50.9149
50.9149
50.9149
50.9149
50.9149
50.9149
50.9149
50.915
50.915
50.9152
50.9155
50.9157
50.916
50.9162
50.9163
50.9165
50.9166
50.9167
50.9168
50.9169
50.917
50.9172
50.9174
50.9176
50.9179
50.9181
50.9183
50.9185
50.9187
50.9188
50.9188
50.9188
50.9188
50.9188
50.9189
50.919
50.9191
50.9193
50.9195
50.9196
50.9198
50.92
50.9201
50.9202
50.9203
50.9204
50.9205
50.9207
50.9208
50.9209
50.921
50.9211
50.9212
50.9212
50.9213
50.9214
50.9214
50.9215
50.9215
50.9215
50.9215
50.9215
50.9215
50.9214
50.9214
50.9213
50.9213
50.9212
50.9212
50.9211
50.9211
50.921
50.921
50.921
50.921
50.921
50.921
50.9211
50.9212
50.9212
50.9213
50.9214
50.9216
50.9217
50.9218
50.9219
50.922
50.9221
50.9222
50.9223
50.9224
50.9225
50.9225
50.9225
50.9225
50.9225
50.9224
50.9224
50.9223
50.9222
50.9221
50.922
50.9219
50.9218
50.9217
50.9216
50.9215
50.9214
50.9214
50.9213
50.9213
50.9214
50.9214
50.9215
50.9216
50.9217
50.9218
50.922
50.9222
50.9224
50.9225
50.9227
50.9229
50.923
50.9232
50.9233
50.9234
50.9234
50.9235
50.9235
50.9234
50.9234
50.9233
50.9232
50.923
50.9229
50.9227
50.9226
50.9224
50.9222
50.9221
50.9219
50.9218
50.9217
50.9216
50.9216
50.9216
50.9216
50.9217
50.9218
50.9219
50.9221
50.9223
50.9226
50.9228
50.9231
50.9234
50.9237
50.9239
50.9241
50.9243
50.9245
50.9246
50.9246
50.9246
50.9246
50.9245
50.9244
50.9243
50.9241
50.9239
50.9237
50.9235
50.9233
50.9231
50.9228
50.9226
50.9224
50.9222
50.922
50.9219
50.9218
50.9218
50.9218
50.922
50.9221
50.9154
50.9154
50.9154
50.9154
50.9154
50.9153
50.9153
50.9152
50.9152
50.9151
50.9151
50.915
50.915
50.9149
50.9149
50.9149
50.9149
50.9149
50.9149
50.9149
50.9149
50.915
50.9151
50.9152
50.9155
50.9158
50.916
50.9162
50.9163
50.9165
50.9166
50.9167
50.9168
50.9169
50.917
50.9172
50.9174
50.9176
50.9179
50.9181
50.9183
50.9185
50.9187
50.9188
50.9188
50.9189
50.9188
50.9188
50.9189
50.919
50.9191
50.9193
50.9195
50.9196
50.9198
50.92
50.9201
50.9202
50.9203
50.9204
50.9205
50.9207
50.9208
50.9209
50.921
50.9211
50.9212
50.9212
50.9213
50.9214
50.9214
50.9215
50.9215
50.9215
50.9215
50.9215
50.9215
50.9214
50.9214
50.9213
50.9213
50.9212
50.9212
50.9211
50.9211
50.921
50.921
50.921
50.921
50.921
50.921
50.9211
50.9212
50.9212
50.9213
50.9214
50.9216
50.9217
50.9218
50.9219
50.922
50.9221
50.9222
50.9223
50.9224
50.9225
50.9225
50.9225
50.9225
50.9225
50.9224
50.9224
50.9223
50.9222
50.9221
50.922
50.9219
50.9218
50.9217
50.9216
50.9215
50.9214
50.9214
50.9213
50.9213
50.9214
50.9214
50.9215
50.9216
50.9217
50.9218
50.922
50.9222
50.9224
50.9225
50.9227
50.9229
50.923
50.9232
50.9233
50.9234
50.9234
50.9235
50.9235
50.9234
50.9234
50.9233
50.9232
50.923
50.9229
50.9227
50.9226
50.9224
50.9222
50.9221
50.9219
50.9218
50.9217
50.9216
50.9216
50.9216
50.9216
50.9217
50.9218
50.9219
50.9221
50.9223
50.9226
50.9228
50.9231
50.9234
50.9237
50.9239
50.9241
50.9243
50.9245
50.9246
50.9246
50.9246
50.9246
50.9245
50.9244
50.9243
50.9241
50.9239
50.9237
50.9235
50.9233
50.9231
50.9228
50.9226
50.9224
50.9222
50.922
50.9219
50.9218
50.9218
50.9219
50.9211
50.9277
50.9153
50.9152
50.9152
50.9152
50.9152
50.9151
50.9151
50.9151
50.915
50.915
50.9149
50.9149
50.9148
50.9148
50.9147
50.9147
50.9147
50.9147
50.9147
50.9147
50.9148
50.9148
50.9149
50.9151
50.9153
50.9156
50.9158
50.916
50.9162
50.9163
50.9164
50.9165
50.9166
50.9167
50.9169
50.9171
50.9173
50.9175
50.9177
50.918
50.9182
50.9184
50.9186
50.9187
50.9187
50.9187
50.9187
50.9187
50.9188
50.9189
50.919
50.9192
50.9193
50.9195
50.9197
50.9198
50.92
50.9201
50.9202
50.9203
50.9204
50.9205
50.9206
50.9207
50.9208
50.9209
50.921
50.9211
50.9212
50.9213
50.9213
50.9214
50.9214
50.9214
50.9214
50.9214
50.9213
50.9213
50.9213
50.9212
50.9212
50.9211
50.921
50.921
50.9209
50.9209
50.9209
50.9209
50.9209
50.9209
50.9209
50.921
50.921
50.9211
50.9212
50.9213
50.9214
50.9216
50.9217
50.9218
50.9219
50.922
50.9221
50.9222
50.9223
50.9223
50.9224
50.9224
50.9224
50.9224
50.9223
50.9222
50.9222
50.9221
50.922
50.9219
50.9218
50.9216
50.9215
50.9214
50.9214
50.9213
50.9213
50.9212
50.9212
50.9212
50.9213
50.9214
50.9215
50.9216
50.9217
50.9219
50.9221
50.9222
50.9224
50.9226
50.9228
50.9229
50.9231
50.9232
50.9233
50.9233
50.9233
50.9233
50.9233
50.9233
50.9232
50.9231
50.9229
50.9228
50.9226
50.9225
50.9223
50.9221
50.922
50.9218
50.9217
50.9216
50.9215
50.9215
50.9215
50.9215
50.9216
50.9217
50.9218
50.922
50.9222
50.9225
50.9227
50.923
50.9233
50.9235
50.9238
50.924
50.9242
50.9244
50.9245
50.9245
50.9245
50.9245
50.9244
50.9243
50.9241
50.924
50.9238
50.9236
50.9234
50.9232
50.9229
50.9227
50.9225
50.9223
50.9221
50.9219
50.9218
50.9217
50.9217
50.9219
50.9204
50.9336
50.9386
50.9457
50.9464
50.9444
50.9426
50.9407
50.9387
50.9374
50.9388
50.9402
50.9371
50.9286
50.9165
50.9068
50.8988
50.8915
50.8878
50.893
50.9056
50.9085
50.935
50.9386
50.9384
50.9366
50.9348
50.9331
50.931
50.9299
50.9317
50.9331
50.929
50.9192
50.9072
50.8982
50.8905
50.8838
50.8807
50.8873
50.8995
50.8986
50.9231
50.923
50.922
50.9199
50.917
50.9135
50.9092
50.9039
50.8973
50.8903
50.883
50.8758
50.8683
50.8593
50.8491
50.8381
50.8262
50.8127
50.7986
50.7862
50.8992
50.896
50.897
50.8988
50.8979
50.8942
50.8887
50.8815
50.8752
50.8675
50.8607
50.8534
50.8466
50.8401
50.834
50.8287
50.8243
50.8204
50.8176
50.8155
50.8891
50.8765
50.8719
50.8714
50.8693
50.8644
50.8577
50.8493
50.8415
50.8324
50.824
50.8152
50.8071
50.7991
50.7923
50.7856
50.7803
50.7754
50.772
50.7703
50.8327
50.7994
50.8087
50.8137
50.8073
50.8032
50.8032
50.8037
50.8038
50.8035
50.8033
50.8034
50.8034
50.8033
50.8033
50.8032
50.8032
50.8031
50.8031
50.803
50.803
50.8029
50.8029
50.8028
50.8028
50.8028
50.8027
50.8027
50.8027
50.8027
50.8028
50.8029
50.803
50.8031
50.8033
50.8035
50.8038
50.8041
50.8044
50.8047
50.8051
50.8055
50.806
50.8064
50.8069
50.8074
50.808
50.8085
50.8091
50.8097
50.8102
50.8108
50.8114
50.8119
50.8125
50.8131
50.8137
50.8143
50.8149
50.8155
50.8161
50.8169
50.8174
50.8178
50.8181
50.8184
50.8189
50.8196
50.8202
50.8208
50.8214
50.822
50.8227
50.8233
50.824
50.8248
50.8256
50.8265
50.8276
50.8288
50.8299
50.831
50.832
50.833
50.8342
50.8356
50.8371
50.8384
50.8385
50.8353
50.832
50.8311
50.8325
50.8353
50.8416
50.85
50.856
50.86
50.8626
50.8646
50.8664
50.8677
50.8691
50.8705
50.8721
50.8737
50.8754
50.8771
50.8789
50.8807
50.8826
50.8844
50.8863
50.8882
50.8901
50.8921
50.8941
50.8961
50.8981
50.9002
50.9023
50.9044
50.9066
50.9088
50.9111
50.9134
50.9158
50.9182
50.9207
50.9232
50.9258
50.9284
50.9311
50.9339
50.9367
50.9395
50.9424
50.9454
50.9483
50.9514
50.9545
50.9576
50.9607
50.9639
50.9671
50.9703
50.9736
50.9769
50.9803
50.9836
50.987
50.9904
50.9938
50.9973
51.0008
51.0043
51.0078
51.0114
51.0149
51.0185
51.0221
51.0257
51.0294
51.0331
51.0368
51.0405
51.0443
51.0481
51.0519
51.0558
51.0597
51.0637
51.0677
51.0717
51.0759
51.08
51.0843
51.0886
51.0929
51.0973
51.1018
51.1063
51.1108
51.1155
51.1201
51.1248
51.1295
51.1344
51.1391
51.144
51.1488
51.1538
51.1585
51.1637
51.1684
51.1736
51.1783
51.1837
51.1872
51.1996
50.8278
50.7987
50.8086
50.8127
50.8063
50.8024
50.8022
50.8025
50.8025
50.8023
50.8022
50.8023
50.8023
50.8022
50.8022
50.8021
50.8021
50.8021
50.802
50.802
50.8019
50.8019
50.8018
50.8018
50.8017
50.8017
50.8016
50.8016
50.8016
50.8016
50.8017
50.8018
50.8019
50.8021
50.8023
50.8025
50.8028
50.8031
50.8034
50.8038
50.8042
50.8046
50.805
50.8055
50.806
50.8065
50.807
50.8075
50.8081
50.8086
50.8092
50.8097
50.8103
50.8108
50.8114
50.8119
50.8125
50.8131
50.8136
50.814
50.8145
50.8152
50.8158
50.8162
50.8166
50.8172
50.8177
50.8184
50.819
50.8196
50.8201
50.8207
50.8212
50.8218
50.8224
50.8232
50.8241
50.8251
50.826
50.8269
50.8277
50.8286
50.8297
50.8309
50.8324
50.8338
50.8347
50.834
50.8311
50.8292
50.8293
50.831
50.8338
50.8397
50.8474
50.8532
50.8573
50.8601
50.8622
50.8642
50.8658
50.8673
50.8688
50.8704
50.872
50.8737
50.8754
50.8772
50.879
50.8808
50.8827
50.8845
50.8864
50.8883
50.8903
50.8922
50.8942
50.8962
50.8982
50.9003
50.9024
50.9045
50.9067
50.9089
50.9112
50.9135
50.9159
50.9183
50.9208
50.9233
50.9259
50.9286
50.9313
50.934
50.9368
50.9396
50.9425
50.9455
50.9485
50.9515
50.9546
50.9577
50.9608
50.964
50.9672
50.9705
50.9737
50.977
50.9804
50.9837
50.9871
50.9905
50.994
50.9974
51.0009
51.0044
51.0079
51.0115
51.015
51.0186
51.0222
51.0258
51.0295
51.0332
51.0369
51.0406
51.0444
51.0482
51.052
51.0559
51.0598
51.0638
51.0678
51.0718
51.076
51.0801
51.0844
51.0887
51.093
51.0974
51.1019
51.1064
51.111
51.1156
51.1202
51.1249
51.1297
51.1345
51.1392
51.1441
51.1489
51.1539
51.1587
51.1638
51.1685
51.1737
51.1785
51.1838
51.1877
51.1958
50.7636
50.7764
50.7845
50.7854
50.7843
50.784
50.7843
50.7846
50.7848
50.7849
50.785
50.7851
50.7853
50.7853
50.7854
50.7854
50.7853
50.7853
50.7852
50.7851
50.785
50.785
50.785
50.785
50.7851
50.7852
50.7853
50.7854
50.7856
50.7857
50.7859
50.7861
50.7863
50.7865
50.7867
50.7869
50.7871
50.7873
50.7875
50.7878
50.7881
50.7885
50.7889
50.7893
50.7898
50.7904
50.7909
50.7915
50.792
50.7925
50.793
50.7935
50.794
50.7945
50.795
50.7954
50.7958
50.7961
50.7964
50.7968
50.7971
50.7974
50.7979
50.7984
50.7991
50.7999
50.8015
50.8048
50.8086
50.8121
50.8152
50.8178
50.8199
50.8216
50.8231
50.8243
50.8254
50.8266
50.8277
50.8287
50.8298
50.8309
50.8322
50.8335
50.835
50.8366
50.8383
50.8401
50.842
50.844
50.846
50.848
50.85
50.8519
50.8538
50.8556
50.8574
50.8592
50.8609
50.8627
50.8644
50.8662
50.868
50.8697
50.8715
50.8734
50.8752
50.877
50.8789
50.8807
50.8826
50.8845
50.8864
50.8883
50.8902
50.8922
50.8942
50.8962
50.8982
50.9003
50.9024
50.9045
50.9067
50.9089
50.9112
50.9135
50.9159
50.9183
50.9208
50.9233
50.9259
50.9286
50.9313
50.934
50.9368
50.9396
50.9425
50.9455
50.9485
50.9515
50.9546
50.9577
50.9608
50.964
50.9672
50.9705
50.9737
50.977
50.9804
50.9837
50.9871
50.9905
50.994
50.9974
51.0009
51.0044
51.0079
51.0115
51.015
51.0186
51.0222
51.0258
51.0295
51.0332
51.0369
51.0406
51.0444
51.0482
51.052
51.0559
51.0598
51.0638
51.0678
51.0718
51.076
51.0801
51.0844
51.0887
51.093
51.0974
51.1019
51.1064
51.111
51.1156
51.1202
51.1249
51.1297
51.1344
51.1393
51.1441
51.149
51.1538
51.1588
51.1636
51.1687
51.1736
51.1786
51.1837
51.1887
51.1937
50.8073
50.8052
50.8046
50.8034
50.8025
50.8023
50.8025
50.8026
50.8027
50.8028
50.8028
50.8029
50.8029
50.8028
50.8028
50.8027
50.8026
50.8026
50.8025
50.8024
50.8024
50.8023
50.8023
50.8023
50.8023
50.8023
50.8023
50.8023
50.8023
50.8023
50.8024
50.8024
50.8025
50.8026
50.8028
50.803
50.8032
50.8034
50.8037
50.8041
50.8044
50.8048
50.8053
50.8057
50.8062
50.8068
50.8073
50.8079
50.8085
50.809
50.8097
50.8103
50.8109
50.8116
50.8122
50.8128
50.8134
50.814
50.8146
50.8151
50.8156
50.8161
50.8165
50.817
50.8176
50.8181
50.8187
50.8193
50.8199
50.8204
50.821
50.8217
50.8223
50.8229
50.8234
50.8242
50.825
50.8258
50.8262
50.8266
50.8272
50.8282
50.8292
50.8296
50.829
50.8284
50.8284
50.8293
50.831
50.8331
50.8366
50.8423
50.8476
50.8517
50.8547
50.857
50.859
50.8608
50.8624
50.8638
50.8653
50.8669
50.8685
50.8701
50.8718
50.8736
50.8754
50.8771
50.879
50.8808
50.8826
50.8845
50.8864
50.8883
50.8902
50.8922
50.8942
50.8962
50.8982
50.9003
50.9024
50.9045
50.9067
50.9089
50.9112
50.9135
50.9159
50.9183
50.9208
50.9233
50.9259
50.9286
50.9313
50.934
50.9368
50.9396
50.9425
50.9455
50.9485
50.9515
50.9546
50.9577
50.9608
50.964
50.9672
50.9705
50.9737
50.977
50.9804
50.9837
50.9871
50.9905
50.994
50.9974
51.0009
51.0044
51.0079
51.0115
51.015
51.0186
51.0222
51.0258
51.0295
51.0332
51.0369
51.0406
51.0444
51.0482
51.052
51.0559
51.0598
51.0638
51.0678
51.0718
51.076
51.0801
51.0844
51.0887
51.093
51.0974
51.1019
51.1064
51.111
51.1156
51.1202
51.1249
51.1297
51.1344
51.1393
51.1441
51.149
51.1538
51.1588
51.1636
51.1687
51.1735
51.1788
51.1835
51.1893
51.1933
50.7914
50.7955
50.7957
50.7948
50.7939
50.7938
50.7939
50.7941
50.7942
50.7943
50.7943
50.7943
50.7943
50.7943
50.7942
50.7942
50.7942
50.7941
50.7941
50.794
50.794
50.794
50.794
50.794
50.794
50.794
50.794
50.794
50.794
50.794
50.7941
50.7942
50.7943
50.7944
50.7946
50.7948
50.7951
50.7954
50.7957
50.796
50.7964
50.7969
50.7973
50.7979
50.7984
50.799
50.7996
50.8002
50.8008
50.8014
50.8021
50.8027
50.8033
50.8039
50.8045
50.8051
50.8056
50.8062
50.8067
50.8073
50.8078
50.8083
50.8088
50.8094
50.81
50.8105
50.8111
50.8118
50.8124
50.813
50.8136
50.8142
50.8149
50.8157
50.8163
50.8167
50.8172
50.8179
50.8189
50.8201
50.8212
50.8218
50.82
50.816
50.814
50.8143
50.816
50.8193
50.8262
50.8334
50.8391
50.8437
50.8473
50.8503
50.8528
50.855
50.857
50.8589
50.8607
50.8625
50.8643
50.8661
50.8679
50.8697
50.8715
50.8733
50.8751
50.8769
50.8788
50.8806
50.8825
50.8844
50.8863
50.8882
50.8901
50.8921
50.8941
50.8961
50.8981
50.9002
50.9023
50.9044
50.9066
50.9088
50.9111
50.9134
50.9158
50.9182
50.9207
50.9232
50.9258
50.9284
50.9311
50.9339
50.9367
50.9395
50.9424
50.9454
50.9483
50.9514
50.9545
50.9576
50.9607
50.9639
50.9671
50.9703
50.9736
50.9769
50.9803
50.9836
50.987
50.9904
50.9938
50.9973
51.0008
51.0043
51.0078
51.0114
51.0149
51.0185
51.0221
51.0257
51.0294
51.0331
51.0368
51.0405
51.0443
51.0481
51.0519
51.0558
51.0597
51.0637
51.0677
51.0717
51.0759
51.08
51.0843
51.0886
51.0929
51.0973
51.1018
51.1063
51.1108
51.1155
51.1201
51.1248
51.1296
51.1343
51.1392
51.1439
51.1489
51.1537
51.1587
51.1635
51.1686
51.1734
51.1787
51.1834
51.1892
51.1934
51.1749
51.1659
51.1631
51.1634
51.1626
51.1595
51.1548
51.1498
51.1444
51.1392
51.1332
51.1278
51.1225
51.1172
51.1122
51.1076
51.1035
51.1003
51.0983
51.0976
51.1824
51.1811
51.1827
51.1848
51.1847
51.1827
51.1786
51.175
51.1704
51.1666
51.1615
51.1576
51.153
51.1488
51.1447
51.1412
51.1378
51.1355
51.1339
51.1334
51.1978
51.199
51.1994
51.1989
51.1978
51.196
51.1939
51.191
51.1877
51.1835
51.1783
51.1721
51.1648
51.1573
51.1505
51.1451
51.1401
51.1338
51.1263
51.1182
51.2058
51.2099
51.2113
51.2115
51.2119
51.2126
51.2128
51.2107
51.207
51.2042
51.2025
51.2029
51.2121
51.2205
51.2197
51.2069
51.1872
51.1743
51.1642
51.1535
51.2088
51.2155
51.2175
51.2175
51.2177
51.2183
51.2184
51.2165
51.2129
51.21
51.2081
51.2086
51.2168
51.2254
51.2266
51.2165
51.199
51.1848
51.1735
51.162
51.1187
51.1256
51.1295
51.1335
51.1376
51.1423
51.1472
51.1523
51.1575
51.1628
51.1681
51.1736
51.179
51.1845
51.1901
51.1957
51.2014
51.2072
51.213
51.2188
51.2247
51.2307
51.2367
51.2427
51.2487
51.2548
51.261
51.2671
51.2734
51.2796
51.2859
51.2922
51.2986
51.3049
51.3113
51.3178
51.3242
51.3307
51.3372
51.3437
51.3503
51.3569
51.3635
51.3702
51.3769
51.3837
51.3905
51.3974
51.4043
51.4112
51.4181
51.4251
51.4321
51.4391
51.4461
51.4532
51.4602
51.4673
51.4744
51.4816
51.4888
51.496
51.5032
51.5105
51.5178
51.5251
51.5325
51.5399
51.5473
51.5548
51.5623
51.5698
51.5774
51.5851
51.5927
51.6001
51.6073
51.6146
51.6227
51.6315
51.6402
51.6476
51.651
51.6531
51.6576
51.665
51.6744
51.6851
51.6988
51.7129
51.7251
51.7358
51.7459
51.7557
51.7648
51.7739
51.7819
51.7908
51.7977
51.8091
51.1305
51.1334
51.1367
51.141
51.145
51.1495
51.1547
51.1601
51.1654
51.1708
51.1762
51.1816
51.1871
51.1927
51.1984
51.204
51.2097
51.2155
51.2213
51.2271
51.233
51.239
51.2449
51.2509
51.2569
51.263
51.2691
51.2753
51.2814
51.2876
51.2939
51.3002
51.3065
51.3128
51.3192
51.3257
51.3321
51.3386
51.3451
51.3516
51.3582
51.3648
51.3714
51.3781
51.3848
51.3915
51.3982
51.405
51.4119
51.4188
51.4257
51.4326
51.4396
51.4466
51.4537
51.4607
51.4678
51.4749
51.482
51.4892
51.4964
51.5035
51.5108
51.518
51.5253
51.5326
51.54
51.5474
51.5548
51.5622
51.5697
51.5772
51.5849
51.5924
51.5998
51.6074
51.6153
51.623
51.6302
51.6373
51.6449
51.6531
51.661
51.6681
51.6743
51.6802
51.6865
51.6938
51.7026
51.7123
51.7228
51.7347
51.7461
51.7565
51.7664
51.776
51.7841
51.7927
51.7992
51.8078
51.0911
51.1057
51.1175
51.1235
51.1277
51.1323
51.1373
51.1426
51.148
51.1535
51.1589
51.1644
51.1701
51.1758
51.1815
51.1872
51.193
51.1988
51.2047
51.2106
51.2165
51.2224
51.2284
51.2344
51.2404
51.2465
51.2526
51.2587
51.2649
51.2712
51.2775
51.2839
51.2903
51.2967
51.3031
51.3096
51.3161
51.3225
51.329
51.3356
51.3421
51.3487
51.3553
51.362
51.3687
51.3754
51.3822
51.3889
51.3958
51.4026
51.4094
51.4162
51.423
51.4299
51.4369
51.4438
51.4508
51.4577
51.4646
51.4715
51.4785
51.4854
51.4923
51.4994
51.5069
51.5149
51.5235
51.5325
51.5427
51.5534
51.5633
51.5726
51.5817
51.5906
51.5992
51.6073
51.6153
51.6233
51.6313
51.6392
51.6472
51.6553
51.6634
51.6717
51.68
51.6884
51.6969
51.7054
51.714
51.7226
51.7313
51.74
51.7486
51.7571
51.7657
51.7739
51.7826
51.7907
51.799
51.8074
51.1484
51.147
51.1426
51.1418
51.1466
51.1523
51.1564
51.1605
51.1655
51.1711
51.1763
51.1819
51.1873
51.1927
51.1982
51.2038
51.2095
51.2152
51.221
51.2268
51.2327
51.2386
51.2446
51.2506
51.2566
51.2626
51.2687
51.2749
51.281
51.2872
51.2935
51.2998
51.3061
51.3124
51.3187
51.3251
51.3315
51.338
51.3445
51.351
51.3576
51.3642
51.3708
51.3775
51.3843
51.3911
51.3979
51.4047
51.4115
51.4184
51.4254
51.4323
51.4392
51.4462
51.4531
51.4601
51.4672
51.4743
51.4814
51.4885
51.4956
51.5028
51.5099
51.5172
51.5245
51.5318
51.5391
51.5465
51.5538
51.5612
51.5686
51.576
51.5835
51.5911
51.5988
51.6065
51.6142
51.6219
51.6297
51.6375
51.6453
51.653
51.6608
51.6691
51.678
51.6869
51.6946
51.6992
51.7024
51.7068
51.7135
51.7226
51.733
51.7458
51.7597
51.7716
51.7821
51.7919
51.8013
51.8094
51.1504
51.1472
51.1435
51.1426
51.1477
51.1539
51.158
51.1618
51.1666
51.1725
51.1779
51.1832
51.1885
51.1939
51.1994
51.2049
51.2106
51.2163
51.2221
51.2279
51.2338
51.2396
51.2456
51.2516
51.2576
51.2637
51.2697
51.2759
51.282
51.2882
51.2945
51.3008
51.3071
51.3134
51.3198
51.3262
51.3326
51.339
51.3455
51.352
51.3586
51.3652
51.3718
51.3785
51.3853
51.392
51.3988
51.4057
51.4125
51.4194
51.4263
51.4333
51.4402
51.4472
51.4542
51.4612
51.4683
51.4753
51.4824
51.4895
51.4967
51.5039
51.5111
51.5183
51.5255
51.5328
51.5402
51.5475
51.555
51.5624
51.5699
51.5774
51.5849
51.5925
51.6001
51.6079
51.6157
51.6236
51.6315
51.6395
51.6475
51.6556
51.6634
51.671
51.6789
51.6875
51.6966
51.7052
51.7119
51.7142
51.7166
51.722
51.7306
51.7409
51.7541
51.7686
51.7808
51.7913
51.8011
51.8108
51.8013
51.7977
51.7973
51.7985
51.799
51.7986
51.7975
51.7962
51.7945
51.793
51.7912
51.7897
51.7878
51.7865
51.7853
51.7843
51.7835
51.7829
51.7827
51.7832
51.8062
51.8069
51.809
51.8108
51.8116
51.8116
51.8111
51.8101
51.8092
51.8081
51.8068
51.8062
51.8046
51.8039
51.8031
51.8027
51.8023
51.8021
51.8021
51.8024
51.8132
51.8152
51.8167
51.8177
51.8183
51.8187
51.8185
51.8179
51.8168
51.8156
51.8145
51.8131
51.8111
51.8084
51.8053
51.8019
51.7976
51.7926
51.7884
51.7855
51.8184
51.8216
51.8232
51.8244
51.8255
51.8266
51.8281
51.8308
51.8341
51.835
51.832
51.8282
51.8267
51.8256
51.8244
51.8256
51.8313
51.8412
51.8481
51.8455
51.8214
51.8258
51.8274
51.8282
51.8293
51.8303
51.8317
51.8342
51.8373
51.8385
51.8362
51.8325
51.8307
51.8291
51.8274
51.8283
51.8337
51.8431
51.8519
51.8518
51.7959
51.8062
51.815
51.8225
51.8302
51.8381
51.8462
51.8544
51.8627
51.8711
51.8796
51.8881
51.8967
51.9053
51.9142
51.9232
51.9322
51.9413
51.9505
51.9597
51.969
51.9783
51.9877
51.997
52.0064
52.0158
52.0252
52.0347
52.0441
52.0536
52.0631
52.0726
52.0822
52.0917
52.1013
52.1109
52.1205
52.1301
52.1397
52.1493
52.1589
52.1685
52.1781
52.1876
52.1972
52.2068
52.2164
52.2259
52.2355
52.2451
52.2547
52.2642
52.2739
52.2835
52.2931
52.3027
52.3123
52.322
52.3316
52.3412
52.3508
52.3605
52.3702
52.3799
52.3896
52.3992
52.4088
52.4185
52.4284
52.4381
52.4472
52.456
52.4653
52.4757
52.4867
52.4968
52.5035
52.5055
52.5095
52.5174
52.5283
52.5407
52.5564
52.5724
52.5861
52.5983
52.6098
52.621
52.6314
52.641
52.6504
52.6598
52.669
52.6782
52.6873
52.6964
52.7054
52.7145
52.7234
52.7324
52.7413
52.7503
52.7591
52.768
52.7769
52.7857
52.7945
52.8033
52.812
52.8208
52.8295
52.8382
52.8468
52.8555
52.8641
52.8728
52.8813
52.8899
52.8985
52.907
52.9155
52.9239
52.9324
52.9408
52.9491
52.9575
52.9658
52.974
52.9823
52.9905
52.9986
53.0067
53.0148
53.0228
53.0308
53.0387
53.0466
53.0545
53.0623
53.07
53.0777
53.0854
53.093
53.1006
53.1081
53.1156
53.123
53.1304
53.1378
53.1451
53.1524
53.1596
53.1668
53.1739
53.1811
53.1881
53.1952
53.2022
53.2091
53.2161
53.2229
53.2298
53.2366
53.2434
53.2502
53.2569
53.2636
53.2702
53.2768
53.2834
53.29
53.2965
53.3029
53.3094
53.3158
53.3221
53.3284
53.3347
53.341
53.3471
53.3533
53.3593
53.3655
53.3713
53.3774
53.3831
53.3892
53.3947
53.4008
53.4061
53.4121
53.4173
53.4233
53.4284
53.434
53.4395
53.4444
53.4502
53.4551
53.4602
51.8009
51.8103
51.8189
51.8267
51.8346
51.8428
51.8512
51.8597
51.8682
51.8769
51.8857
51.8945
51.9034
51.9124
51.9214
51.9305
51.9396
51.9488
51.958
51.9673
51.9766
51.986
51.9954
52.0048
52.0142
52.0237
52.0332
52.0427
52.0522
52.0616
52.0712
52.0807
52.0902
52.0997
52.1092
52.1187
52.1283
52.1379
52.1474
52.157
52.1666
52.1762
52.1858
52.1954
52.205
52.2146
52.2242
52.2337
52.2433
52.2529
52.2624
52.272
52.2816
52.2912
52.3008
52.3104
52.32
52.3297
52.3393
52.3489
52.3585
52.3682
52.3779
52.3876
52.3971
52.4066
52.4164
52.4262
52.4357
52.4449
52.4546
52.4646
52.474
52.4827
52.4916
52.5012
52.5111
52.5203
52.5283
52.5353
52.5423
52.5505
52.5606
52.572
52.584
52.5973
52.61
52.6219
52.6331
52.6436
52.6526
52.6613
52.6702
52.6791
52.688
52.6969
52.7058
52.7148
52.7237
52.7326
52.7415
52.7504
52.7593
52.7681
52.777
52.7858
52.7946
52.8034
52.8121
52.8209
52.8296
52.8383
52.847
52.8556
52.8642
52.8729
52.8814
52.89
52.8986
52.9071
52.9156
52.924
52.9325
52.9409
52.9492
52.9576
52.9659
52.9741
52.9824
52.9906
52.9987
53.0068
53.0149
53.0229
53.0309
53.0388
53.0467
53.0546
53.0624
53.0701
53.0778
53.0855
53.0931
53.1007
53.1082
53.1157
53.1231
53.1305
53.1379
53.1452
53.1525
53.1597
53.1669
53.174
53.1812
53.1882
53.1953
53.2023
53.2092
53.2162
53.223
53.2299
53.2367
53.2435
53.2503
53.257
53.2637
53.2703
53.2769
53.2835
53.2901
53.2966
53.303
53.3095
53.3159
53.3222
53.3285
53.3348
53.3411
53.3472
53.3534
53.3594
53.3656
53.3714
53.3775
53.3832
53.3893
53.3948
53.4009
53.4062
53.4122
53.4174
53.4234
53.4284
53.4343
53.4392
53.445
53.4499
53.4554
53.4603
51.7796
51.7943
51.8042
51.811
51.8184
51.8263
51.8346
51.8429
51.8515
51.8603
51.8693
51.8782
51.8872
51.8963
51.9055
51.9147
51.9239
51.9331
51.9423
51.9515
51.9608
51.9701
51.9794
51.9888
51.9983
52.0077
52.0172
52.0266
52.036
52.0455
52.0549
52.0644
52.0739
52.0834
52.0929
52.1024
52.112
52.1215
52.1311
52.1406
52.1502
52.1597
52.1693
52.1789
52.1885
52.198
52.2075
52.217
52.2266
52.2361
52.2456
52.255
52.2644
52.2737
52.2831
52.2924
52.3017
52.3109
52.3203
52.3301
52.3405
52.3515
52.3632
52.3755
52.3882
52.4002
52.4118
52.4233
52.4342
52.4445
52.4545
52.4644
52.4742
52.4839
52.4936
52.5034
52.5132
52.523
52.5329
52.5428
52.5528
52.5627
52.5728
52.5828
52.5928
52.6027
52.6126
52.6223
52.6319
52.6413
52.6507
52.6599
52.6691
52.6783
52.6874
52.6965
52.7055
52.7145
52.7235
52.7325
52.7414
52.7503
52.7592
52.7681
52.777
52.7858
52.7946
52.8034
52.8121
52.8209
52.8296
52.8383
52.847
52.8556
52.8642
52.8729
52.8814
52.89
52.8986
52.9071
52.9156
52.924
52.9325
52.9409
52.9492
52.9576
52.9659
52.9741
52.9824
52.9906
52.9987
53.0068
53.0149
53.0229
53.0309
53.0388
53.0467
53.0546
53.0624
53.0701
53.0778
53.0855
53.0931
53.1007
53.1082
53.1157
53.1231
53.1305
53.1379
53.1452
53.1525
53.1597
53.1669
53.174
53.1812
53.1882
53.1953
53.2023
53.2092
53.2162
53.223
53.2299
53.2367
53.2435
53.2503
53.257
53.2637
53.2703
53.2769
53.2835
53.2901
53.2966
53.303
53.3095
53.3159
53.3222
53.3285
53.3348
53.341
53.3472
53.3534
53.3594
53.3655
53.3714
53.3774
53.3833
53.3892
53.395
53.4007
53.4063
53.4122
53.4175
53.4232
53.4286
53.434
53.4395
53.4448
53.45
53.4553
53.4604
51.8037
51.8081
51.8248
51.8344
51.8372
51.8432
51.8525
51.8616
51.8701
51.8781
51.8866
51.8957
51.9052
51.9141
51.9228
51.9315
51.9405
51.9495
51.9587
51.9679
51.9772
51.9865
51.9957
52.005
52.0143
52.0236
52.033
52.0423
52.0518
52.0612
52.0707
52.0802
52.0897
52.0993
52.1088
52.1184
52.128
52.1375
52.1471
52.1566
52.1662
52.1758
52.1853
52.1948
52.2044
52.2139
52.2235
52.233
52.2427
52.2523
52.2619
52.2713
52.2809
52.2906
52.3002
52.3098
52.3193
52.3289
52.3385
52.3481
52.3577
52.3674
52.377
52.3866
52.3962
52.4057
52.4151
52.4247
52.4344
52.4442
52.4539
52.4635
52.4731
52.4828
52.4923
52.5014
52.5104
52.5201
52.5306
52.5415
52.5514
52.5581
52.5617
52.5663
52.5739
52.5844
52.5965
52.6114
52.6266
52.6395
52.6511
52.6619
52.6713
52.6797
52.6884
52.6972
52.706
52.7149
52.7238
52.7327
52.7416
52.7504
52.7593
52.7682
52.777
52.7858
52.7946
52.8034
52.8121
52.8209
52.8296
52.8383
52.847
52.8556
52.8642
52.8729
52.8814
52.89
52.8986
52.9071
52.9156
52.924
52.9325
52.9409
52.9492
52.9576
52.9659
52.9741
52.9824
52.9906
52.9987
53.0068
53.0149
53.0229
53.0309
53.0388
53.0467
53.0546
53.0624
53.0701
53.0778
53.0855
53.0931
53.1007
53.1082
53.1157
53.1231
53.1305
53.1379
53.1452
53.1525
53.1597
53.1669
53.174
53.1812
53.1882
53.1953
53.2023
53.2092
53.2162
53.223
53.2299
53.2367
53.2435
53.2503
53.257
53.2637
53.2703
53.2769
53.2835
53.2901
53.2966
53.303
53.3095
53.3159
53.3222
53.3285
53.3348
53.341
53.3473
53.3533
53.3595
53.3654
53.3716
53.3773
53.3834
53.389
53.3951
53.4005
53.4066
53.4118
53.4178
53.4229
53.4289
53.4338
53.4397
53.4446
53.4501
53.4556
53.4602
51.807
51.8082
51.8266
51.8362
51.8386
51.8445
51.8543
51.8645
51.8723
51.8799
51.8883
51.8978
51.9073
51.916
51.9244
51.9331
51.9419
51.9508
51.9599
51.9691
51.9783
51.9875
51.9968
52.0061
52.0154
52.0247
52.034
52.0434
52.0528
52.0622
52.0717
52.0812
52.0907
52.1002
52.1098
52.1193
52.1289
52.1385
52.1481
52.1576
52.1672
52.1768
52.1863
52.1959
52.2054
52.215
52.2246
52.2342
52.2439
52.2536
52.263
52.2725
52.2821
52.2917
52.3013
52.3109
52.3204
52.33
52.3396
52.3492
52.3588
52.3684
52.378
52.3876
52.3973
52.4069
52.4165
52.4261
52.4357
52.4453
52.4551
52.4648
52.4746
52.4844
52.4943
52.5042
52.5137
52.5226
52.5317
52.5416
52.5524
52.563
52.5719
52.5753
52.5773
52.5833
52.5934
52.6055
52.6211
52.637
52.6501