/*--------------------------------*- C++ -*----------------------------------*\
| =========                 |                                                 |
| \\      /  F ield         | OpenFOAM: The Open Source CFD Toolbox           |
|  \\    /   O peration     | Version:  3.0.x                                 |
|   \\  /    A nd           | Web:      www.OpenFOAM.org                      |
|    \\/     M anipulation  |                                                 |
\*---------------------------------------------------------------------------*/
FoamFile
{
    version     2.0;
    format      ascii;
    class       volScalarField;
    location    "0.47005";
    object      p;
}
// * * * * * * * * * * * * * * * * * * * * * * * * * * * * * * * * * * * * * //

dimensions      [1 -1 -2 0 0 0 0];

internalField   nonuniform List<scalar> 
13800
(
1.80346e+07
1.80346e+07
1.80346e+07
1.80346e+07
1.80346e+07
1.80346e+07
1.80346e+07
1.80346e+07
1.80346e+07
1.80346e+07
1.80346e+07
1.80346e+07
1.80346e+07
1.80346e+07
1.80346e+07
1.80346e+07
1.80346e+07
1.80346e+07
1.80346e+07
1.80346e+07
1.80346e+07
1.80346e+07
1.80346e+07
1.80346e+07
1.80346e+07
1.80346e+07
1.80346e+07
1.80347e+07
1.80347e+07
1.80347e+07
1.80347e+07
1.80347e+07
1.80347e+07
1.80347e+07
1.80347e+07
1.80347e+07
1.80347e+07
1.80348e+07
1.80348e+07
1.80348e+07
1.80348e+07
1.80348e+07
1.80349e+07
1.80349e+07
1.80349e+07
1.8035e+07
1.8035e+07
1.8035e+07
1.80351e+07
1.80351e+07
1.80352e+07
1.80353e+07
1.80353e+07
1.80354e+07
1.80355e+07
1.80355e+07
1.80356e+07
1.80357e+07
1.80358e+07
1.80359e+07
1.8036e+07
1.80362e+07
1.80363e+07
1.80364e+07
1.80366e+07
1.80367e+07
1.80369e+07
1.80371e+07
1.80373e+07
1.80375e+07
1.80377e+07
1.80379e+07
1.80382e+07
1.80385e+07
1.80387e+07
1.8039e+07
1.80393e+07
1.80397e+07
1.804e+07
1.80404e+07
1.80408e+07
1.80412e+07
1.80416e+07
1.8042e+07
1.80425e+07
1.8043e+07
1.80435e+07
1.8044e+07
1.80446e+07
1.80452e+07
1.80458e+07
1.80464e+07
1.80471e+07
1.80478e+07
1.80485e+07
1.80492e+07
1.805e+07
1.80508e+07
1.80517e+07
1.80525e+07
1.80534e+07
1.80544e+07
1.80553e+07
1.80563e+07
1.80574e+07
1.80584e+07
1.80595e+07
1.80607e+07
1.80618e+07
1.8063e+07
1.80643e+07
1.80656e+07
1.80669e+07
1.80682e+07
1.80696e+07
1.80711e+07
1.80725e+07
1.80741e+07
1.80756e+07
1.80772e+07
1.80788e+07
1.80805e+07
1.80822e+07
1.8084e+07
1.80858e+07
1.80876e+07
1.80895e+07
1.80914e+07
1.80934e+07
1.80954e+07
1.80975e+07
1.80996e+07
1.81017e+07
1.81039e+07
1.81061e+07
1.81084e+07
1.81108e+07
1.81131e+07
1.81156e+07
1.8118e+07
1.81205e+07
1.81231e+07
1.81257e+07
1.81284e+07
1.81311e+07
1.81339e+07
1.81367e+07
1.81395e+07
1.81424e+07
1.81454e+07
1.81484e+07
1.81515e+07
1.81546e+07
1.81577e+07
1.8161e+07
1.81642e+07
1.81675e+07
1.81709e+07
1.81743e+07
1.81778e+07
1.81813e+07
1.81849e+07
1.81886e+07
1.81923e+07
1.8196e+07
1.81998e+07
1.82037e+07
1.82076e+07
1.82115e+07
1.82156e+07
1.82196e+07
1.82238e+07
1.8228e+07
1.82322e+07
1.82365e+07
1.82409e+07
1.82453e+07
1.82498e+07
1.82543e+07
1.82589e+07
1.82635e+07
1.82682e+07
1.8273e+07
1.82778e+07
1.82827e+07
1.82876e+07
1.82926e+07
1.82977e+07
1.83028e+07
1.8308e+07
1.83132e+07
1.83185e+07
1.83238e+07
1.83292e+07
1.83347e+07
1.83402e+07
1.83458e+07
1.83516e+07
1.83579e+07
1.83653e+07
1.80346e+07
1.80346e+07
1.80346e+07
1.80346e+07
1.80346e+07
1.80346e+07
1.80346e+07
1.80346e+07
1.80346e+07
1.80346e+07
1.80346e+07
1.80346e+07
1.80346e+07
1.80346e+07
1.80346e+07
1.80346e+07
1.80346e+07
1.80346e+07
1.80346e+07
1.80346e+07
1.80346e+07
1.80346e+07
1.80346e+07
1.80346e+07
1.80346e+07
1.80346e+07
1.80346e+07
1.80347e+07
1.80347e+07
1.80347e+07
1.80347e+07
1.80347e+07
1.80347e+07
1.80347e+07
1.80347e+07
1.80347e+07
1.80347e+07
1.80348e+07
1.80348e+07
1.80348e+07
1.80348e+07
1.80348e+07
1.80349e+07
1.80349e+07
1.80349e+07
1.8035e+07
1.8035e+07
1.8035e+07
1.80351e+07
1.80351e+07
1.80352e+07
1.80353e+07
1.80353e+07
1.80354e+07
1.80355e+07
1.80355e+07
1.80356e+07
1.80357e+07
1.80358e+07
1.80359e+07
1.8036e+07
1.80362e+07
1.80363e+07
1.80364e+07
1.80366e+07
1.80367e+07
1.80369e+07
1.80371e+07
1.80373e+07
1.80375e+07
1.80377e+07
1.80379e+07
1.80382e+07
1.80385e+07
1.80387e+07
1.8039e+07
1.80393e+07
1.80397e+07
1.804e+07
1.80404e+07
1.80408e+07
1.80412e+07
1.80416e+07
1.8042e+07
1.80425e+07
1.8043e+07
1.80435e+07
1.8044e+07
1.80446e+07
1.80452e+07
1.80458e+07
1.80464e+07
1.80471e+07
1.80478e+07
1.80485e+07
1.80492e+07
1.805e+07
1.80508e+07
1.80517e+07
1.80525e+07
1.80534e+07
1.80544e+07
1.80553e+07
1.80563e+07
1.80574e+07
1.80584e+07
1.80595e+07
1.80607e+07
1.80618e+07
1.8063e+07
1.80643e+07
1.80656e+07
1.80669e+07
1.80682e+07
1.80696e+07
1.80711e+07
1.80725e+07
1.80741e+07
1.80756e+07
1.80772e+07
1.80788e+07
1.80805e+07
1.80822e+07
1.8084e+07
1.80858e+07
1.80876e+07
1.80895e+07
1.80914e+07
1.80934e+07
1.80954e+07
1.80975e+07
1.80996e+07
1.81017e+07
1.81039e+07
1.81061e+07
1.81084e+07
1.81108e+07
1.81131e+07
1.81156e+07
1.8118e+07
1.81205e+07
1.81231e+07
1.81257e+07
1.81284e+07
1.81311e+07
1.81339e+07
1.81367e+07
1.81395e+07
1.81424e+07
1.81454e+07
1.81484e+07
1.81515e+07
1.81546e+07
1.81577e+07
1.8161e+07
1.81642e+07
1.81675e+07
1.81709e+07
1.81743e+07
1.81778e+07
1.81813e+07
1.81849e+07
1.81886e+07
1.81923e+07
1.8196e+07
1.81998e+07
1.82037e+07
1.82076e+07
1.82115e+07
1.82156e+07
1.82196e+07
1.82238e+07
1.8228e+07
1.82322e+07
1.82365e+07
1.82409e+07
1.82453e+07
1.82498e+07
1.82543e+07
1.82589e+07
1.82635e+07
1.82682e+07
1.8273e+07
1.82778e+07
1.82827e+07
1.82876e+07
1.82926e+07
1.82977e+07
1.83028e+07
1.8308e+07
1.83132e+07
1.83185e+07
1.83238e+07
1.83292e+07
1.83347e+07
1.83402e+07
1.83458e+07
1.83516e+07
1.83579e+07
1.83653e+07
1.80346e+07
1.80346e+07
1.80346e+07
1.80346e+07
1.80346e+07
1.80346e+07
1.80346e+07
1.80346e+07
1.80346e+07
1.80346e+07
1.80346e+07
1.80346e+07
1.80346e+07
1.80346e+07
1.80346e+07
1.80346e+07
1.80346e+07
1.80346e+07
1.80346e+07
1.80346e+07
1.80346e+07
1.80346e+07
1.80346e+07
1.80346e+07
1.80346e+07
1.80346e+07
1.80346e+07
1.80347e+07
1.80347e+07
1.80347e+07
1.80347e+07
1.80347e+07
1.80347e+07
1.80347e+07
1.80347e+07
1.80347e+07
1.80347e+07
1.80348e+07
1.80348e+07
1.80348e+07
1.80348e+07
1.80348e+07
1.80349e+07
1.80349e+07
1.80349e+07
1.8035e+07
1.8035e+07
1.8035e+07
1.80351e+07
1.80351e+07
1.80352e+07
1.80353e+07
1.80353e+07
1.80354e+07
1.80355e+07
1.80355e+07
1.80356e+07
1.80357e+07
1.80358e+07
1.80359e+07
1.8036e+07
1.80362e+07
1.80363e+07
1.80364e+07
1.80366e+07
1.80367e+07
1.80369e+07
1.80371e+07
1.80373e+07
1.80375e+07
1.80377e+07
1.80379e+07
1.80382e+07
1.80385e+07
1.80387e+07
1.8039e+07
1.80393e+07
1.80397e+07
1.804e+07
1.80404e+07
1.80408e+07
1.80412e+07
1.80416e+07
1.8042e+07
1.80425e+07
1.8043e+07
1.80435e+07
1.8044e+07
1.80446e+07
1.80452e+07
1.80458e+07
1.80464e+07
1.80471e+07
1.80478e+07
1.80485e+07
1.80492e+07
1.805e+07
1.80508e+07
1.80517e+07
1.80525e+07
1.80534e+07
1.80544e+07
1.80553e+07
1.80563e+07
1.80574e+07
1.80584e+07
1.80595e+07
1.80607e+07
1.80618e+07
1.8063e+07
1.80643e+07
1.80656e+07
1.80669e+07
1.80682e+07
1.80696e+07
1.80711e+07
1.80725e+07
1.80741e+07
1.80756e+07
1.80772e+07
1.80788e+07
1.80805e+07
1.80822e+07
1.8084e+07
1.80858e+07
1.80876e+07
1.80895e+07
1.80914e+07
1.80934e+07
1.80954e+07
1.80975e+07
1.80996e+07
1.81017e+07
1.81039e+07
1.81061e+07
1.81084e+07
1.81108e+07
1.81131e+07
1.81156e+07
1.8118e+07
1.81205e+07
1.81231e+07
1.81257e+07
1.81284e+07
1.81311e+07
1.81339e+07
1.81367e+07
1.81395e+07
1.81424e+07
1.81454e+07
1.81484e+07
1.81515e+07
1.81546e+07
1.81577e+07
1.8161e+07
1.81642e+07
1.81675e+07
1.81709e+07
1.81743e+07
1.81778e+07
1.81813e+07
1.81849e+07
1.81886e+07
1.81923e+07
1.8196e+07
1.81998e+07
1.82037e+07
1.82076e+07
1.82115e+07
1.82156e+07
1.82196e+07
1.82238e+07
1.8228e+07
1.82322e+07
1.82365e+07
1.82409e+07
1.82453e+07
1.82498e+07
1.82543e+07
1.82589e+07
1.82635e+07
1.82682e+07
1.8273e+07
1.82778e+07
1.82827e+07
1.82876e+07
1.82926e+07
1.82977e+07
1.83028e+07
1.8308e+07
1.83132e+07
1.83185e+07
1.83238e+07
1.83292e+07
1.83347e+07
1.83402e+07
1.83458e+07
1.83516e+07
1.83579e+07
1.83652e+07
1.80346e+07
1.80346e+07
1.80346e+07
1.80346e+07
1.80346e+07
1.80346e+07
1.80346e+07
1.80346e+07
1.80346e+07
1.80346e+07
1.80346e+07
1.80346e+07
1.80346e+07
1.80346e+07
1.80346e+07
1.80346e+07
1.80346e+07
1.80346e+07
1.80346e+07
1.80346e+07
1.80346e+07
1.80346e+07
1.80346e+07
1.80346e+07
1.80346e+07
1.80346e+07
1.80346e+07
1.80347e+07
1.80347e+07
1.80347e+07
1.80347e+07
1.80347e+07
1.80347e+07
1.80347e+07
1.80347e+07
1.80347e+07
1.80347e+07
1.80348e+07
1.80348e+07
1.80348e+07
1.80348e+07
1.80348e+07
1.80349e+07
1.80349e+07
1.80349e+07
1.8035e+07
1.8035e+07
1.8035e+07
1.80351e+07
1.80351e+07
1.80352e+07
1.80353e+07
1.80353e+07
1.80354e+07
1.80355e+07
1.80355e+07
1.80356e+07
1.80357e+07
1.80358e+07
1.80359e+07
1.8036e+07
1.80362e+07
1.80363e+07
1.80364e+07
1.80366e+07
1.80367e+07
1.80369e+07
1.80371e+07
1.80373e+07
1.80375e+07
1.80377e+07
1.80379e+07
1.80382e+07
1.80385e+07
1.80387e+07
1.8039e+07
1.80393e+07
1.80397e+07
1.804e+07
1.80404e+07
1.80408e+07
1.80412e+07
1.80416e+07
1.8042e+07
1.80425e+07
1.8043e+07
1.80435e+07
1.8044e+07
1.80446e+07
1.80452e+07
1.80458e+07
1.80464e+07
1.80471e+07
1.80478e+07
1.80485e+07
1.80492e+07
1.805e+07
1.80508e+07
1.80517e+07
1.80525e+07
1.80534e+07
1.80544e+07
1.80553e+07
1.80563e+07
1.80574e+07
1.80584e+07
1.80595e+07
1.80607e+07
1.80618e+07
1.8063e+07
1.80643e+07
1.80656e+07
1.80669e+07
1.80682e+07
1.80696e+07
1.80711e+07
1.80725e+07
1.80741e+07
1.80756e+07
1.80772e+07
1.80788e+07
1.80805e+07
1.80822e+07
1.8084e+07
1.80858e+07
1.80876e+07
1.80895e+07
1.80914e+07
1.80934e+07
1.80954e+07
1.80975e+07
1.80996e+07
1.81017e+07
1.81039e+07
1.81061e+07
1.81084e+07
1.81108e+07
1.81131e+07
1.81156e+07
1.8118e+07
1.81205e+07
1.81231e+07
1.81257e+07
1.81284e+07
1.81311e+07
1.81339e+07
1.81367e+07
1.81395e+07
1.81424e+07
1.81454e+07
1.81484e+07
1.81515e+07
1.81546e+07
1.81577e+07
1.8161e+07
1.81642e+07
1.81675e+07
1.81709e+07
1.81743e+07
1.81778e+07
1.81813e+07
1.81849e+07
1.81886e+07
1.81923e+07
1.8196e+07
1.81998e+07
1.82037e+07
1.82076e+07
1.82115e+07
1.82156e+07
1.82196e+07
1.82238e+07
1.8228e+07
1.82322e+07
1.82365e+07
1.82409e+07
1.82453e+07
1.82498e+07
1.82543e+07
1.82589e+07
1.82635e+07
1.82682e+07
1.8273e+07
1.82778e+07
1.82827e+07
1.82876e+07
1.82926e+07
1.82977e+07
1.83028e+07
1.8308e+07
1.83132e+07
1.83185e+07
1.83238e+07
1.83292e+07
1.83347e+07
1.83402e+07
1.83458e+07
1.83516e+07
1.83578e+07
1.83649e+07
1.80346e+07
1.80346e+07
1.80346e+07
1.80346e+07
1.80346e+07
1.80346e+07
1.80346e+07
1.80346e+07
1.80346e+07
1.80346e+07
1.80346e+07
1.80346e+07
1.80346e+07
1.80346e+07
1.80346e+07
1.80346e+07
1.80346e+07
1.80346e+07
1.80346e+07
1.80346e+07
1.80346e+07
1.80346e+07
1.80346e+07
1.80346e+07
1.80346e+07
1.80346e+07
1.80346e+07
1.80347e+07
1.80347e+07
1.80347e+07
1.80347e+07
1.80347e+07
1.80347e+07
1.80347e+07
1.80347e+07
1.80347e+07
1.80347e+07
1.80348e+07
1.80348e+07
1.80348e+07
1.80348e+07
1.80348e+07
1.80349e+07
1.80349e+07
1.80349e+07
1.8035e+07
1.8035e+07
1.8035e+07
1.80351e+07
1.80351e+07
1.80352e+07
1.80353e+07
1.80353e+07
1.80354e+07
1.80355e+07
1.80355e+07
1.80356e+07
1.80357e+07
1.80358e+07
1.80359e+07
1.8036e+07
1.80362e+07
1.80363e+07
1.80364e+07
1.80366e+07
1.80367e+07
1.80369e+07
1.80371e+07
1.80373e+07
1.80375e+07
1.80377e+07
1.80379e+07
1.80382e+07
1.80385e+07
1.80387e+07
1.8039e+07
1.80393e+07
1.80397e+07
1.804e+07
1.80404e+07
1.80408e+07
1.80412e+07
1.80416e+07
1.8042e+07
1.80425e+07
1.8043e+07
1.80435e+07
1.8044e+07
1.80446e+07
1.80452e+07
1.80458e+07
1.80464e+07
1.80471e+07
1.80478e+07
1.80485e+07
1.80492e+07
1.805e+07
1.80508e+07
1.80517e+07
1.80525e+07
1.80534e+07
1.80544e+07
1.80553e+07
1.80563e+07
1.80574e+07
1.80584e+07
1.80595e+07
1.80607e+07
1.80618e+07
1.8063e+07
1.80643e+07
1.80656e+07
1.80669e+07
1.80682e+07
1.80696e+07
1.80711e+07
1.80725e+07
1.80741e+07
1.80756e+07
1.80772e+07
1.80788e+07
1.80805e+07
1.80822e+07
1.8084e+07
1.80858e+07
1.80876e+07
1.80895e+07
1.80914e+07
1.80934e+07
1.80954e+07
1.80975e+07
1.80996e+07
1.81017e+07
1.81039e+07
1.81061e+07
1.81084e+07
1.81108e+07
1.81131e+07
1.81156e+07
1.8118e+07
1.81205e+07
1.81231e+07
1.81257e+07
1.81284e+07
1.81311e+07
1.81339e+07
1.81367e+07
1.81395e+07
1.81424e+07
1.81454e+07
1.81484e+07
1.81515e+07
1.81546e+07
1.81577e+07
1.8161e+07
1.81642e+07
1.81675e+07
1.81709e+07
1.81743e+07
1.81778e+07
1.81813e+07
1.81849e+07
1.81886e+07
1.81923e+07
1.8196e+07
1.81998e+07
1.82037e+07
1.82076e+07
1.82115e+07
1.82156e+07
1.82196e+07
1.82238e+07
1.8228e+07
1.82322e+07
1.82365e+07
1.82409e+07
1.82453e+07
1.82498e+07
1.82543e+07
1.82589e+07
1.82635e+07
1.82682e+07
1.8273e+07
1.82778e+07
1.82827e+07
1.82876e+07
1.82926e+07
1.82977e+07
1.83028e+07
1.8308e+07
1.83132e+07
1.83185e+07
1.83238e+07
1.83292e+07
1.83347e+07
1.83402e+07
1.83458e+07
1.83515e+07
1.83574e+07
1.83637e+07
1.80346e+07
1.80346e+07
1.80346e+07
1.80346e+07
1.80346e+07
1.80346e+07
1.80346e+07
1.80346e+07
1.80346e+07
1.80346e+07
1.80346e+07
1.80346e+07
1.80346e+07
1.80346e+07
1.80346e+07
1.80346e+07
1.80346e+07
1.80346e+07
1.80346e+07
1.80346e+07
1.80346e+07
1.80346e+07
1.80346e+07
1.80346e+07
1.80346e+07
1.80346e+07
1.80346e+07
1.80347e+07
1.80347e+07
1.80347e+07
1.80347e+07
1.80347e+07
1.80347e+07
1.80347e+07
1.80347e+07
1.80347e+07
1.80347e+07
1.80348e+07
1.80348e+07
1.80348e+07
1.80348e+07
1.80348e+07
1.80349e+07
1.80349e+07
1.80349e+07
1.8035e+07
1.8035e+07
1.8035e+07
1.80351e+07
1.80351e+07
1.80352e+07
1.80353e+07
1.80353e+07
1.80354e+07
1.80355e+07
1.80355e+07
1.80356e+07
1.80357e+07
1.80358e+07
1.80359e+07
1.8036e+07
1.80362e+07
1.80363e+07
1.80364e+07
1.80366e+07
1.80367e+07
1.80369e+07
1.80371e+07
1.80373e+07
1.80375e+07
1.80377e+07
1.80379e+07
1.80382e+07
1.80385e+07
1.80387e+07
1.8039e+07
1.80393e+07
1.80397e+07
1.804e+07
1.80404e+07
1.80408e+07
1.80412e+07
1.80416e+07
1.8042e+07
1.80425e+07
1.8043e+07
1.80435e+07
1.8044e+07
1.80446e+07
1.80452e+07
1.80458e+07
1.80464e+07
1.80471e+07
1.80478e+07
1.80485e+07
1.80492e+07
1.805e+07
1.80508e+07
1.80517e+07
1.80525e+07
1.80534e+07
1.80544e+07
1.80553e+07
1.80563e+07
1.80574e+07
1.80584e+07
1.80595e+07
1.80607e+07
1.80618e+07
1.8063e+07
1.80643e+07
1.80656e+07
1.80669e+07
1.80682e+07
1.80696e+07
1.80711e+07
1.80725e+07
1.80741e+07
1.80756e+07
1.80772e+07
1.80788e+07
1.80805e+07
1.80822e+07
1.8084e+07
1.80858e+07
1.80876e+07
1.80895e+07
1.80914e+07
1.80934e+07
1.80954e+07
1.80975e+07
1.80996e+07
1.81017e+07
1.81039e+07
1.81061e+07
1.81084e+07
1.81108e+07
1.81131e+07
1.81156e+07
1.8118e+07
1.81205e+07
1.81231e+07
1.81257e+07
1.81284e+07
1.81311e+07
1.81339e+07
1.81367e+07
1.81395e+07
1.81424e+07
1.81454e+07
1.81484e+07
1.81515e+07
1.81546e+07
1.81577e+07
1.8161e+07
1.81642e+07
1.81675e+07
1.81709e+07
1.81743e+07
1.81778e+07
1.81813e+07
1.81849e+07
1.81886e+07
1.81923e+07
1.8196e+07
1.81998e+07
1.82037e+07
1.82076e+07
1.82115e+07
1.82156e+07
1.82196e+07
1.82238e+07
1.8228e+07
1.82322e+07
1.82365e+07
1.82409e+07
1.82453e+07
1.82498e+07
1.82543e+07
1.82589e+07
1.82635e+07
1.82682e+07
1.8273e+07
1.82778e+07
1.82827e+07
1.82876e+07
1.82926e+07
1.82977e+07
1.83028e+07
1.8308e+07
1.83132e+07
1.83185e+07
1.83238e+07
1.83292e+07
1.83347e+07
1.83402e+07
1.83458e+07
1.83513e+07
1.83569e+07
1.83619e+07
1.80346e+07
1.80346e+07
1.80346e+07
1.80346e+07
1.80346e+07
1.80346e+07
1.80346e+07
1.80346e+07
1.80346e+07
1.80346e+07
1.80346e+07
1.80346e+07
1.80346e+07
1.80346e+07
1.80346e+07
1.80346e+07
1.80346e+07
1.80346e+07
1.80346e+07
1.80346e+07
1.80346e+07
1.80346e+07
1.80346e+07
1.80346e+07
1.80346e+07
1.80346e+07
1.80346e+07
1.80347e+07
1.80347e+07
1.80347e+07
1.80347e+07
1.80347e+07
1.80347e+07
1.80347e+07
1.80347e+07
1.80347e+07
1.80347e+07
1.80348e+07
1.80348e+07
1.80348e+07
1.80348e+07
1.80348e+07
1.80349e+07
1.80349e+07
1.80349e+07
1.8035e+07
1.8035e+07
1.8035e+07
1.80351e+07
1.80351e+07
1.80352e+07
1.80353e+07
1.80353e+07
1.80354e+07
1.80355e+07
1.80355e+07
1.80356e+07
1.80357e+07
1.80358e+07
1.80359e+07
1.8036e+07
1.80362e+07
1.80363e+07
1.80364e+07
1.80366e+07
1.80367e+07
1.80369e+07
1.80371e+07
1.80373e+07
1.80375e+07
1.80377e+07
1.80379e+07
1.80382e+07
1.80385e+07
1.80387e+07
1.8039e+07
1.80393e+07
1.80397e+07
1.804e+07
1.80404e+07
1.80408e+07
1.80412e+07
1.80416e+07
1.8042e+07
1.80425e+07
1.8043e+07
1.80435e+07
1.8044e+07
1.80446e+07
1.80452e+07
1.80458e+07
1.80464e+07
1.80471e+07
1.80478e+07
1.80485e+07
1.80492e+07
1.805e+07
1.80508e+07
1.80517e+07
1.80525e+07
1.80534e+07
1.80544e+07
1.80553e+07
1.80563e+07
1.80574e+07
1.80584e+07
1.80595e+07
1.80607e+07
1.80618e+07
1.8063e+07
1.80643e+07
1.80656e+07
1.80669e+07
1.80682e+07
1.80696e+07
1.80711e+07
1.80725e+07
1.80741e+07
1.80756e+07
1.80772e+07
1.80788e+07
1.80805e+07
1.80822e+07
1.8084e+07
1.80858e+07
1.80876e+07
1.80895e+07
1.80914e+07
1.80934e+07
1.80954e+07
1.80975e+07
1.80996e+07
1.81017e+07
1.81039e+07
1.81061e+07
1.81084e+07
1.81108e+07
1.81131e+07
1.81156e+07
1.8118e+07
1.81205e+07
1.81231e+07
1.81257e+07
1.81284e+07
1.81311e+07
1.81339e+07
1.81367e+07
1.81395e+07
1.81424e+07
1.81454e+07
1.81484e+07
1.81515e+07
1.81546e+07
1.81577e+07
1.8161e+07
1.81642e+07
1.81675e+07
1.81709e+07
1.81743e+07
1.81778e+07
1.81813e+07
1.81849e+07
1.81886e+07
1.81923e+07
1.8196e+07
1.81998e+07
1.82037e+07
1.82076e+07
1.82115e+07
1.82156e+07
1.82196e+07
1.82238e+07
1.8228e+07
1.82322e+07
1.82365e+07
1.82409e+07
1.82453e+07
1.82498e+07
1.82543e+07
1.82589e+07
1.82635e+07
1.82682e+07
1.8273e+07
1.82778e+07
1.82827e+07
1.82876e+07
1.82926e+07
1.82977e+07
1.83028e+07
1.8308e+07
1.83132e+07
1.83185e+07
1.83238e+07
1.83292e+07
1.83347e+07
1.83402e+07
1.83457e+07
1.83512e+07
1.83563e+07
1.83604e+07
1.80346e+07
1.80346e+07
1.80346e+07
1.80346e+07
1.80346e+07
1.80346e+07
1.80346e+07
1.80346e+07
1.80346e+07
1.80346e+07
1.80346e+07
1.80346e+07
1.80346e+07
1.80346e+07
1.80346e+07
1.80346e+07
1.80346e+07
1.80346e+07
1.80346e+07
1.80346e+07
1.80346e+07
1.80346e+07
1.80346e+07
1.80346e+07
1.80346e+07
1.80346e+07
1.80346e+07
1.80347e+07
1.80347e+07
1.80347e+07
1.80347e+07
1.80347e+07
1.80347e+07
1.80347e+07
1.80347e+07
1.80347e+07
1.80347e+07
1.80348e+07
1.80348e+07
1.80348e+07
1.80348e+07
1.80348e+07
1.80349e+07
1.80349e+07
1.80349e+07
1.8035e+07
1.8035e+07
1.8035e+07
1.80351e+07
1.80351e+07
1.80352e+07
1.80353e+07
1.80353e+07
1.80354e+07
1.80355e+07
1.80355e+07
1.80356e+07
1.80357e+07
1.80358e+07
1.80359e+07
1.8036e+07
1.80362e+07
1.80363e+07
1.80364e+07
1.80366e+07
1.80367e+07
1.80369e+07
1.80371e+07
1.80373e+07
1.80375e+07
1.80377e+07
1.80379e+07
1.80382e+07
1.80385e+07
1.80387e+07
1.8039e+07
1.80393e+07
1.80397e+07
1.804e+07
1.80404e+07
1.80408e+07
1.80412e+07
1.80416e+07
1.8042e+07
1.80425e+07
1.8043e+07
1.80435e+07
1.8044e+07
1.80446e+07
1.80452e+07
1.80458e+07
1.80464e+07
1.80471e+07
1.80478e+07
1.80485e+07
1.80492e+07
1.805e+07
1.80508e+07
1.80517e+07
1.80525e+07
1.80534e+07
1.80544e+07
1.80553e+07
1.80563e+07
1.80574e+07
1.80584e+07
1.80595e+07
1.80607e+07
1.80618e+07
1.8063e+07
1.80643e+07
1.80656e+07
1.80669e+07
1.80682e+07
1.80696e+07
1.80711e+07
1.80725e+07
1.80741e+07
1.80756e+07
1.80772e+07
1.80788e+07
1.80805e+07
1.80822e+07
1.8084e+07
1.80858e+07
1.80876e+07
1.80895e+07
1.80914e+07
1.80934e+07
1.80954e+07
1.80975e+07
1.80996e+07
1.81017e+07
1.81039e+07
1.81061e+07
1.81084e+07
1.81108e+07
1.81131e+07
1.81156e+07
1.8118e+07
1.81205e+07
1.81231e+07
1.81257e+07
1.81284e+07
1.81311e+07
1.81339e+07
1.81367e+07
1.81395e+07
1.81424e+07
1.81454e+07
1.81484e+07
1.81515e+07
1.81546e+07
1.81577e+07
1.8161e+07
1.81642e+07
1.81675e+07
1.81709e+07
1.81743e+07
1.81778e+07
1.81813e+07
1.81849e+07
1.81886e+07
1.81923e+07
1.8196e+07
1.81998e+07
1.82037e+07
1.82076e+07
1.82115e+07
1.82156e+07
1.82196e+07
1.82238e+07
1.8228e+07
1.82322e+07
1.82365e+07
1.82409e+07
1.82453e+07
1.82498e+07
1.82543e+07
1.82589e+07
1.82635e+07
1.82682e+07
1.8273e+07
1.82778e+07
1.82827e+07
1.82876e+07
1.82926e+07
1.82977e+07
1.83028e+07
1.8308e+07
1.83132e+07
1.83185e+07
1.83238e+07
1.83292e+07
1.83347e+07
1.83402e+07
1.83457e+07
1.83512e+07
1.83561e+07
1.83602e+07
1.80346e+07
1.80346e+07
1.80346e+07
1.80346e+07
1.80346e+07
1.80346e+07
1.80346e+07
1.80346e+07
1.80346e+07
1.80346e+07
1.80346e+07
1.80346e+07
1.80346e+07
1.80346e+07
1.80346e+07
1.80346e+07
1.80346e+07
1.80346e+07
1.80346e+07
1.80346e+07
1.80346e+07
1.80346e+07
1.80346e+07
1.80346e+07
1.80346e+07
1.80346e+07
1.80346e+07
1.80347e+07
1.80347e+07
1.80347e+07
1.80347e+07
1.80347e+07
1.80347e+07
1.80347e+07
1.80347e+07
1.80347e+07
1.80347e+07
1.80348e+07
1.80348e+07
1.80348e+07
1.80348e+07
1.80348e+07
1.80349e+07
1.80349e+07
1.80349e+07
1.8035e+07
1.8035e+07
1.8035e+07
1.80351e+07
1.80351e+07
1.80352e+07
1.80353e+07
1.80353e+07
1.80354e+07
1.80355e+07
1.80355e+07
1.80356e+07
1.80357e+07
1.80358e+07
1.80359e+07
1.8036e+07
1.80362e+07
1.80363e+07
1.80364e+07
1.80366e+07
1.80367e+07
1.80369e+07
1.80371e+07
1.80373e+07
1.80375e+07
1.80377e+07
1.80379e+07
1.80382e+07
1.80385e+07
1.80387e+07
1.8039e+07
1.80393e+07
1.80397e+07
1.804e+07
1.80404e+07
1.80408e+07
1.80412e+07
1.80416e+07
1.8042e+07
1.80425e+07
1.8043e+07
1.80435e+07
1.8044e+07
1.80446e+07
1.80452e+07
1.80458e+07
1.80464e+07
1.80471e+07
1.80478e+07
1.80485e+07
1.80492e+07
1.805e+07
1.80508e+07
1.80517e+07
1.80525e+07
1.80534e+07
1.80544e+07
1.80553e+07
1.80563e+07
1.80574e+07
1.80584e+07
1.80595e+07
1.80607e+07
1.80618e+07
1.8063e+07
1.80643e+07
1.80656e+07
1.80669e+07
1.80682e+07
1.80696e+07
1.80711e+07
1.80725e+07
1.80741e+07
1.80756e+07
1.80772e+07
1.80788e+07
1.80805e+07
1.80822e+07
1.8084e+07
1.80858e+07
1.80876e+07
1.80895e+07
1.80914e+07
1.80934e+07
1.80954e+07
1.80975e+07
1.80996e+07
1.81017e+07
1.81039e+07
1.81061e+07
1.81084e+07
1.81108e+07
1.81131e+07
1.81156e+07
1.8118e+07
1.81205e+07
1.81231e+07
1.81257e+07
1.81284e+07
1.81311e+07
1.81339e+07
1.81367e+07
1.81395e+07
1.81424e+07
1.81454e+07
1.81484e+07
1.81515e+07
1.81546e+07
1.81577e+07
1.8161e+07
1.81642e+07
1.81675e+07
1.81709e+07
1.81743e+07
1.81778e+07
1.81813e+07
1.81849e+07
1.81886e+07
1.81923e+07
1.8196e+07
1.81998e+07
1.82037e+07
1.82076e+07
1.82115e+07
1.82156e+07
1.82196e+07
1.82238e+07
1.8228e+07
1.82322e+07
1.82365e+07
1.82409e+07
1.82453e+07
1.82498e+07
1.82543e+07
1.82589e+07
1.82635e+07
1.82682e+07
1.8273e+07
1.82778e+07
1.82827e+07
1.82876e+07
1.82926e+07
1.82977e+07
1.83028e+07
1.8308e+07
1.83132e+07
1.83185e+07
1.83238e+07
1.83292e+07
1.83347e+07
1.83402e+07
1.83457e+07
1.83512e+07
1.83561e+07
1.83601e+07
1.80346e+07
1.80346e+07
1.80346e+07
1.80346e+07
1.80346e+07
1.80346e+07
1.80346e+07
1.80346e+07
1.80346e+07
1.80346e+07
1.80346e+07
1.80346e+07
1.80346e+07
1.80346e+07
1.80346e+07
1.80346e+07
1.80346e+07
1.80346e+07
1.80346e+07
1.80346e+07
1.80346e+07
1.80346e+07
1.80346e+07
1.80346e+07
1.80346e+07
1.80346e+07
1.80346e+07
1.80347e+07
1.80347e+07
1.80347e+07
1.80347e+07
1.80347e+07
1.80347e+07
1.80347e+07
1.80347e+07
1.80347e+07
1.80347e+07
1.80348e+07
1.80348e+07
1.80348e+07
1.80348e+07
1.80348e+07
1.80349e+07
1.80349e+07
1.80349e+07
1.8035e+07
1.8035e+07
1.8035e+07
1.80351e+07
1.80351e+07
1.80352e+07
1.80353e+07
1.80353e+07
1.80354e+07
1.80355e+07
1.80355e+07
1.80356e+07
1.80357e+07
1.80358e+07
1.80359e+07
1.8036e+07
1.80362e+07
1.80363e+07
1.80364e+07
1.80366e+07
1.80367e+07
1.80369e+07
1.80371e+07
1.80373e+07
1.80375e+07
1.80377e+07
1.80379e+07
1.80382e+07
1.80385e+07
1.80387e+07
1.8039e+07
1.80393e+07
1.80397e+07
1.804e+07
1.80404e+07
1.80408e+07
1.80412e+07
1.80416e+07
1.8042e+07
1.80425e+07
1.8043e+07
1.80435e+07
1.8044e+07
1.80446e+07
1.80452e+07
1.80458e+07
1.80464e+07
1.80471e+07
1.80478e+07
1.80485e+07
1.80492e+07
1.805e+07
1.80508e+07
1.80517e+07
1.80525e+07
1.80534e+07
1.80544e+07
1.80553e+07
1.80563e+07
1.80574e+07
1.80584e+07
1.80595e+07
1.80607e+07
1.80618e+07
1.8063e+07
1.80643e+07
1.80656e+07
1.80669e+07
1.80682e+07
1.80696e+07
1.80711e+07
1.80725e+07
1.80741e+07
1.80756e+07
1.80772e+07
1.80788e+07
1.80805e+07
1.80822e+07
1.8084e+07
1.80858e+07
1.80876e+07
1.80895e+07
1.80914e+07
1.80934e+07
1.80954e+07
1.80975e+07
1.80996e+07
1.81017e+07
1.81039e+07
1.81061e+07
1.81084e+07
1.81108e+07
1.81131e+07
1.81156e+07
1.8118e+07
1.81205e+07
1.81231e+07
1.81257e+07
1.81284e+07
1.81311e+07
1.81339e+07
1.81367e+07
1.81395e+07
1.81424e+07
1.81454e+07
1.81484e+07
1.81515e+07
1.81546e+07
1.81577e+07
1.8161e+07
1.81642e+07
1.81675e+07
1.81709e+07
1.81743e+07
1.81778e+07
1.81813e+07
1.81849e+07
1.81886e+07
1.81923e+07
1.8196e+07
1.81998e+07
1.82037e+07
1.82076e+07
1.82115e+07
1.82156e+07
1.82196e+07
1.82238e+07
1.8228e+07
1.82322e+07
1.82365e+07
1.82409e+07
1.82453e+07
1.82498e+07
1.82543e+07
1.82589e+07
1.82635e+07
1.82682e+07
1.8273e+07
1.82778e+07
1.82827e+07
1.82876e+07
1.82926e+07
1.82977e+07
1.83028e+07
1.8308e+07
1.83132e+07
1.83185e+07
1.83238e+07
1.83292e+07
1.83347e+07
1.83402e+07
1.83457e+07
1.83512e+07
1.83561e+07
1.83601e+07
1.83821e+07
1.83893e+07
1.83926e+07
1.83941e+07
1.83951e+07
1.83962e+07
1.83973e+07
1.83982e+07
1.83991e+07
1.84e+07
1.84008e+07
1.84016e+07
1.84024e+07
1.84031e+07
1.84037e+07
1.84041e+07
1.84043e+07
1.84041e+07
1.84035e+07
1.84017e+07
1.83812e+07
1.83876e+07
1.83908e+07
1.83923e+07
1.83934e+07
1.83945e+07
1.83955e+07
1.83965e+07
1.83974e+07
1.83982e+07
1.83991e+07
1.83999e+07
1.84007e+07
1.84014e+07
1.84019e+07
1.84023e+07
1.84025e+07
1.84024e+07
1.84017e+07
1.84e+07
1.83804e+07
1.83869e+07
1.83905e+07
1.83921e+07
1.83932e+07
1.83943e+07
1.83954e+07
1.83963e+07
1.83972e+07
1.83981e+07
1.83989e+07
1.83997e+07
1.84004e+07
1.84011e+07
1.84017e+07
1.8402e+07
1.84021e+07
1.84018e+07
1.8401e+07
1.83992e+07
1.83769e+07
1.83808e+07
1.83827e+07
1.83837e+07
1.83847e+07
1.83857e+07
1.83867e+07
1.83877e+07
1.83886e+07
1.83895e+07
1.83904e+07
1.83912e+07
1.83921e+07
1.83928e+07
1.83934e+07
1.83939e+07
1.83941e+07
1.8394e+07
1.83935e+07
1.83923e+07
1.83722e+07
1.83755e+07
1.83784e+07
1.83807e+07
1.83826e+07
1.83841e+07
1.83854e+07
1.83864e+07
1.83874e+07
1.83882e+07
1.8389e+07
1.83896e+07
1.83901e+07
1.83905e+07
1.83908e+07
1.83909e+07
1.83909e+07
1.83907e+07
1.83904e+07
1.83899e+07
1.83623e+07
1.83617e+07
1.83608e+07
1.83599e+07
1.83593e+07
1.83592e+07
1.83594e+07
1.83599e+07
1.83606e+07
1.83614e+07
1.83624e+07
1.83635e+07
1.83647e+07
1.8366e+07
1.83672e+07
1.83685e+07
1.83698e+07
1.83713e+07
1.83728e+07
1.83746e+07
1.83529e+07
1.83513e+07
1.83517e+07
1.83531e+07
1.83545e+07
1.83556e+07
1.83566e+07
1.83576e+07
1.83585e+07
1.83593e+07
1.836e+07
1.83607e+07
1.83614e+07
1.8362e+07
1.83628e+07
1.83637e+07
1.83649e+07
1.83665e+07
1.83687e+07
1.83715e+07
1.83395e+07
1.83318e+07
1.83257e+07
1.83219e+07
1.83198e+07
1.83186e+07
1.83181e+07
1.83181e+07
1.83186e+07
1.83195e+07
1.83208e+07
1.83224e+07
1.83243e+07
1.83268e+07
1.83296e+07
1.83328e+07
1.83367e+07
1.83413e+07
1.83467e+07
1.83531e+07
1.83356e+07
1.83276e+07
1.83225e+07
1.83197e+07
1.83181e+07
1.83173e+07
1.8317e+07
1.83171e+07
1.83177e+07
1.83186e+07
1.83198e+07
1.83213e+07
1.83231e+07
1.83254e+07
1.8328e+07
1.83311e+07
1.83347e+07
1.83391e+07
1.83445e+07
1.83509e+07
1.83318e+07
1.83198e+07
1.83127e+07
1.83091e+07
1.83069e+07
1.83057e+07
1.83052e+07
1.83052e+07
1.83057e+07
1.83067e+07
1.8308e+07
1.83097e+07
1.83118e+07
1.83143e+07
1.83173e+07
1.83208e+07
1.8325e+07
1.83299e+07
1.8336e+07
1.83435e+07
1.83927e+07
1.8391e+07
1.8394e+07
1.83984e+07
1.84031e+07
1.84079e+07
1.84128e+07
1.84178e+07
1.84228e+07
1.84278e+07
1.84329e+07
1.8438e+07
1.84432e+07
1.84484e+07
1.84536e+07
1.84589e+07
1.84642e+07
1.84695e+07
1.84749e+07
1.84803e+07
1.84857e+07
1.84912e+07
1.84967e+07
1.85022e+07
1.85078e+07
1.85134e+07
1.8519e+07
1.85247e+07
1.85304e+07
1.85361e+07
1.85419e+07
1.85477e+07
1.85535e+07
1.85593e+07
1.85652e+07
1.85711e+07
1.85771e+07
1.8583e+07
1.8589e+07
1.85951e+07
1.86011e+07
1.86072e+07
1.86133e+07
1.86195e+07
1.86256e+07
1.86318e+07
1.8638e+07
1.86443e+07
1.86505e+07
1.86568e+07
1.86632e+07
1.86695e+07
1.86759e+07
1.86823e+07
1.86887e+07
1.86951e+07
1.87016e+07
1.87081e+07
1.87146e+07
1.87211e+07
1.87276e+07
1.87342e+07
1.87408e+07
1.87474e+07
1.87541e+07
1.87607e+07
1.87674e+07
1.87741e+07
1.87808e+07
1.87875e+07
1.87942e+07
1.8801e+07
1.88077e+07
1.88145e+07
1.88213e+07
1.88281e+07
1.88349e+07
1.88418e+07
1.88486e+07
1.88555e+07
1.88623e+07
1.88692e+07
1.88761e+07
1.8883e+07
1.88899e+07
1.88968e+07
1.89038e+07
1.89107e+07
1.89177e+07
1.89246e+07
1.89316e+07
1.89385e+07
1.89455e+07
1.89525e+07
1.89595e+07
1.89664e+07
1.89734e+07
1.89804e+07
1.89874e+07
1.89944e+07
1.90014e+07
1.90084e+07
1.90154e+07
1.90224e+07
1.90294e+07
1.90364e+07
1.90434e+07
1.90504e+07
1.90574e+07
1.90644e+07
1.90714e+07
1.90784e+07
1.90854e+07
1.90924e+07
1.90993e+07
1.91063e+07
1.91132e+07
1.91202e+07
1.91272e+07
1.91341e+07
1.9141e+07
1.91479e+07
1.91549e+07
1.91618e+07
1.91686e+07
1.91755e+07
1.91824e+07
1.91892e+07
1.91961e+07
1.92029e+07
1.92097e+07
1.92165e+07
1.92232e+07
1.923e+07
1.92367e+07
1.92434e+07
1.92501e+07
1.92568e+07
1.92634e+07
1.92701e+07
1.92767e+07
1.92833e+07
1.92899e+07
1.92964e+07
1.9303e+07
1.93095e+07
1.9316e+07
1.93225e+07
1.93289e+07
1.93353e+07
1.93418e+07
1.93482e+07
1.93545e+07
1.93609e+07
1.93672e+07
1.93735e+07
1.93798e+07
1.9386e+07
1.93922e+07
1.93984e+07
1.94046e+07
1.94108e+07
1.94169e+07
1.9423e+07
1.94291e+07
1.94351e+07
1.94412e+07
1.94472e+07
1.94531e+07
1.94591e+07
1.9465e+07
1.94709e+07
1.94767e+07
1.94826e+07
1.94884e+07
1.94941e+07
1.94999e+07
1.95056e+07
1.95113e+07
1.95169e+07
1.95226e+07
1.95282e+07
1.95337e+07
1.95393e+07
1.95448e+07
1.95503e+07
1.95557e+07
1.95611e+07
1.95665e+07
1.95719e+07
1.95772e+07
1.95825e+07
1.95877e+07
1.9593e+07
1.95982e+07
1.96033e+07
1.96085e+07
1.96136e+07
1.96186e+07
1.96237e+07
1.83921e+07
1.83909e+07
1.83939e+07
1.83984e+07
1.84031e+07
1.84079e+07
1.84128e+07
1.84178e+07
1.84228e+07
1.84278e+07
1.84329e+07
1.8438e+07
1.84432e+07
1.84484e+07
1.84536e+07
1.84589e+07
1.84642e+07
1.84695e+07
1.84749e+07
1.84803e+07
1.84857e+07
1.84912e+07
1.84967e+07
1.85022e+07
1.85078e+07
1.85134e+07
1.8519e+07
1.85247e+07
1.85304e+07
1.85361e+07
1.85419e+07
1.85477e+07
1.85535e+07
1.85593e+07
1.85652e+07
1.85711e+07
1.85771e+07
1.8583e+07
1.8589e+07
1.85951e+07
1.86011e+07
1.86072e+07
1.86133e+07
1.86195e+07
1.86256e+07
1.86318e+07
1.8638e+07
1.86443e+07