/*--------------------------------*- C++ -*----------------------------------*\
| =========                 |                                                 |
| \\      /  F ield         | OpenFOAM: The Open Source CFD Toolbox           |
|  \\    /   O peration     | Version:  3.0.x                                 |
|   \\  /    A nd           | Web:      www.OpenFOAM.org                      |
|    \\/     M anipulation  |                                                 |
\*---------------------------------------------------------------------------*/
FoamFile
{
    version     2.0;
    format      ascii;
    class       volVectorField;
    location    "0.58";
    object      U;
}
// * * * * * * * * * * * * * * * * * * * * * * * * * * * * * * * * * * * * * //

dimensions      [0 1 -1 0 0 0 0];

internalField   nonuniform List<vector> 
6900
(
(42.5777 9.5991e-05 0)
(42.2738 8.87982e-05 0)
(41.9156 8.7509e-05 0)
(41.5776 8.92409e-05 0)
(41.2582 9.07916e-05 0)
(40.9422 9.20443e-05 0)
(40.6238 9.31401e-05 0)
(40.3041 9.40841e-05 0)
(39.9844 9.48809e-05 0)
(39.6652 9.55471e-05 0)
(39.3464 9.60972e-05 0)
(39.0279 9.65429e-05 0)
(38.7096 9.68975e-05 0)
(38.3916 9.71745e-05 0)
(38.074 9.73864e-05 0)
(37.7568 9.75454e-05 0)
(37.4401 9.76527e-05 0)
(37.1238 9.77537e-05 0)
(36.8079 9.77999e-05 0)
(36.4926 9.78384e-05 0)
(36.1779 9.78639e-05 0)
(35.8637 9.788e-05 0)
(35.5501 9.789e-05 0)
(35.2372 9.78962e-05 0)
(34.925 9.78979e-05 0)
(34.6134 9.79009e-05 0)
(34.3026 9.78995e-05 0)
(33.9926 9.78991e-05 0)
(33.6833 9.78988e-05 0)
(33.3749 9.78952e-05 0)
(33.0674 9.78952e-05 0)
(32.7607 9.78917e-05 0)
(32.4549 9.78899e-05 0)
(32.1501 9.78881e-05 0)
(31.8463 9.78848e-05 0)
(31.5435 9.78838e-05 0)
(31.2417 9.78827e-05 0)
(30.941 9.78798e-05 0)
(30.6414 9.78805e-05 0)
(30.3429 9.7881e-05 0)
(30.0456 9.78808e-05 0)
(29.7494 9.78816e-05 0)
(29.4545 9.78856e-05 0)
(29.1608 9.78932e-05 0)
(28.8683 9.78999e-05 0)
(28.5772 9.79126e-05 0)
(28.2874 9.79203e-05 0)
(27.9989 9.79298e-05 0)
(27.7118 9.79378e-05 0)
(27.4261 9.79481e-05 0)
(27.1417 9.79669e-05 0)
(26.8588 9.7973e-05 0)
(26.5774 9.80846e-05 0)
(26.2974 9.80466e-05 0)
(26.0189 9.81184e-05 0)
(25.742 9.81741e-05 0)
(25.4665 9.81583e-05 0)
(25.1925 9.82602e-05 0)
(24.9201 9.82692e-05 0)
(24.6493 9.83027e-05 0)
(24.38 9.83368e-05 0)
(24.1122 9.83531e-05 0)
(23.8461 9.84405e-05 0)
(23.5815 9.84286e-05 0)
(23.3186 9.84633e-05 0)
(23.0572 9.85126e-05 0)
(22.7975 9.85467e-05 0)
(22.5393 9.85708e-05 0)
(22.2828 9.8567e-05 0)
(22.028 9.85229e-05 0)
(21.7747 9.84252e-05 0)
(21.5231 9.82596e-05 0)
(21.2731 9.80191e-05 0)
(21.0248 9.76907e-05 0)
(20.7781 9.72613e-05 0)
(20.5331 9.67155e-05 0)
(20.2898 9.60285e-05 0)
(20.0481 9.51753e-05 0)
(19.8082 9.41261e-05 0)
(19.5699 9.28517e-05 0)
(19.3333 9.13264e-05 0)
(19.0985 8.95265e-05 0)
(18.8654 8.74326e-05 0)
(18.6341 8.50301e-05 0)
(18.4046 8.23188e-05 0)
(18.1768 7.92973e-05 0)
(17.9509 7.59763e-05 0)
(17.7267 7.23745e-05 0)
(17.5045 6.85186e-05 0)
(17.284 6.4442e-05 0)
(17.0655 6.01815e-05 0)
(16.8488 5.57875e-05 0)
(16.6341 5.13043e-05 0)
(16.4213 4.67812e-05 0)
(16.2104 4.22664e-05 0)
(16.0014 3.7809e-05 0)
(15.7945 3.34571e-05 0)
(15.5894 2.92524e-05 0)
(15.3864 2.5234e-05 0)
(15.1853 2.14338e-05 0)
(14.9861 1.78776e-05 0)
(14.789 1.45842e-05 0)
(14.5938 1.15591e-05 0)
(14.4005 8.80105e-06 0)
(14.2092 6.2994e-06 0)
(14.0199 4.03168e-06 0)
(13.8325 1.95857e-06 0)
(13.6471 3.68313e-08 0)
(13.4636 -1.17039e-06 0)
(13.282 -2.23958e-06 0)
(13.1024 -3.15085e-06 0)
(12.9246 -3.91343e-06 0)
(12.7487 -4.54563e-06 0)
(12.5747 -5.06333e-06 0)
(12.4026 -5.48613e-06 0)
(12.2324 -5.82268e-06 0)
(12.064 -6.09085e-06 0)
(11.8975 -6.3017e-06 0)
(11.7329 -6.46902e-06 0)
(11.57 -6.59646e-06 0)
(11.409 -6.69519e-06 0)
(11.2498 -6.77149e-06 0)
(11.0924 -6.83141e-06 0)
(10.9369 -6.87535e-06 0)
(10.7831 -6.90985e-06 0)
(10.6312 -6.93671e-06 0)
(10.481 -6.95943e-06 0)
(10.3327 -6.9748e-06 0)
(10.1861 -6.98752e-06 0)
(10.0414 -6.99719e-06 0)
(9.89839 -7.00835e-06 0)
(9.75723 -7.01578e-06 0)
(9.61786 -7.02295e-06 0)
(9.48029 -7.02937e-06 0)
(9.34451 -7.03452e-06 0)
(9.21053 -7.04173e-06 0)
(9.07835 -7.04611e-06 0)
(8.94796 -7.05145e-06 0)
(8.81936 -7.0565e-06 0)
(8.69255 -7.06186e-06 0)
(8.56753 -7.06771e-06 0)
(8.44429 -7.07073e-06 0)
(8.32282 -7.07449e-06 0)
(8.20311 -7.07736e-06 0)
(8.08517 -7.08166e-06 0)
(7.96896 -7.08568e-06 0)
(7.8545 -7.08884e-06 0)
(7.74175 -7.0922e-06 0)
(7.63072 -7.09633e-06 0)
(7.5214 -7.10134e-06 0)
(7.41376 -7.10392e-06 0)
(7.3078 -7.10634e-06 0)
(7.20352 -7.10952e-06 0)
(7.10089 -7.11313e-06 0)
(6.99991 -7.1152e-06 0)
(6.90057 -7.1175e-06 0)
(6.80285 -7.12199e-06 0)
(6.70675 -7.12559e-06 0)
(6.61224 -7.12764e-06 0)
(6.51932 -7.12951e-06 0)
(6.42796 -7.13295e-06 0)
(6.33814 -7.13631e-06 0)
(6.24984 -7.13837e-06 0)
(6.16303 -7.14068e-06 0)
(6.07768 -7.14194e-06 0)
(5.99378 -7.14498e-06 0)
(5.9113 -7.14458e-06 0)
(5.8302 -7.14541e-06 0)
(5.75049 -7.14507e-06 0)
(5.67214 -7.14682e-06 0)
(5.59515 -7.14711e-06 0)
(5.51953 -7.14836e-06 0)
(5.44528 -7.14702e-06 0)
(5.37241 -7.14898e-06 0)
(5.30095 -7.148e-06 0)
(5.23092 -7.15319e-06 0)
(5.16233 -7.14852e-06 0)
(5.09518 -7.16002e-06 0)
(5.0295 -7.14845e-06 0)
(4.96526 -7.16893e-06 0)
(4.90247 -7.15376e-06 0)
(4.84109 -7.17404e-06 0)
(4.78111 -7.1919e-06 0)
(4.72247 -7.23175e-06 0)
(4.66517 -7.22186e-06 0)
(4.60915 -7.38246e-06 0)
(4.55442 -7.23032e-06 0)
(4.50089 -7.53663e-06 0)
(4.44861 -7.25367e-06 0)
(4.39748 -7.62385e-06 0)
(4.34755 -7.19722e-06 0)
(4.2987 -7.56137e-06 0)
(4.25099 -7.10096e-06 0)
(4.20427 -7.07774e-06 0)
(4.15857 -7.91165e-06 0)
(4.11366 -3.36668e-06 0)
(4.06895 -2.29315e-06 0)
(4.02064 3.95555e-05 0)
(3.97195 0.00289243 0)
(3.62133 0.00755233 0)
(42.5794 0.000121719 0)
(42.2772 9.50653e-05 0)
(41.9207 8.48653e-05 0)
(41.5845 8.52299e-05 0)
(41.2669 8.60912e-05 0)
(40.9527 8.66623e-05 0)
(40.6361 8.72773e-05 0)
(40.3182 8.78878e-05 0)
(40.0004 8.84373e-05 0)
(39.6831 8.89185e-05 0)
(39.3662 8.93313e-05 0)
(39.0495 8.96751e-05 0)
(38.7331 8.99547e-05 0)
(38.417 9.01775e-05 0)
(38.1014 9.03507e-05 0)
(37.7861 9.04827e-05 0)
(37.4712 9.05682e-05 0)
(37.1568 9.06656e-05 0)
(36.8429 9.07023e-05 0)
(36.5295 9.0739e-05 0)
(36.2167 9.07653e-05 0)
(35.9044 9.07842e-05 0)
(35.5927 9.07985e-05 0)
(35.2817 9.08102e-05 0)
(34.9714 9.08169e-05 0)
(34.6618 9.08272e-05 0)
(34.3529 9.08309e-05 0)
(34.0447 9.0837e-05 0)
(33.7374 9.08433e-05 0)
(33.4309 9.08444e-05 0)
(33.1253 9.08512e-05 0)
(32.8205 9.0852e-05 0)
(32.5167 9.08553e-05 0)
(32.2138 9.08582e-05 0)
(31.9118 9.08584e-05 0)
(31.6109 9.08617e-05 0)
(31.3111 9.08638e-05 0)
(31.0123 9.08626e-05 0)
(30.7146 9.08665e-05 0)
(30.418 9.0869e-05 0)
(30.1226 9.08694e-05 0)
(29.8283 9.08707e-05 0)
(29.5353 9.08755e-05 0)
(29.2435 9.08838e-05 0)
(28.953 9.08888e-05 0)
(28.6638 9.09016e-05 0)
(28.3759 9.09051e-05 0)
(28.0893 9.09115e-05 0)
(27.8041 9.09152e-05 0)
(27.5203 9.09212e-05 0)
(27.2378 9.09361e-05 0)
(26.9569 9.09262e-05 0)
(26.6773 9.10873e-05 0)
(26.3993 9.09844e-05 0)
(26.1227 9.1069e-05 0)
(25.8476 9.11303e-05 0)
(25.5741 9.10695e-05 0)
(25.302 9.12042e-05 0)
(25.0315 9.11909e-05 0)
(24.7626 9.12134e-05 0)
(24.4952 9.12361e-05 0)
(24.2294 9.1231e-05 0)
(23.9652 9.13377e-05 0)
(23.7025 9.12943e-05 0)
(23.4415 9.13097e-05 0)
(23.1821 9.13596e-05 0)
(22.9242 9.13859e-05 0)
(22.668 9.1401e-05 0)
(22.4134 9.13868e-05 0)
(22.1605 9.13307e-05 0)
(21.9091 9.12195e-05 0)
(21.6594 9.104e-05 0)
(21.4114 9.07876e-05 0)
(21.165 9.04503e-05 0)
(20.9202 9.00136e-05 0)
(20.6771 8.94711e-05 0)
(20.4356 8.8789e-05 0)
(20.1958 8.79481e-05 0)
(19.9577 8.69195e-05 0)
(19.7212 8.56738e-05 0)
(19.4865 8.41862e-05 0)
(19.2534 8.24369e-05 0)
(19.0221 8.04067e-05 0)
(18.7924 7.8081e-05 0)
(18.5645 7.54655e-05 0)
(18.3383 7.25583e-05 0)
(18.1138 6.93689e-05 0)
(17.8912 6.59196e-05 0)
(17.6702 6.22365e-05 0)
(17.4511 5.83519e-05 0)
(17.2338 5.42995e-05 0)
(17.0182 5.01313e-05 0)
(16.8045 4.58871e-05 0)
(16.5926 4.16142e-05 0)
(16.3826 3.73583e-05 0)
(16.1744 3.31666e-05 0)
(15.9681 2.90859e-05 0)
(15.7637 2.51539e-05 0)
(15.5611 2.14066e-05 0)
(15.3604 1.78712e-05 0)
(15.1617 1.4576e-05 0)
(14.9648 1.15503e-05 0)
(14.7698 8.81053e-06 0)
(14.5768 6.36718e-06 0)
(14.3856 4.22053e-06 0)
(14.1964 2.36265e-06 0)
(14.0091 7.83132e-07 0)
(13.8236 -6.3557e-07 0)
(13.6401 -1.81457e-06 0)
(13.4585 -2.89586e-06 0)
(13.2788 -3.80482e-06 0)
(13.1009 -4.55431e-06 0)
(12.925 -5.16886e-06 0)
(12.7509 -5.66811e-06 0)
(12.5787 -6.07475e-06 0)
(12.4083 -6.39562e-06 0)
(12.2398 -6.65079e-06 0)
(12.0732 -6.85115e-06 0)
(11.9083 -7.01125e-06 0)
(11.7454 -7.13187e-06 0)
(11.5842 -7.22567e-06 0)
(11.4249 -7.29865e-06 0)
(11.2674 -7.35686e-06 0)
(11.1117 -7.39868e-06 0)
(10.9578 -7.43184e-06 0)
(10.8057 -7.45799e-06 0)
(10.6554 -7.48083e-06 0)
(10.5069 -7.49542e-06 0)
(10.3602 -7.5077e-06 0)
(10.2153 -7.5168e-06 0)
(10.0721 -7.52854e-06 0)
(9.93083 -7.53523e-06 0)
(9.79131 -7.54186e-06 0)
(9.65359 -7.54765e-06 0)
(9.51767 -7.55198e-06 0)
(9.38354 -7.55917e-06 0)
(9.25121 -7.56225e-06 0)
(9.12067 -7.56662e-06 0)
(8.99192 -7.57058e-06 0)
(8.86497 -7.57385e-06 0)
(8.7398 -7.57932e-06 0)
(8.61641 -7.58034e-06 0)
(8.49479 -7.58223e-06 0)
(8.37494 -7.5829e-06 0)
(8.25684 -7.58559e-06 0)
(8.14049 -7.58754e-06 0)
(8.02587 -7.5881e-06 0)
(7.91298 -7.58874e-06 0)
(7.8018 -7.59059e-06 0)
(7.69233 -7.59337e-06 0)
(7.58454 -7.59271e-06 0)
(7.47844 -7.5924e-06 0)
(7.374 -7.59281e-06 0)
(7.27123 -7.59408e-06 0)
(7.1701 -7.59282e-06 0)
(7.07061 -7.59229e-06 0)
(6.97274 -7.59394e-06 0)
(6.87649 -7.59527e-06 0)
(6.78184 -7.59354e-06 0)
(6.68876 -7.59281e-06 0)
(6.59725 -7.59274e-06 0)
(6.50729 -7.59349e-06 0)
(6.41884 -7.59159e-06 0)
(6.33188 -7.5908e-06 0)
(6.24639 -7.58723e-06 0)
(6.16234 -7.58775e-06 0)
(6.07971 -7.58079e-06 0)
(5.99847 -7.58087e-06 0)
(5.9186 -7.57027e-06 0)
(5.84011 -7.57475e-06 0)
(5.76297 -7.56135e-06 0)
(5.6872 -7.57033e-06 0)
(5.6128 -7.54764e-06 0)
(5.53979 -7.56805e-06 0)
(5.46818 -7.5307e-06 0)
(5.398 -7.58058e-06 0)
(5.32926 -7.49765e-06 0)
(5.26197 -7.62138e-06 0)
(5.19613 -7.42209e-06 0)
(5.13175 -7.72176e-06 0)
(5.06881 -7.26223e-06 0)
(5.00728 -7.90688e-06 0)
(4.94715 -6.98759e-06 0)
(4.88837 -8.41848e-06 0)
(4.83092 -6.30658e-06 0)
(4.77475 -9.31301e-06 0)
(4.71987 -5.02404e-06 0)
(4.6662 -1.03502e-05 0)
(4.61377 -3.61145e-06 0)
(4.56249 -1.10933e-05 0)
(4.51242 -3.3184e-06 0)
(4.46342 -1.03928e-05 0)
(4.41556 -4.21281e-06 0)
(4.3687 -7.4458e-06 0)
(4.32286 4.62827e-06 0)
(4.27779 4.84611e-05 0)
(4.23296 0.000324891 0)
(4.18465 0.00186098 0)
(4.13459 0.0133482 0)
(3.91598 0.0345171 0)
(42.5794 1.07219e-12 0)
(42.2772 1.20718e-12 0)
(41.9206 -8.64477e-13 0)
(41.5844 -1.52583e-12 0)
(41.2669 -2.772e-12 0)
(40.9526 -7.03813e-12 0)
(40.6361 -1.08385e-11 0)
(40.3182 -1.10665e-11 0)
(40.0004 -9.66841e-12 0)
(39.6831 -9.85823e-12 0)
(39.3661 -1.08696e-11 0)
(39.0495 -1.44393e-11 0)
(38.7331 -1.655e-11 0)
(38.417 -1.65754e-11 0)
(38.1013 -1.56509e-11 0)
(37.786 -1.56192e-11 0)
(37.4712 -1.55506e-11 0)
(37.1568 -1.52315e-11 0)
(36.8429 -1.51565e-11 0)
(36.5295 -1.36571e-11 0)
(36.2166 -1.39833e-11 0)
(35.9044 -1.4142e-11 0)
(35.5927 -1.58773e-11 0)
(35.2817 -1.74009e-11 0)
(34.9714 -1.90616e-11 0)
(34.6618 -2.01939e-11 0)
(34.3529 -2.10635e-11 0)
(34.0447 -2.16013e-11 0)
(33.7374 -2.42046e-11 0)
(33.4309 -2.56681e-11 0)
(33.1252 -2.73315e-11 0)
(32.8205 -2.48489e-11 0)
(32.5166 -2.26053e-11 0)
(32.2137 -2.0253e-11 0)
(31.9118 -1.95182e-11 0)
(31.6109 -1.76611e-11 0)
(31.3111 -1.59813e-11 0)
(31.0123 -1.55421e-11 0)
(30.7146 -1.68444e-11 0)
(30.418 -1.81363e-11 0)
(30.1226 -2.08844e-11 0)
(29.8283 -2.41052e-11 0)
(29.5353 -2.55403e-11 0)
(29.2435 -2.64165e-11 0)
(28.953 -2.63104e-11 0)
(28.6638 -2.49867e-11 0)
(28.3759 -2.27784e-11 0)
(28.0893 -2.11769e-11 0)
(27.8041 -1.99993e-11 0)
(27.5203 -1.76819e-11 0)
(27.2379 -1.61177e-11 0)
(26.9569 -1.42875e-11 0)
(26.6774 -1.25576e-11 0)
(26.3993 -1.2944e-11 0)
(26.1227 -1.16613e-11 0)
(25.8477 -1.18126e-11 0)
(25.5741 -1.02423e-11 0)
(25.3021 -8.37593e-12 0)
(25.0316 -4.92914e-12 0)
(24.7627 -1.32431e-12 0)
(24.4953 3.34323e-13 0)
(24.2295 4.14093e-13 0)
(23.9652 -4.50863e-13 0)
(23.7026 5.05901e-14 0)
(23.4416 6.25016e-13 0)
(23.1821 -5.22056e-13 0)
(22.9243 -1.33137e-12 0)
(22.6681 -4.04226e-12 0)
(22.4135 -5.80963e-12 0)
(22.1606 -6.56679e-12 0)
(21.9092 -6.05195e-12 0)
(21.6595 -7.41253e-12 0)
(21.4115 -1.04015e-11 0)
(21.1651 -1.1118e-11 0)
(20.9203 -9.35994e-12 0)
(20.6772 -8.8931e-12 0)
(20.4357 -8.4607e-12 0)
(20.1959 -9.12726e-12 0)
(19.9578 -1.38212e-11 0)
(19.7214 -2.13503e-11 0)
(19.4866 -2.79026e-11 0)
(19.2536 -3.27097e-11 0)
(19.0222 -3.69552e-11 0)
(18.7926 -4.19711e-11 0)
(18.5646 -4.51114e-11 0)
(18.3384 -4.60913e-11 0)
(18.114 -4.70619e-11 0)
(17.8913 -4.65981e-11 0)
(17.6704 -4.72103e-11 0)
(17.4512 -4.94706e-11 0)
(17.2339 -5.14013e-11 0)
(17.0184 -4.94601e-11 0)
(16.8046 -4.47945e-11 0)
(16.5928 -4.2809e-11 0)
(16.3827 -3.93268e-11 0)
(16.1745 -3.86421e-11 0)
(15.9682 -3.46961e-11 0)
(15.7638 -3.19399e-11 0)
(15.5612 -2.41797e-11 0)
(15.3605 -2.75951e-11 0)
(15.1618 -2.00092e-11 0)
(14.9649 -2.91894e-11 0)
(14.7699 -1.29777e-11 0)
(14.5769 -3.07401e-11 0)
(14.3857 -4.17476e-12 0)
(14.1965 -2.94241e-11 0)
(14.0091 1.05635e-12 0)
(13.8237 -5.08471e-11 0)
(13.6402 3.15363e-11 0)
(13.4586 -2.62791e-11 0)
(13.2788 7.53502e-11 0)
(13.101 -3.40667e-11 0)
(12.925 7.5956e-11 0)
(12.7509 -6.6198e-11 0)
(12.5787 7.83966e-11 0)
(12.4084 -6.57901e-11 0)
(12.2399 5.84127e-11 0)
(12.0732 -5.20892e-11 0)
(11.9084 2.00305e-11 0)
(11.7454 -1.78624e-11 0)
(11.5843 -1.13976e-11 0)
(11.4249 -1.42235e-11 0)
(11.2674 3.88293e-12 0)
(11.1117 -4.28765e-11 0)
(10.9578 5.19827e-11 0)
(10.8057 -1.00294e-10 0)
(10.6554 1.40726e-10 0)
(10.5069 -1.78766e-10 0)
(10.3602 2.29286e-10 0)
(10.2153 -1.84037e-10 0)
(10.0722 1.67549e-10 0)
(9.9309 -7.2437e-11 0)
(9.79138 5.19203e-11 0)
(9.65366 3.55799e-11 0)
(9.51773 -4.21257e-13 0)
(9.3836 -1.66452e-11 0)
(9.25127 1.20156e-10 0)
(9.12073 -2.72624e-10 0)
(8.99199 8.04784e-11 0)
(8.86503 3.56697e-14 0)
(8.73986 3.07903e-10 0)
(8.61647 -1.52357e-10 0)
(8.49486 -7.59316e-11 0)
(8.375 9.5239e-11 0)
(8.2569 1.57875e-10 0)
(8.14055 -4.54121e-10 0)
(8.02594 4.6489e-10 0)
(7.91305 -3.00699e-10 0)
(7.80187 1.96907e-10 0)
(7.69239 -2.55923e-10 0)
(7.58461 3.65542e-10 0)
(7.4785 -4.10685e-10 0)
(7.37407 3.84784e-10 0)
(7.27129 -4.85835e-10 0)
(7.17016 8.17049e-10 0)
(7.07067 -1.28178e-09 0)
(6.97281 1.67789e-09 0)
(6.87656 -1.81282e-09 0)
(6.7819 2.19788e-09 0)
(6.68883 -3.32013e-09 0)
(6.59732 3.45357e-09 0)
(6.50735 -2.23657e-09 0)
(6.4189 2.58502e-09 0)
(6.33194 -4.10907e-09 0)
(6.24645 4.13312e-09 0)
(6.1624 -4.65725e-09 0)
(6.07977 7.20666e-09 0)
(5.99853 -9.90673e-09 0)
(5.91867 1.26165e-08 0)
(5.84017 -1.60209e-08 0)
(5.76303 2.14135e-08 0)
(5.68726 -2.92226e-08 0)
(5.61286 3.83001e-08 0)
(5.53985 -5.3111e-08 0)
(5.46824 7.77018e-08 0)
(5.39806 -1.15659e-07 0)
(5.32932 1.75822e-07 0)
(5.26203 -2.79679e-07 0)
(5.1962 4.27751e-07 0)
(5.13182 -6.73877e-07 0)
(5.06888 9.56309e-07 0)
(5.00735 -1.46568e-06 0)
(4.94721 1.86807e-06 0)
(4.88843 -2.91856e-06 0)
(4.83098 3.31872e-06 0)
(4.77482 -4.712e-06 0)
(4.71993 5.05625e-06 0)
(4.66627 -6.1096e-06 0)
(4.61383 6.78319e-06 0)
(4.56257 -7.43432e-06 0)
(4.51247 7.77698e-06 0)
(4.46349 -8.19767e-06 0)
(4.41562 7.84831e-06 0)
(4.36878 -6.53053e-06 0)
(4.32295 1.65391e-05 0)
(4.2781 3.45287e-05 0)
(4.23428 0.000204097 0)
(4.19217 0.00082335 0)
(4.15551 0.00349323 0)
(4.12098 0.0146131 0)
(42.5794 -0.000121719 0)
(42.2772 -9.50653e-05 0)
(41.9207 -8.48653e-05 0)
(41.5845 -8.52299e-05 0)
(41.2669 -8.60912e-05 0)
(40.9527 -8.66623e-05 0)
(40.6361 -8.72773e-05 0)
(40.3182 -8.78878e-05 0)
(40.0004 -8.84373e-05 0)
(39.6831 -8.89185e-05 0)
(39.3662 -8.93313e-05 0)
(39.0495 -8.96751e-05 0)
(38.7331 -8.99547e-05 0)
(38.417 -9.01775e-05 0)
(38.1014 -9.03507e-05 0)
(37.7861 -9.04827e-05 0)
(37.4712 -9.05682e-05 0)
(37.1568 -9.06656e-05 0)
(36.8429 -9.07023e-05 0)
(36.5295 -9.0739e-05 0)
(36.2167 -9.07653e-05 0)
(35.9044 -9.07842e-05 0)
(35.5927 -9.07985e-05 0)
(35.2817 -9.08102e-05 0)
(34.9714 -9.08169e-05 0)
(34.6618 -9.08272e-05 0)
(34.3529 -9.08309e-05 0)
(34.0447 -9.0837e-05 0)
(33.7374 -9.08433e-05 0)
(33.4309 -9.08444e-05 0)
(33.1253 -9.08512e-05 0)
(32.8205 -9.0852e-05 0)
(32.5167 -9.08553e-05 0)
(32.2138 -9.08582e-05 0)
(31.9118 -9.08584e-05 0)
(31.6109 -9.08617e-05 0)
(31.3111 -9.08638e-05 0)
(31.0123 -9.08626e-05 0)
(30.7146 -9.08665e-05 0)
(30.418 -9.0869e-05 0)
(30.1226 -9.08694e-05 0)
(29.8283 -9.08707e-05 0)
(29.5353 -9.08755e-05 0)
(29.2435 -9.08838e-05 0)
(28.953 -9.08888e-05 0)
(28.6638 -9.09016e-05 0)
(28.3759 -9.09051e-05 0)
(28.0893 -9.09115e-05 0)
(27.8041 -9.09152e-05 0)
(27.5203 -9.09212e-05 0)
(27.2378 -9.09361e-05 0)
(26.9569 -9.09262e-05 0)
(26.6773 -9.10873e-05 0)
(26.3993 -9.09844e-05 0)
(26.1227 -9.1069e-05 0)
(25.8476 -9.11303e-05 0)
(25.5741 -9.10695e-05 0)
(25.302 -9.12042e-05 0)
(25.0315 -9.11909e-05 0)
(24.7626 -9.12134e-05 0)
(24.4952 -9.12361e-05 0)
(24.2294 -9.1231e-05 0)
(23.9652 -9.13377e-05 0)
(23.7025 -9.12943e-05 0)
(23.4415 -9.13097e-05 0)
(23.1821 -9.13596e-05 0)
(22.9242 -9.13859e-05 0)
(22.668 -9.1401e-05 0)
(22.4134 -9.13868e-05 0)
(22.1605 -9.13307e-05 0)
(21.9091 -9.12195e-05 0)
(21.6594 -9.104e-05 0)
(21.4114 -9.07876e-05 0)
(21.165 -9.04503e-05 0)
(20.9202 -9.00136e-05 0)
(20.6771 -8.94711e-05 0)
(20.4356 -8.8789e-05 0)
(20.1958 -8.79481e-05 0)
(19.9577 -8.69195e-05 0)
(19.7212 -8.56738e-05 0)
(19.4865 -8.41862e-05 0)
(19.2534 -8.24369e-05 0)
(19.0221 -8.04066e-05 0)
(18.7924 -7.8081e-05 0)
(18.5645 -7.54655e-05 0)
(18.3383 -7.25583e-05 0)
(18.1138 -6.93689e-05 0)
(17.8912 -6.59196e-05 0)
(17.6702 -6.22365e-05 0)
(17.4511 -5.83519e-05 0)
(17.2338 -5.42995e-05 0)
(17.0182 -5.01313e-05 0)
(16.8045 -4.58871e-05 0)
(16.5926 -4.16142e-05 0)
(16.3826 -3.73583e-05 0)
(16.1744 -3.31666e-05 0)
(15.9681 -2.90859e-05 0)
(15.7637 -2.51539e-05 0)
(15.5611 -2.14066e-05 0)
(15.3604 -1.78712e-05 0)
(15.1617 -1.4576e-05 0)
(14.9648 -1.15503e-05 0)
(14.7698 -8.8105e-06 0)
(14.5768 -6.3672e-06 0)
(14.3856 -4.22048e-06 0)
(14.1964 -2.3627e-06 0)
(14.0091 -7.83069e-07 0)
(13.8236 6.35501e-07 0)
(13.6401 1.81465e-06 0)
(13.4585 2.89578e-06 0)
(13.2788 3.80487e-06 0)
(13.1009 4.55426e-06 0)
(12.925 5.1689e-06 0)
(12.7509 5.66807e-06 0)
(12.5787 6.07478e-06 0)
(12.4083 6.39558e-06 0)
(12.2398 6.65083e-06 0)
(12.0732 6.85111e-06 0)
(11.9083 7.0113e-06 0)
(11.7454 7.13181e-06 0)
(11.5842 7.22576e-06 0)
(11.4249 7.29858e-06 0)
(11.2674 7.35691e-06 0)
(11.1117 7.39867e-06 0)
(10.9578 7.43184e-06 0)
(10.8057 7.45795e-06 0)
(10.6554 7.48097e-06 0)
(10.5069 7.49518e-06 0)
(10.3602 7.50799e-06 0)
(10.2153 7.51653e-06 0)
(10.0721 7.52872e-06 0)
(9.93083 7.53513e-06 0)
(9.79131 7.54189e-06 0)
(9.65359 7.54766e-06 0)
(9.51767 7.55196e-06 0)
(9.38354 7.55915e-06 0)
(9.25121 7.56234e-06 0)
(9.12067 7.56634e-06 0)
(8.99192 7.57093e-06 0)
(8.86497 7.57347e-06 0)
(8.7398 7.57966e-06 0)
(8.61641 7.58029e-06 0)
(8.49479 7.58211e-06 0)
(8.37494 7.58293e-06 0)
(8.25684 7.5858e-06 0)
(8.14049 7.58713e-06 0)
(8.02587 7.58859e-06 0)
(7.91298 7.58833e-06 0)
(7.8018 7.59081e-06 0)
(7.69233 7.59317e-06 0)
(7.58454 7.59316e-06 0)
(7.47844 7.59187e-06 0)
(7.374 7.59323e-06 0)
(7.27123 7.59358e-06 0)
(7.1701 7.59366e-06 0)
(7.07061 7.59102e-06 0)
(6.97274 7.59576e-06 0)
(6.87649 7.59316e-06 0)
(6.78184 7.59586e-06 0)
(6.68876 7.58943e-06 0)
(6.59725 7.59663e-06 0)
(6.50729 7.59098e-06 0)
(6.41884 7.59419e-06 0)
(6.33188 7.58613e-06 0)
(6.24639 7.59188e-06 0)
(6.16234 7.58285e-06 0)
(6.07971 7.58863e-06 0)
(5.99847 7.57008e-06 0)
(5.9186 7.5839e-06 0)
(5.84011 7.55742e-06 0)
(5.76297 7.58464e-06 0)
(5.6872 7.5387e-06 0)
(5.6128 7.58901e-06 0)
(5.53979 7.51062e-06 0)
(5.46818 7.61409e-06 0)
(5.398 7.45721e-06 0)
(5.32926 7.68569e-06 0)
(5.26197 7.32536e-06 0)
(5.19613 7.87575e-06 0)
(5.13175 7.02224e-06 0)
(5.06881 8.26716e-06 0)
(5.00729 6.44011e-06 0)
(4.94715 8.98599e-06 0)
(4.88838 5.47541e-06 0)
(4.83091 9.93091e-06 0)
(4.77477 4.39429e-06 0)
(4.71986 1.05154e-05 0)
(4.66622 3.85721e-06 0)
(4.61375 1.08539e-05 0)
(4.56252 3.21912e-06 0)
(4.51239 1.15746e-05 0)
(4.46345 1.89718e-06 0)
(4.41554 1.26066e-05 0)
(4.36873 1.17878e-06 0)
(4.32286 1.1761e-05 0)
(4.27795 -7.35516e-06 0)
(4.23351 -9.73784e-05 0)
(4.18709 -0.000735968 0)
(4.1459 0.00136302 0)
(3.97852 0.0053496 0)
(42.5777 -9.5991e-05 0)
(42.2738 -8.87982e-05 0)
(41.9156 -8.7509e-05 0)
(41.5776 -8.92409e-05 0)
(41.2582 -9.07916e-05 0)
(40.9422 -9.20443e-05 0)
(40.6238 -9.31401e-05 0)
(40.3041 -9.40841e-05 0)
(39.9844 -9.48809e-05 0)
(39.6652 -9.55471e-05 0)
(39.3464 -9.60972e-05 0)
(39.0279 -9.65429e-05 0)
(38.7096 -9.68975e-05 0)
(38.3916 -9.71745e-05 0)
(38.074 -9.73864e-05 0)
(37.7568 -9.75454e-05 0)
(37.4401 -9.76527e-05 0)
(37.1238 -9.77537e-05 0)
(36.8079 -9.77999e-05 0)
(36.4926 -9.78384e-05 0)
(36.1779 -9.78639e-05 0)
(35.8637 -9.788e-05 0)
(35.5501 -9.789e-05 0)
(35.2372 -9.78962e-05 0)
(34.925 -9.78979e-05 0)
(34.6134 -9.79009e-05 0)
(34.3026 -9.78995e-05 0)
(33.9926 -9.78991e-05 0)
(33.6833 -9.78988e-05 0)
(33.3749 -9.78952e-05 0)
(33.0674 -9.78952e-05 0)
(32.7607 -9.78917e-05 0)
(32.4549 -9.78899e-05 0)
(32.1501 -9.78881e-05 0)
(31.8463 -9.78848e-05 0)
(31.5435 -9.78838e-05 0)
(31.2417 -9.78827e-05 0)
(30.941 -9.78798e-05 0)
(30.6414 -9.78805e-05 0)
(30.3429 -9.7881e-05 0)
(30.0456 -9.78808e-05 0)
(29.7494 -9.78816e-05 0)
(29.4545 -9.78856e-05 0)
(29.1608 -9.78932e-05 0)
(28.8683 -9.78999e-05 0)
(28.5772 -9.79126e-05 0)
(28.2874 -9.79203e-05 0)
(27.9989 -9.79298e-05 0)
(27.7118 -9.79378e-05 0)
(27.4261 -9.79481e-05 0)
(27.1417 -9.79669e-05 0)
(26.8588 -9.79729e-05 0)
(26.5774 -9.80846e-05 0)
(26.2974 -9.80466e-05 0)
(26.0189 -9.81184e-05 0)
(25.742 -9.81741e-05 0)
(25.4665 -9.81583e-05 0)
(25.1925 -9.82602e-05 0)
(24.9201 -9.82692e-05 0)
(24.6493 -9.83027e-05 0)
(24.38 -9.83368e-05 0)
(24.1122 -9.83531e-05 0)
(23.8461 -9.84405e-05 0)
(23.5815 -9.84286e-05 0)
(23.3186 -9.84633e-05 0)
(23.0572 -9.85126e-05 0)
(22.7975 -9.85467e-05 0)
(22.5393 -9.85708e-05 0)
(22.2828 -9.8567e-05 0)
(22.028 -9.85229e-05 0)
(21.7747 -9.84252e-05 0)
(21.5231 -9.82596e-05 0)
(21.2731 -9.80191e-05 0)
(21.0248 -9.76907e-05 0)
(20.7781 -9.72613e-05 0)
(20.5331 -9.67155e-05 0)
(20.2898 -9.60285e-05 0)
(20.0481 -9.51753e-05 0)
(19.8082 -9.41262e-05 0)
(19.5699 -9.28518e-05 0)
(19.3333 -9.13265e-05 0)
(19.0985 -8.95266e-05 0)
(18.8654 -8.74326e-05 0)
(18.6341 -8.50301e-05 0)
(18.4046 -8.23188e-05 0)
(18.1768 -7.92973e-05 0)
(17.9509 -7.59764e-05 0)
(17.7267 -7.23745e-05 0)
(17.5045 -6.85186e-05 0)
(17.284 -6.4442e-05 0)
(17.0655 -6.01815e-05 0)
(16.8488 -5.57875e-05 0)
(16.6341 -5.13043e-05 0)
(16.4213 -4.67812e-05 0)
(16.2104 -4.22664e-05 0)
(16.0014 -3.7809e-05 0)
(15.7945 -3.34571e-05 0)
(15.5894 -2.92524e-05 0)
(15.3864 -2.5234e-05 0)
(15.1853 -2.14338e-05 0)
(14.9861 -1.78776e-05 0)
(14.789 -1.45842e-05 0)
(14.5938 -1.15591e-05 0)
(14.4005 -8.80108e-06 0)
(14.2092 -6.29937e-06 0)
(14.0199 -4.03172e-06 0)
(13.8325 -1.95852e-06 0)
(13.6471 -3.68583e-08 0)
(13.4636 1.17042e-06 0)
(13.282 2.23957e-06 0)
(13.1024 3.15086e-06 0)
(12.9246 3.91344e-06 0)
(12.7487 4.5456e-06 0)
(12.5747 5.06337e-06 0)
(12.4026 5.4861e-06 0)
(12.2324 5.82272e-06 0)
(12.064 6.09082e-06 0)
(11.8975 6.30171e-06 0)
(11.7329 6.46905e-06 0)
(11.57 6.59639e-06 0)
(11.409 6.69527e-06 0)
(11.2498 6.77142e-06 0)
(11.0924 6.83144e-06 0)
(10.9369 6.87538e-06 0)
(10.7831 6.90979e-06 0)
(10.6312 6.93677e-06 0)
(10.481 6.95942e-06 0)
(10.3327 6.97474e-06 0)
(10.1861 6.9876e-06 0)
(10.0414 6.99713e-06 0)
(9.89839 7.00839e-06 0)
(9.75723 7.01576e-06 0)
(9.61786 7.02295e-06 0)
(9.48029 7.02938e-06 0)
(9.34451 7.03451e-06 0)
(9.21053 7.04174e-06 0)
(9.07835 7.0461e-06 0)
(8.94796 7.05145e-06 0)
(8.81936 7.05679e-06 0)
(8.69255 7.06147e-06 0)
(8.56753 7.06774e-06 0)
(8.44429 7.07084e-06 0)
(8.32282 7.07445e-06 0)
(8.20311 7.07729e-06 0)
(8.08517 7.08171e-06 0)
(7.96896 7.08571e-06 0)
(7.8545 7.08887e-06 0)
(7.74175 7.09209e-06 0)
(7.63072 7.09633e-06 0)
(7.5214 7.1014e-06 0)
(7.41376 7.10401e-06 0)
(7.3078 7.1062e-06 0)
(7.20352 7.10954e-06 0)
(7.10089 7.1131e-06 0)
(6.99991 7.11522e-06 0)
(6.90057 7.11752e-06 0)
(6.80285 7.12214e-06 0)
(6.70675 7.12529e-06 0)
(6.61224 7.12776e-06 0)
(6.51932 7.12945e-06 0)
(6.42796 7.1334e-06 0)
(6.33814 7.13601e-06 0)
(6.24984 7.13841e-06 0)
(6.16303 7.14012e-06 0)
(6.07768 7.14247e-06 0)
(5.99378 7.14474e-06 0)
(5.9113 7.14523e-06 0)
(5.8302 7.14451e-06 0)
(5.75049 7.14612e-06 0)
(5.67214 7.14548e-06 0)
(5.59515 7.14903e-06 0)
(5.51953 7.14588e-06 0)
(5.44528 7.15016e-06 0)
(5.37241 7.14454e-06 0)
(5.30095 7.15386e-06 0)
(5.23092 7.14524e-06 0)
(5.16232 7.16112e-06 0)
(5.09518 7.14308e-06 0)
(5.0295 7.17536e-06 0)
(4.96527 7.1417e-06 0)
(4.90247 7.20518e-06 0)
(4.84109 7.16894e-06 0)
(4.7811 7.32926e-06 0)
(4.72248 7.19845e-06 0)
(4.66516 7.54031e-06 0)
(4.60916 7.16066e-06 0)
(4.5544 7.6831e-06 0)
(4.50091 7.13284e-06 0)
(4.44859 7.73305e-06 0)
(4.3975 7.16009e-06 0)
(4.34752 7.70095e-06 0)
(4.29872 7.239e-06 0)
(4.25096 7.67417e-06 0)
(4.2043 7.32922e-06 0)
(4.15858 7.78603e-06 0)
(4.11382 1.02081e-05 0)
(4.06959 2.70318e-05 0)
(4.02425 0.000275224 0)
(3.98918 0.00887949 0)
(4.24564 0.02021 0)
(3.4532 0.134031 -3.64133e-15)
(3.34811 0.370968 7.28385e-15)
(3.35757 0.625257 -1.36514e-14)
(3.4198 0.904199 2.81965e-14)
(3.43058 1.19019 -2.90995e-14)
(3.31101 1.41813 -1.81864e-15)
(3.03575 1.5479 8.43208e-21)
(2.70194 1.6137 -2.54922e-14)
(2.66377 1.88933 -1.18217e-13)
(3.06401 2.60531 1.15933e-13)
(3.64792 3.71476 -2.8841e-14)
(4.04245 4.91979 -5.92832e-14)
(3.91368 5.62087 3.0542e-14)
(3.32725 5.52018 0)
(2.53782 4.8865 2.88378e-14)
(1.7629 3.88973 2.89568e-14)
(1.18859 2.93153 -2.9091e-14)
(0.86129 2.77591 2.91678e-14)
(0.614431 3.30474 2.27382e-16)
(0.402678 3.90181 -2.26381e-16)
(3.82585 0.197812 0)
(3.7809 0.467134 0)
(3.80075 0.761703 -1.86276e-15)
(3.86276 1.09529 -3.72248e-15)
(3.86361 1.5284 9.304e-15)
(3.69743 1.96525 1.8605e-14)
(3.33578 2.28903 0)
(2.88209 2.38286 1.1174e-14)
(2.82425 2.26394 1.86198e-14)
(3.20639 2.46428 -4.45183e-14)
(3.70764 3.1582 2.95442e-14)
(3.98438 4.39444 1.47202e-14)
(3.59447 5.86122 -1.47248e-14)
(2.78033 6.43991 1.47062e-14)
(1.78818 6.35472 0)
(0.776253 5.66912 -1.84279e-15)
(0.0760146 4.40623 1.8526e-15)
(0.120648 3.40244 -6.52527e-15)
(0.284694 3.29751 -9.32605e-16)
(0.402613 3.36498 0)
(4.11668 0.0555995 -4.97728e-17)
(4.12206 0.0592631 -2.52828e-14)
(4.14899 0.0386363 2.56801e-14)
(4.2011 -0.00101342 -2.46855e-14)
(4.28962 -0.0537844 -2.70771e-14)
(4.42058 -0.0816466 1.00747e-13)
(4.57532 -0.0350709 -5.09673e-14)
(4.7157 0.111036 4.93712e-14)
(4.7601 0.365343 -1.00346e-13)
(4.72197 0.602503 1.59376e-15)
(4.77148 0.65625 4.9423e-14)
(5.07317 0.509175 0)
(5.53958 0.418131 -4.95065e-14)
(5.82626 0.664543 4.95118e-14)
(5.84149 1.15106 -3.9916e-16)
(5.68707 1.72718 0)
(5.4238 2.31556 3.98778e-16)
(4.8783 2.88008 0)
(3.98676 3.30826 0)
(3.12269 3.58227 0)
(3.96355 0.222647 8.33539e-16)
(3.91213 0.555688 -8.33583e-15)
(3.86125 0.934041 -1.66628e-15)
(3.81732 1.32021 3.33001e-15)
(3.77167 1.70924 -3.3269e-15)
(3.71505 2.09925 -3.39091e-20)
(3.6393 2.48746 -1.32784e-14)
(3.53783 2.87204 0)
(3.40648 3.2517 0)
(3.24199 3.62625 -6.61588e-15)
(3.03934 3.99264 6.60887e-15)
(2.78905 4.34308 0)
(2.48561 4.66598 -6.5985e-15)
(2.14297 4.95415 6.59376e-15)
(1.77896 5.21527 -6.58843e-15)
(1.39904 5.45801 1.31651e-14)
(1.00196 5.68139 -6.57649e-15)
(0.587178 5.87897 0)
(0.152097 6.05602 -3.28103e-15)
(-0.295247 6.23305 0)
(4.35346 0.206551 -1.30576e-15)
(4.44078 0.504022 1.00055e-14)
(4.46139 0.838175 6.95545e-15)
(4.46245 1.17974 1.38992e-14)
(4.45788 1.53502 0)
(4.4383 1.90798 0)
(4.39417 2.29693 1.38582e-14)
(4.32032 2.69959 3.4607e-15)
(4.21473 3.11478 -6.91324e-15)
(4.0777 3.53877 3.45232e-15)
(3.90784 3.96089 2.75848e-14)
(3.69842 4.36547 -1.7222e-14)
(3.4412 4.74252 1.72063e-14)
(3.13381 5.09465 -3.43832e-15)
(2.78267 5.42907 -1.37414e-14)
(2.39484 5.74971 -2.40251e-14)
(1.97194 6.05709 -1.20002e-14)
(1.51132 6.35274 -1.71227e-15)
(1.01819 6.63445 9.83229e-15)
(0.539878 6.84997 4.27271e-16)
(0.132915 8.41966 0)
(0.172582 11.4572 0)
(0.249974 11.0952 0)
(0.253624 9.54081 0)
(0.142587 10.4259 0)
(0.188567 13.4543 0)
(0.351444 14.6554 0)
(0.380873 13.4192 0)
(0.239685 13.6641 0)
(0.333862 16.2514 0)
(0.459905 16.5747 0)
(0.45638 14.2677 0)
(0.261211 13.8243 0)
(0.240986 17.8227 0)
(0.498108 19.9664 0)
(0.544948 18.12 0)
(0.45139 13.6565 0)
(0.240699 11.5852 0)
(0.0581052 17.0688 0)
(0.416541 22.5866 0)
(0.574305 22.2091 0)
(0.561522 18.1729 0)
(0.379641 11.8233 0)
(0.121282 9.98356 0)
(-0.00137606 17.3345 0)
(0.366365 24.6378 0)
(0.631344 25.0431 0)
(0.659792 20.5627 0)
(0.560952 14.5157 0)
(0.206879 14.5274 0)
(0.14893 21.9208 0)
(0.628441 26.748 0)
(0.85535 26.0973 0)
(0.936879 24.0414 0)
(0.980976 22.6221 0)
(1.00972 21.8049 0)
(1.02171 21.3104 0)
(1.01049 20.8722 0)
(0.967291 20.1094 0)
(0.884731 18.2696 0)
(0.752382 13.8417 0)
(0.560091 9.31983 0)
(0.108148 13.079 0)
(0.1343 22.1595 0)
(0.676909 26.8385 0)
(0.881258 25.6832 0)
(0.958257 23.4792 0)
(1.00168 22.0563 0)
(1.0298 21.2832 0)
(1.04419 20.8789 0)
(1.05005 20.6636 0)
(1.05178 20.5391 0)
(1.05178 20.458 0)
(1.05095 20.3977 0)
(1.04966 20.3477 0)
(1.04806 20.3031 0)
(1.04625 20.2612 0)
(1.0443 20.221 0)
(1.04221 20.182 0)
(1.04003 20.1441 0)
(1.03788 20.1078 0)
(1.03584 20.0732 0)
(1.03391 20.0401 0)
(1.0321 20.0081 0)
(1.03038 19.9768 0)
(1.02872 19.9459 0)
(1.02711 19.9154 0)
(1.02551 19.8851 0)
(1.02388 19.8549 0)
(1.02216 19.8248 0)
(1.02031 19.7947 0)
(1.01827 19.7646 0)
(1.01597 19.7346 0)
(1.01333 19.7046 0)
(1.01025 19.6749 0)
(1.00663 19.6453 0)
(1.00232 19.6162 0)
(0.997153 19.5874 0)
(0.990945 19.559 0)
(0.983473 19.5309 0)
(0.974489 19.5029 0)
(0.963712 19.4747 0)
(0.950831 19.4455 0)
(0.935486 19.4144 0)
(0.917252 19.3797 0)
(0.895597 19.3385 0)
(0.869793 19.2859 0)
(0.838847 19.2118 0)
(0.801641 19.0946 0)
(0.75774 18.8875 0)
(0.70902 18.4959 0)
(0.66133 17.7719 0)
(0.611327 16.535 0)
(0.533752 14.7582 0)
(0.428654 13.601 0)