/*--------------------------------*- C++ -*----------------------------------*\
| =========                 |                                                 |
| \\      /  F ield         | OpenFOAM: The Open Source CFD Toolbox           |
|  \\    /   O peration     | Version:  3.0.x                                 |
|   \\  /    A nd           | Web:      www.OpenFOAM.org                      |
|    \\/     M anipulation  |                                                 |
\*---------------------------------------------------------------------------*/
FoamFile
{
    version     2.0;
    format      ascii;
    class       volVectorField;
    location    "0.17";
    object      U;
}
// * * * * * * * * * * * * * * * * * * * * * * * * * * * * * * * * * * * * * //

dimensions      [0 1 -1 0 0 0 0];

internalField   nonuniform List<vector> 
27600
(
(42.6962 0.000129704 0)
(42.6897 0.000119199 0)
(42.6826 0.000117654 0)
(42.6758 0.000120431 0)
(42.6692 0.000122856 0)
(42.6625 0.000124743 0)
(42.6558 0.000126313 0)
(42.6492 0.000127668 0)
(42.6426 0.000128819 0)
(42.636 0.000129812 0)
(42.6294 0.000130675 0)
(42.623 0.000131391 0)
(42.6165 0.000132034 0)
(42.6101 0.000132587 0)
(42.6038 0.000133068 0)
(42.5975 0.000133488 0)
(42.5913 0.000133838 0)
(42.5852 0.000134202 0)
(42.5792 0.000134438 0)
(42.5733 0.000134696 0)
(42.5674 0.00013491 0)
(42.5617 0.000135098 0)
(42.5561 0.000135268 0)
(42.5506 0.000135404 0)
(42.5452 0.000135531 0)
(42.5399 0.000135646 0)
(42.5348 0.000135745 0)
(42.5298 0.000135832 0)
(42.525 0.000135908 0)
(42.5203 0.000135975 0)
(42.5157 0.000136024 0)
(42.5113 0.000136089 0)
(42.5071 0.000136123 0)
(42.503 0.000136135 0)
(42.4992 0.000136142 0)
(42.4955 0.000136119 0)
(42.4919 0.000136059 0)
(42.4886 0.000135945 0)
(42.4854 0.000135759 0)
(42.4825 0.000135461 0)
(42.4797 0.000135079 0)
(42.4771 0.000134468 0)
(42.4748 0.000133687 0)
(42.4726 0.000132635 0)
(42.4707 0.000131269 0)
(42.4689 0.000129531 0)
(42.4674 0.000127411 0)
(42.4662 0.000124782 0)
(42.4651 0.000121646 0)
(42.4643 0.000117998 0)
(42.4638 0.000113821 0)
(42.4635 0.000109074 0)
(42.4635 0.000103837 0)
(42.4637 9.81216e-05 0)
(42.4642 9.20091e-05 0)
(42.465 8.55754e-05 0)
(42.466 7.89181e-05 0)
(42.4673 7.21295e-05 0)
(42.4689 6.5324e-05 0)
(42.4707 5.86058e-05 0)
(42.4728 5.20729e-05 0)
(42.4751 4.58155e-05 0)
(42.4777 3.99095e-05 0)
(42.4804 3.44145e-05 0)
(42.4834 2.93761e-05 0)
(42.4866 2.48196e-05 0)
(42.49 2.07545e-05 0)
(42.4935 1.71773e-05 0)
(42.4973 1.40719e-05 0)
(42.5011 1.14101e-05 0)
(42.5051 9.15783e-06 0)
(42.5092 7.27719e-06 0)
(42.5134 5.72582e-06 0)
(42.5178 4.46142e-06 0)
(42.5222 3.44374e-06 0)
(42.5267 2.63459e-06 0)
(42.5312 1.99824e-06 0)
(42.5359 1.5042e-06 0)
(42.5405 1.12452e-06 0)
(42.5452 8.36365e-07 0)
(42.55 6.19938e-07 0)
(42.5548 4.59218e-07 0)
(42.5596 3.41229e-07 0)
(42.5644 2.556e-07 0)
(42.5692 1.941e-07 0)
(42.574 1.49748e-07 0)
(42.5788 1.18041e-07 0)
(42.5836 9.64216e-08 0)
(42.5883 8.20331e-08 0)
(42.593 7.26291e-08 0)
(42.5977 6.63251e-08 0)
(42.6024 6.18466e-08 0)
(42.607 5.93937e-08 0)
(42.6116 5.75242e-08 0)
(42.6161 5.66972e-08 0)
(42.6205 5.60343e-08 0)
(42.6249 5.61225e-08 0)
(42.6292 5.6114e-08 0)
(42.6334 5.62994e-08 0)
(42.6375 5.65592e-08 0)
(42.6416 5.68325e-08 0)
(42.6456 5.69922e-08 0)
(42.6494 5.71587e-08 0)
(42.6532 5.72511e-08 0)
(42.6569 5.72637e-08 0)
(42.6604 5.72083e-08 0)
(42.6639 5.709e-08 0)
(42.6673 5.68916e-08 0)
(42.6705 5.65991e-08 0)
(42.6736 5.62251e-08 0)
(42.6766 5.58351e-08 0)
(42.6795 5.52202e-08 0)
(42.6822 5.46044e-08 0)
(42.6849 5.39368e-08 0)
(42.6874 5.31801e-08 0)
(42.6897 5.23538e-08 0)
(42.692 5.15774e-08 0)
(42.6941 5.03379e-08 0)
(42.6961 4.93511e-08 0)
(42.6979 4.83408e-08 0)
(42.6996 4.72378e-08 0)
(42.7012 4.57496e-08 0)
(42.7026 4.47107e-08 0)
(42.7039 4.34878e-08 0)
(42.7051 4.18116e-08 0)
(42.7061 4.08763e-08 0)
(42.707 3.90142e-08 0)
(42.7077 3.77528e-08 0)
(42.7083 3.63237e-08 0)
(42.7088 3.48422e-08 0)
(42.7092 3.33486e-08 0)
(42.7094 3.18493e-08 0)
(42.7095 3.0366e-08 0)
(42.7095 2.88474e-08 0)
(42.7093 2.73906e-08 0)
(42.709 2.59296e-08 0)
(42.7086 2.44908e-08 0)
(42.7081 2.30654e-08 0)
(42.7074 2.16839e-08 0)
(42.7067 2.03313e-08 0)
(42.7058 1.90045e-08 0)
(42.7048 1.77132e-08 0)
(42.7038 1.64611e-08 0)
(42.7026 1.5242e-08 0)
(42.7013 1.40532e-08 0)
(42.6999 1.29141e-08 0)
(42.6985 1.18688e-08 0)
(42.6969 1.09509e-08 0)
(42.6953 1.01634e-08 0)
(42.6936 9.51397e-09 0)
(42.6918 9.00284e-09 0)
(42.6899 8.63063e-09 0)
(42.688 8.39521e-09 0)
(42.686 8.28806e-09 0)
(42.6839 8.29057e-09 0)
(42.6818 8.39054e-09 0)
(42.6796 8.56098e-09 0)
(42.6774 8.78814e-09 0)
(42.6751 9.05505e-09 0)
(42.6728 9.35725e-09 0)
(42.6705 9.70271e-09 0)
(42.6682 1.00973e-08 0)
(42.6658 1.05494e-08 0)
(42.6633 1.10609e-08 0)
(42.6609 1.1638e-08 0)
(42.6585 1.22823e-08 0)
(42.656 1.3e-08 0)
(42.6535 1.37851e-08 0)
(42.6511 1.46396e-08 0)
(42.6486 1.55589e-08 0)
(42.6461 1.65415e-08 0)
(42.6437 1.75873e-08 0)
(42.6412 1.86924e-08 0)
(42.6388 1.98506e-08 0)
(42.6363 2.10538e-08 0)
(42.6339 2.23084e-08 0)
(42.6315 2.36074e-08 0)
(42.6292 2.49477e-08 0)
(42.6268 2.63164e-08 0)
(42.6245 2.77186e-08 0)
(42.6222 2.91512e-08 0)
(42.62 3.0616e-08 0)
(42.6178 3.20996e-08 0)
(42.6156 3.359e-08 0)
(42.6135 3.50853e-08 0)
(42.6114 3.6592e-08 0)
(42.6093 3.80928e-08 0)
(42.6073 3.95874e-08 0)
(42.6053 4.1079e-08 0)
(42.6034 4.25601e-08 0)
(42.6015 4.4049e-08 0)
(42.5996 4.5538e-08 0)
(42.5978 4.70245e-08 0)
(42.5961 4.8509e-08 0)
(42.5944 4.99851e-08 0)
(42.5927 5.14493e-08 0)
(42.5911 5.28861e-08 0)
(42.5895 5.42993e-08 0)
(42.588 5.56835e-08 0)
(42.5865 5.70436e-08 0)
(42.5851 5.83759e-08 0)
(42.5837 5.96782e-08 0)
(42.5824 6.09537e-08 0)
(42.5811 6.22065e-08 0)
(42.5799 6.34303e-08 0)
(42.5787 6.46255e-08 0)
(42.5776 6.57973e-08 0)
(42.5764 6.69409e-08 0)
(42.5754 6.8049e-08 0)
(42.5744 6.91294e-08 0)
(42.5734 7.01861e-08 0)
(42.5724 7.12027e-08 0)
(42.5715 7.2193e-08 0)
(42.5707 7.31552e-08 0)
(42.5699 7.40866e-08 0)
(42.5691 7.4987e-08 0)
(42.5683 7.58633e-08 0)
(42.5676 7.67118e-08 0)
(42.5669 7.75174e-08 0)
(42.5663 7.83136e-08 0)
(42.5657 7.908e-08 0)
(42.5651 7.98207e-08 0)
(42.5645 8.05333e-08 0)
(42.564 8.12273e-08 0)
(42.5635 8.18984e-08 0)
(42.563 8.2544e-08 0)
(42.5626 8.31686e-08 0)
(42.5622 8.37755e-08 0)
(42.5618 8.43619e-08 0)
(42.5614 8.49292e-08 0)
(42.5611 8.54824e-08 0)
(42.5607 8.60196e-08 0)
(42.5604 8.65413e-08 0)
(42.5601 8.70541e-08 0)
(42.5599 8.75573e-08 0)
(42.5596 8.80447e-08 0)
(42.5594 8.85274e-08 0)
(42.5592 8.90092e-08 0)
(42.5589 8.94814e-08 0)
(42.5588 8.99442e-08 0)
(42.5586 9.04081e-08 0)
(42.5584 9.08682e-08 0)
(42.5583 9.13132e-08 0)
(42.5581 9.17547e-08 0)
(42.558 9.21899e-08 0)
(42.5578 9.26075e-08 0)
(42.5577 9.30271e-08 0)
(42.5576 9.34367e-08 0)
(42.5575 9.38338e-08 0)
(42.5574 9.42239e-08 0)
(42.5573 9.46022e-08 0)
(42.5572 9.49665e-08 0)
(42.5571 9.53243e-08 0)
(42.557 9.56692e-08 0)
(42.557 9.59979e-08 0)
(42.5569 9.62996e-08 0)
(42.5568 9.64337e-08 0)
(42.5567 9.72337e-08 0)
(42.5566 9.73058e-08 0)
(42.5565 9.75741e-08 0)
(42.5564 9.78303e-08 0)
(42.5563 9.80913e-08 0)
(42.5562 9.83429e-08 0)
(42.5561 9.85967e-08 0)
(42.556 9.88776e-08 0)
(42.5558 9.91618e-08 0)
(42.5557 9.94348e-08 0)
(42.5555 9.96893e-08 0)
(42.5554 9.99232e-08 0)
(42.5552 1.00153e-07 0)
(42.555 1.00388e-07 0)
(42.5548 1.0065e-07 0)
(42.5545 1.0094e-07 0)
(42.5543 1.01271e-07 0)
(42.554 1.01628e-07 0)
(42.5537 1.02004e-07 0)
(42.5534 1.0239e-07 0)
(42.5531 1.02782e-07 0)
(42.5527 1.03186e-07 0)
(42.5523 1.03596e-07 0)
(42.5519 1.04024e-07 0)
(42.5514 1.0447e-07 0)
(42.5509 1.04938e-07 0)
(42.5504 1.05429e-07 0)
(42.5499 1.05941e-07 0)
(42.5493 1.06471e-07 0)
(42.5486 1.0702e-07 0)
(42.548 1.07588e-07 0)
(42.5473 1.0818e-07 0)
(42.5465 1.08792e-07 0)
(42.5457 1.09416e-07 0)
(42.5449 1.10049e-07 0)
(42.544 1.10699e-07 0)
(42.543 1.11368e-07 0)
(42.542 1.12053e-07 0)
(42.541 1.12753e-07 0)
(42.5399 1.13475e-07 0)
(42.5387 1.14207e-07 0)
(42.5375 1.14947e-07 0)
(42.5362 1.15704e-07 0)
(42.5349 1.16469e-07 0)
(42.5335 1.17253e-07 0)
(42.5321 1.18033e-07 0)
(42.5306 1.18824e-07 0)
(42.529 1.19616e-07 0)
(42.5273 1.20414e-07 0)
(42.5256 1.21207e-07 0)
(42.5239 1.21999e-07 0)
(42.522 1.22791e-07 0)
(42.5201 1.23568e-07 0)
(42.5182 1.24344e-07 0)
(42.5161 1.25104e-07 0)
(42.514 1.2585e-07 0)
(42.5119 1.2658e-07 0)
(42.5097 1.27287e-07 0)
(42.5074 1.27964e-07 0)
(42.5051 1.2862e-07 0)
(42.5027 1.29244e-07 0)
(42.5002 1.29832e-07 0)
(42.4977 1.30386e-07 0)
(42.4951 1.30903e-07 0)
(42.4925 1.31378e-07 0)
(42.4899 1.31808e-07 0)
(42.4872 1.32185e-07 0)
(42.4844 1.32517e-07 0)
(42.4817 1.32794e-07 0)
(42.4789 1.33007e-07 0)
(42.476 1.33163e-07 0)
(42.4732 1.3325e-07 0)
(42.4703 1.33268e-07 0)
(42.4674 1.33212e-07 0)
(42.4645 1.33078e-07 0)
(42.4616 1.32867e-07 0)
(42.4586 1.32578e-07 0)
(42.4557 1.32202e-07 0)
(42.4528 1.31741e-07 0)
(42.4499 1.31192e-07 0)
(42.4471 1.30559e-07 0)
(42.4442 1.29829e-07 0)
(42.4414 1.29014e-07 0)
(42.4386 1.28112e-07 0)
(42.4359 1.27116e-07 0)
(42.4332 1.26036e-07 0)
(42.4306 1.24873e-07 0)
(42.428 1.23621e-07 0)
(42.4255 1.22287e-07 0)
(42.4231 1.20875e-07 0)
(42.4208 1.19385e-07 0)
(42.4185 1.17824e-07 0)
(42.4164 1.1619e-07 0)
(42.4143 1.14479e-07 0)
(42.4124 1.12689e-07 0)
(42.4105 1.10828e-07 0)
(42.4088 1.08892e-07 0)
(42.4071 1.06876e-07 0)
(42.4056 1.04791e-07 0)
(42.4043 1.02627e-07 0)
(42.403 1.0039e-07 0)
(42.4019 9.80871e-08 0)
(42.4009 9.57034e-08 0)
(42.4001 9.32524e-08 0)
(42.3994 9.07338e-08 0)
(42.3988 8.81522e-08 0)
(42.3984 8.55075e-08 0)
(42.3981 8.2811e-08 0)
(42.398 8.00743e-08 0)
(42.398 7.72783e-08 0)
(42.3982 7.51374e-08 0)
(42.3985 7.21015e-08 0)
(42.3989 6.78642e-08 0)
(42.3995 6.56462e-08 0)
(42.4002 6.39275e-08 0)
(42.4011 6.00686e-08 0)
(42.4021 5.77701e-08 0)
(42.4033 5.43916e-08 0)
(42.4046 5.26089e-08 0)
(42.406 4.89964e-08 0)
(42.4075 4.77404e-08 0)
(42.4092 4.55985e-08 0)
(42.411 4.66618e-08 0)
(42.4129 4.94612e-08 0)
(42.4149 6.16843e-08 0)
(42.417 9.10262e-08 0)
(42.4192 1.60351e-07 0)
(42.4215 3.24523e-07 0)
(42.4238 7.14101e-07 0)
(42.4263 1.64537e-06 0)
(42.4288 3.87018e-06 0)
(42.4312 9.19481e-06 0)
(42.4335 2.19197e-05 0)
(42.4353 5.23424e-05 0)
(42.4358 0.000125001 0)
(42.4334 0.00029851 0)
(42.4235 0.000712198 0)
(42.3963 0.00169682 0)
(42.328 0.00401978 0)
(42.1622 0.00951472 0)
(41.7649 0.0227305 0)
(40.8736 0.0571766 0)
(37.2596 0.158355 0)
(42.6981 0.000208886 0)
(42.6936 0.000168722 0)
(42.6884 0.000152627 0)
(42.6836 0.000150601 0)
(42.6789 0.00014917 0)
(42.6742 0.000147469 0)
(42.6695 0.00014602 0)
(42.6648 0.000144879 0)
(42.6601 0.000143913 0)
(42.6555 0.0001431 0)
(42.6509 0.000142414 0)
(42.6464 0.000141773 0)
(42.6419 0.000141257 0)
(42.6374 0.000140798 0)
(42.633 0.000140394 0)
(42.6287 0.00014004 0)
(42.6245 0.0001397 0)
(42.6203 0.000139494 0)
(42.6163 0.000139176 0)
(42.6123 0.000138978 0)
(42.6084 0.000138782 0)
(42.6046 0.000138607 0)
(42.6009 0.000138459 0)
(42.5974 0.000138306 0)
(42.5939 0.000138182 0)
(42.5906 0.000138075 0)
(42.5875 0.000137976 0)
(42.5844 0.000137888 0)
(42.5815 0.000137809 0)
(42.5788 0.000137738 0)
(42.5762 0.000137661 0)
(42.5737 0.000137632 0)
(42.5715 0.000137568 0)
(42.5694 0.000137486 0)
(42.5674 0.000137425 0)
(42.5657 0.000137338 0)
(42.5641 0.000137221 0)
(42.5627 0.000137055 0)
(42.5615 0.000136826 0)
(42.5604 0.000136479 0)
(42.5596 0.000136077 0)
(42.559 0.000135413 0)
(42.5585 0.000134602 0)
(42.5583 0.000133516 0)
(42.5582 0.000132112 0)
(42.5583 0.000130332 0)
(42.5587 0.000128188 0)
(42.5592 0.000125506 0)
(42.5599 0.000122309 0)
(42.5608 0.000118611 0)
(42.562 0.000114388 0)
(42.5633 0.000109573 0)
(42.5647 0.000104278 0)
(42.5664 9.84944e-05 0)
(42.5683 9.2319e-05 0)
(42.5703 8.58258e-05 0)
(42.5725 7.91055e-05 0)
(42.5749 7.22629e-05 0)
(42.5774 6.54079e-05 0)
(42.5802 5.86456e-05 0)
(42.583 5.20754e-05 0)
(42.586 4.57874e-05 0)
(42.5892 3.98576e-05 0)
(42.5925 3.43448e-05 0)
(42.596 2.92948e-05 0)
(42.5995 2.47317e-05 0)
(42.6032 2.06641e-05 0)
(42.607 1.70878e-05 0)
(42.611 1.39861e-05 0)
(42.615 1.13298e-05 0)
(42.6191 9.08394e-06 0)
(42.6234 7.21075e-06 0)
(42.6277 5.66688e-06 0)
(42.6321 4.40965e-06 0)
(42.6366 3.39896e-06 0)
(42.6411 2.59642e-06 0)
(42.6457 1.96581e-06 0)
(42.6503 1.47724e-06 0)
(42.655 1.10224e-06 0)
(42.6597 8.18386e-07 0)
(42.6645 6.05744e-07 0)
(42.6693 4.48409e-07 0)
(42.6741 3.33486e-07 0)
(42.6789 2.50636e-07 0)
(42.6837 1.9159e-07 0)
(42.6885 1.49041e-07 0)
(42.6933 1.19209e-07 0)
(42.6981 9.9992e-08 0)
(42.7028 8.79611e-08 0)
(42.7076 8.08019e-08 0)
(42.7122 7.69457e-08 0)
(42.7169 7.50385e-08 0)
(42.7215 7.55197e-08 0)
(42.7261 7.57904e-08 0)
(42.7306 7.68958e-08 0)
(42.735 7.76707e-08 0)
(42.7394 7.93631e-08 0)
(42.7437 8.07074e-08 0)
(42.7479 8.22089e-08 0)
(42.752 8.3785e-08 0)
(42.7561 8.53176e-08 0)
(42.7601 8.65705e-08 0)
(42.7639 8.77756e-08 0)
(42.7677 8.88858e-08 0)
(42.7714 8.98459e-08 0)
(42.7749 9.06323e-08 0)
(42.7784 9.12713e-08 0)
(42.7818 9.17571e-08 0)
(42.785 9.20927e-08 0)
(42.7881 9.22539e-08 0)
(42.7911 9.23691e-08 0)
(42.794 9.20652e-08 0)
(42.7967 9.17272e-08 0)
(42.7994 9.13029e-08 0)
(42.8019 9.07076e-08 0)
(42.8042 8.99464e-08 0)
(42.8065 8.92666e-08 0)
(42.8086 8.77682e-08 0)
(42.8105 8.6721e-08 0)
(42.8124 8.55942e-08 0)
(42.8141 8.42684e-08 0)
(42.8157 8.21807e-08 0)
(42.8171 8.08965e-08 0)
(42.8184 7.92496e-08 0)
(42.8195 7.67396e-08 0)
(42.8206 7.55641e-08 0)
(42.8215 7.2713e-08 0)
(42.8222 7.09012e-08 0)
(42.8228 6.87884e-08 0)
(42.8233 6.65646e-08 0)
(42.8237 6.42891e-08 0)
(42.8239 6.19919e-08 0)
(42.824 5.96741e-08 0)
(42.8239 5.72655e-08 0)
(42.8238 5.49282e-08 0)
(42.8235 5.25555e-08 0)
(42.8231 5.01829e-08 0)
(42.8226 4.78283e-08 0)
(42.8219 4.55031e-08 0)
(42.8212 4.32156e-08 0)
(42.8203 4.09702e-08 0)
(42.8193 3.87785e-08 0)
(42.8182 3.66412e-08 0)
(42.8171 3.45862e-08 0)
(42.8158 3.26217e-08 0)
(42.8144 3.07265e-08 0)
(42.8129 2.88676e-08 0)
(42.8114 2.70219e-08 0)
(42.8097 2.51958e-08 0)
(42.808 2.34133e-08 0)
(42.8062 2.17086e-08 0)
(42.8044 2.00991e-08 0)
(42.8024 1.85815e-08 0)
(42.8004 1.71757e-08 0)
(42.7984 1.58845e-08 0)
(42.7962 1.4704e-08 0)
(42.7941 1.36261e-08 0)
(42.7919 1.26492e-08 0)
(42.7896 1.17792e-08 0)
(42.7873 1.10314e-08 0)
(42.785 1.04097e-08 0)
(42.7826 9.90921e-09 0)
(42.7802 9.5276e-09 0)
(42.7778 9.27568e-09 0)
(42.7754 9.14035e-09 0)
(42.7729 9.12738e-09 0)
(42.7705 9.22998e-09 0)
(42.768 9.45434e-09 0)
(42.7655 9.79016e-09 0)
(42.763 1.02383e-08 0)
(42.7606 1.07932e-08 0)
(42.7581 1.14551e-08 0)
(42.7556 1.22198e-08 0)
(42.7532 1.30763e-08 0)
(42.7508 1.40276e-08 0)
(42.7484 1.50684e-08 0)
(42.746 1.61933e-08 0)
(42.7436 1.73948e-08 0)
(42.7413 1.86668e-08 0)
(42.739 2.00143e-08 0)
(42.7367 2.14278e-08 0)
(42.7344 2.2904e-08 0)
(42.7322 2.44312e-08 0)
(42.73 2.6009e-08 0)
(42.7279 2.76185e-08 0)
(42.7258 2.92568e-08 0)
(42.7237 3.09286e-08 0)
(42.7217 3.26184e-08 0)
(42.7197 3.43266e-08 0)
(42.7178 3.60552e-08 0)
(42.7159 3.78019e-08 0)
(42.7141 3.95622e-08 0)
(42.7123 4.13377e-08 0)
(42.7105 4.31119e-08 0)
(42.7088 4.49011e-08 0)
(42.7071 4.66833e-08 0)
(42.7055 4.84503e-08 0)
(42.704 5.02052e-08 0)
(42.7024 5.19469e-08 0)
(42.701 5.36577e-08 0)
(42.6995 5.53454e-08 0)
(42.6982 5.70116e-08 0)
(42.6968 5.86527e-08 0)
(42.6956 6.02644e-08 0)
(42.6943 6.18513e-08 0)
(42.6931 6.34101e-08 0)
(42.692 6.49398e-08 0)
(42.6909 6.64354e-08 0)
(42.6898 6.79014e-08 0)
(42.6888 6.93387e-08 0)
(42.6878 7.07384e-08 0)
(42.6869 7.21075e-08 0)
(42.686 7.34397e-08 0)
(42.6851 7.47352e-08 0)
(42.6843 7.59927e-08 0)
(42.6835 7.72096e-08 0)
(42.6827 7.83977e-08 0)
(42.682 7.95489e-08 0)
(42.6813 8.06562e-08 0)
(42.6807 8.17327e-08 0)
(42.6801 8.27719e-08 0)
(42.6795 8.37769e-08 0)
(42.6789 8.47382e-08 0)
(42.6784 8.56729e-08 0)
(42.6779 8.65635e-08 0)
(42.6774 8.74213e-08 0)
(42.677 8.82486e-08 0)
(42.6766 8.90395e-08 0)
(42.6762 8.97948e-08 0)
(42.6758 9.05257e-08 0)
(42.6755 9.12165e-08 0)
(42.6751 9.18785e-08 0)
(42.6748 9.25012e-08 0)
(42.6745 9.31033e-08 0)
(42.6743 9.36627e-08 0)
(42.674 9.41892e-08 0)
(42.6738 9.46879e-08 0)
(42.6736 9.51606e-08 0)
(42.6733 9.55971e-08 0)
(42.6732 9.60102e-08 0)
(42.673 9.63981e-08 0)
(42.6728 9.67593e-08 0)
(42.6727 9.70972e-08 0)
(42.6725 9.74167e-08 0)
(42.6724 9.77228e-08 0)
(42.6722 9.80139e-08 0)
(42.6721 9.82903e-08 0)
(42.672 9.85571e-08 0)
(42.6719 9.88211e-08 0)
(42.6718 9.90725e-08 0)
(42.6717 9.93259e-08 0)
(42.6716 9.95737e-08 0)
(42.6715 9.98254e-08 0)
(42.6714 1.0008e-07 0)
(42.6714 1.00325e-07 0)
(42.6713 1.00535e-07 0)
(42.6712 1.00494e-07 0)
(42.6711 1.01672e-07 0)
(42.671 1.01532e-07 0)
(42.6709 1.01802e-07 0)
(42.6708 1.02081e-07 0)
(42.6707 1.02409e-07 0)
(42.6706 1.02758e-07 0)
(42.6705 1.0314e-07 0)
(42.6704 1.03585e-07 0)
(42.6702 1.04038e-07 0)
(42.6701 1.04503e-07 0)
(42.6699 1.04966e-07 0)
(42.6697 1.05426e-07 0)
(42.6696 1.059e-07 0)
(42.6694 1.06394e-07 0)
(42.6691 1.06921e-07 0)
(42.6689 1.07496e-07 0)
(42.6687 1.08107e-07 0)
(42.6684 1.08747e-07 0)
(42.6681 1.09404e-07 0)
(42.6678 1.10076e-07 0)
(42.6674 1.10752e-07 0)
(42.6671 1.11438e-07 0)
(42.6667 1.12146e-07 0)
(42.6663 1.12873e-07 0)
(42.6658 1.13627e-07 0)
(42.6653 1.14412e-07 0)
(42.6648 1.15231e-07 0)
(42.6643 1.16087e-07 0)
(42.6637 1.16983e-07 0)
(42.663 1.17909e-07 0)
(42.6624 1.18879e-07 0)
(42.6617 1.19886e-07 0)
(42.6609 1.20921e-07 0)
(42.6601 1.21992e-07 0)
(42.6593 1.2308e-07 0)
(42.6584 1.2421e-07 0)
(42.6574 1.2537e-07 0)
(42.6564 1.26567e-07 0)
(42.6554 1.27793e-07 0)
(42.6543 1.2905e-07 0)
(42.6531 1.30335e-07 0)
(42.6519 1.31649e-07 0)
(42.6506 1.32982e-07 0)
(42.6493 1.34339e-07 0)
(42.6479 1.35707e-07 0)
(42.6465 1.37096e-07 0)
(42.6449 1.38496e-07 0)
(42.6434 1.3991e-07 0)
(42.6417 1.41321e-07 0)
(42.64 1.42742e-07 0)
(42.6383 1.44159e-07 0)
(42.6364 1.4557e-07 0)
(42.6345 1.46969e-07 0)
(42.6326 1.48347e-07 0)
(42.6305 1.49707e-07 0)
(42.6284 1.51038e-07 0)
(42.6263 1.52341e-07 0)
(42.6241 1.53598e-07 0)
(42.6218 1.54825e-07 0)
(42.6194 1.55997e-07 0)
(42.617 1.57111e-07 0)
(42.6146 1.5817e-07 0)
(42.6121 1.5915e-07 0)
(42.6095 1.60056e-07 0)
(42.6069 1.60878e-07 0)
(42.6043 1.61618e-07 0)
(42.6016 1.62261e-07 0)
(42.5988 1.62797e-07 0)
(42.5961 1.63228e-07 0)
(42.5933 1.63543e-07 0)
(42.5904 1.63745e-07 0)
(42.5876 1.63823e-07 0)
(42.5847 1.63775e-07 0)
(42.5818 1.63603e-07 0)
(42.5789 1.63287e-07 0)
(42.5759 1.62835e-07 0)
(42.573 1.6225e-07 0)
(42.5701 1.6151e-07 0)
(42.5672 1.60625e-07 0)
(42.5643 1.59586e-07 0)
(42.5614 1.584e-07 0)
(42.5586 1.5706e-07 0)
(42.5558 1.5556e-07 0)
(42.553 1.53909e-07 0)
(42.5503 1.52102e-07 0)
(42.5476 1.50142e-07 0)
(42.545 1.48029e-07 0)
(42.5424 1.45766e-07 0)
(42.5399 1.43365e-07 0)
(42.5375 1.40817e-07 0)
(42.5352 1.3813e-07 0)
(42.5329 1.35311e-07 0)
(42.5308 1.32358e-07 0)
(42.5287 1.29273e-07 0)
(42.5268 1.26061e-07 0)
(42.5249 1.22711e-07 0)
(42.5232 1.19241e-07 0)
(42.5215 1.15648e-07 0)
(42.52 1.11942e-07 0)
(42.5187 1.08126e-07 0)
(42.5174 1.04192e-07 0)
(42.5163 1.00157e-07 0)
(42.5153 9.60271e-08 0)
(42.5145 9.18096e-08 0)
(42.5137 8.75126e-08 0)
(42.5132 8.31452e-08 0)
(42.5128 7.87064e-08 0)
(42.5125 7.42113e-08 0)
(42.5124 6.96861e-08 0)
(42.5124 6.51427e-08 0)
(42.5125 6.21392e-08 0)
(42.5128 5.76439e-08 0)
(42.5133 4.82643e-08 0)
(42.5139 4.55355e-08 0)
(42.5146 4.56767e-08 0)
(42.5155 3.79647e-08 0)
(42.5165 3.49419e-08 0)
(42.5177 2.91257e-08 0)
(42.5189 2.79278e-08 0)
(42.5204 2.18818e-08 0)
(42.5219 2.17283e-08 0)
(42.5236 1.97621e-08 0)
(42.5253 2.6648e-08 0)
(42.5272 3.85921e-08 0)
(42.5292 7.86389e-08 0)
(42.5313 1.74879e-07 0)
(42.5335 4.06893e-07 0)
(42.5358 9.61968e-07 0)
(42.5382 2.2864e-06 0)
(42.5406 5.45768e-06 0)
(42.5431 1.30344e-05 0)
(42.5456 3.11654e-05 0)
(42.5478 7.44926e-05 0)
(42.5497 0.000178075 0)
(42.5502 0.000425448 0)
(42.5478 0.00101615 0)
(42.538 0.00242436 0)
(42.5109 0.00577511 0)
(42.443 0.0136756 0)
(42.2781 0.0323301 0)
(41.8832 0.0769792 0)
(40.9985 0.191463 0)
(37.6052 0.500685 0)
(42.6981 0.00014985 0)
(42.6936 0.000119737 0)
(42.6884 0.000105943 0)
(42.6836 0.000108351 0)
(42.6789 0.000110389 0)
(42.6742 0.000110979 0)
(42.6695 0.000111353 0)
(42.6648 0.000111769 0)
(42.6601 0.000112137 0)
(42.6555 0.00011246 0)
(42.6509 0.000112747 0)
(42.6463 0.000112969 0)
(42.6419 0.000113194 0)
(42.6374 0.000113387 0)
(42.633 0.000113556 0)
(42.6287 0.000113706 0)
(42.6245 0.000113824 0)
(42.6203 0.000113982 0)
(42.6163 0.000114047 0)
(42.6123 0.00011415 0)
(42.6084 0.000114232 0)
(42.6046 0.000114305 0)
(42.6009 0.000114375 0)
(42.5974 0.000114423 0)
(42.594 0.000114477 0)
(42.5906 0.000114525 0)
(42.5875 0.000114567 0)
(42.5844 0.000114605 0)
(42.5815 0.000114639 0)
(42.5788 0.000114669 0)
(42.5762 0.000114688 0)
(42.5738 0.000114733 0)
(42.5715 0.000114744 0)
(42.5694 0.000114733 0)
(42.5675 0.000114734 0)
(42.5657 0.000114709 0)
(42.5641 0.000114654 0)
(42.5627 0.00011455 0)
(42.5615 0.000114398 0)
(42.5605 0.000114146 0)
(42.5597 0.000113825 0)
(42.559 0.000113317 0)
(42.5586 0.00011266 0)
(42.5583 0.000111779 0)
(42.5583 0.000110633 0)
(42.5584 0.000109176 0)
(42.5587 0.000107399 0)
(42.5593 0.000105192 0)
(42.56 0.000102548 0)
(42.5609 9.94855e-05 0)
(42.562 9.59712e-05 0)
(42.5633 9.19771e-05 0)
(42.5648 8.75688e-05 0)
(42.5665 8.27531e-05 0)
(42.5684 7.76069e-05 0)
(42.5704 7.21912e-05 0)
(42.5726 6.65746e-05 0)
(42.575 6.08584e-05 0)
(42.5775 5.51236e-05 0)
(42.5802 4.94601e-05 0)
(42.5831 4.39525e-05 0)
(42.5861 3.86766e-05 0)
(42.5893 3.3696e-05 0)
(42.5926 2.90612e-05 0)
(42.596 2.48106e-05 0)
(42.5996 2.09653e-05 0)
(42.6033 1.75341e-05 0)
(42.6071 1.4514e-05 0)
(42.611 1.18912e-05 0)
(42.6151 9.64238e-06 0)
(42.6192 7.73884e-06 0)
(42.6234 6.14889e-06 0)
(42.6277 4.83674e-06 0)
(42.6321 3.76698e-06 0)
(42.6366 2.90589e-06 0)
(42.6411 2.22112e-06 0)
(42.6457 1.68241e-06 0)
(42.6504 1.26444e-06 0)
(42.6551 9.4325e-07 0)
(42.6598 6.99816e-07 0)
(42.6645 5.17269e-07 0)
(42.6693 3.82082e-07 0)
(42.6741 2.83283e-07 0)
(42.6789 2.12027e-07 0)
(42.6837 1.61187e-07 0)
(42.6885 1.24869e-07 0)
(42.6933 1.00008e-07 0)
(42.6981 8.40436e-08 0)
(42.7029 7.37871e-08 0)
(42.7076 6.74368e-08 0)
(42.7123 6.37021e-08 0)
(42.7169 6.13884e-08 0)
(42.7216 6.09274e-08 0)
(42.7261 6.04702e-08 0)
(42.7306 6.07733e-08 0)
(42.7351 6.09813e-08 0)
(42.7394 6.19068e-08 0)
(42.7437 6.26528e-08 0)
(42.7479 6.3515e-08 0)
(42.7521 6.44774e-08 0)
(42.7561 6.53868e-08 0)
(42.7601 6.60703e-08 0)
(42.764 6.67305e-08 0)
(42.7677 6.73502e-08 0)
(42.7714 6.78576e-08 0)
(42.775 6.82134e-08 0)
(42.7784 6.84412e-08 0)
(42.7818 6.85587e-08 0)
(42.785 6.85519e-08 0)
(42.7881 6.84534e-08 0)
(42.7911 6.83378e-08 0)
(42.794 6.79137e-08 0)
(42.7968 6.74666e-08 0)
(42.7994 6.69484e-08 0)
(42.8019 6.62967e-08 0)
(42.8043 6.55358e-08 0)
(42.8065 6.48332e-08 0)
(42.8086 6.35101e-08 0)
(42.8106 6.2554e-08 0)
(42.8124 6.15247e-08 0)
(42.8141 6.03618e-08 0)
(42.8157 5.86395e-08 0)
(42.8171 5.75895e-08 0)
(42.8184 5.62518e-08 0)
(42.8196 5.42475e-08 0)
(42.8206 5.3265e-08 0)
(42.8215 5.1042e-08 0)
(42.8223 4.95805e-08 0)
(42.8229 4.79314e-08 0)
(42.8234 4.61914e-08 0)
(42.8237 4.44165e-08 0)
(42.8239 4.26263e-08 0)
(42.824 4.08303e-08 0)
(42.824 3.89738e-08 0)
(42.8238 3.71833e-08 0)
(42.8235 3.53711e-08 0)
(42.8231 3.35727e-08 0)
(42.8226 3.17782e-08 0)
(42.822 3.00209e-08 0)
(42.8212 2.82849e-08 0)
(42.8203 2.65752e-08 0)
(42.8194 2.49067e-08 0)
(42.8183 2.32798e-08 0)
(42.8171 2.16882e-08 0)
(42.8158 2.01489e-08 0)
(42.8144 1.86706e-08 0)
(42.813 1.72956e-08 0)
(42.8114 1.60215e-08 0)
(42.8098 1.48165e-08 0)
(42.8081 1.36872e-08 0)
(42.8063 1.26125e-08 0)
(42.8044 1.15974e-08 0)
(42.8025 1.06491e-08 0)
(42.8005 9.77955e-09 0)
(42.7984 8.99245e-09 0)
(42.7963 8.27988e-09 0)
(42.7941 7.63709e-09 0)
(42.7919 7.06352e-09 0)
(42.7896 6.5892e-09 0)
(42.7873 6.21345e-09 0)
(42.785 5.93401e-09 0)
(42.7826 5.73605e-09 0)
(42.7803 5.62008e-09 0)
(42.7778 5.58203e-09 0)
(42.7754 5.62072e-09 0)
(42.773 5.72934e-09 0)
(42.7705 5.91278e-09 0)
(42.768 6.16048e-09 0)
(42.7656 6.47901e-09 0)
(42.7631 6.86484e-09 0)
(42.7606 7.31372e-09 0)
(42.7581 7.83472e-09 0)
(42.7557 8.41903e-09 0)
(42.7532 9.0675e-09 0)
(42.7508 9.77467e-09 0)
(42.7484 1.05463e-08 0)
(42.746 1.13812e-08 0)
(42.7437 1.22666e-08 0)
(42.7413 1.3205e-08 0)
(42.739 1.41926e-08 0)
(42.7367 1.52378e-08 0)
(42.7345 1.63307e-08 0)
(42.7323 1.74639e-08 0)
(42.7301 1.86317e-08 0)
(42.7279 1.98245e-08 0)
(42.7258 2.10466e-08 0)
(42.7238 2.22934e-08 0)
(42.7217 2.35592e-08 0)
(42.7198 2.48456e-08 0)
(42.7178 2.61513e-08 0)
(42.7159 2.74748e-08 0)
(42.7141 2.88184e-08 0)
(42.7123 3.01795e-08 0)
(42.7105 3.15478e-08 0)
(42.7088 3.29321e-08 0)
(42.7072 3.432e-08 0)
(42.7056 3.56988e-08 0)
(42.704 3.70738e-08 0)
(42.7025 3.84363e-08 0)
(42.701 3.9786e-08 0)
(42.6996 4.11217e-08 0)
(42.6982 4.24431e-08 0)
(42.6969 4.37517e-08 0)
(42.6956 4.50407e-08 0)
(42.6944 4.63136e-08 0)
(42.6932 4.75706e-08 0)
(42.692 4.8807e-08 0)
(42.6909 5.00208e-08 0)
(42.6898 5.12169e-08 0)
(42.6888 5.2385e-08 0)
(42.6878 5.35286e-08 0)
(42.6869 5.46481e-08 0)
(42.686 5.57413e-08 0)
(42.6851 5.68088e-08 0)
(42.6843 5.78464e-08 0)
(42.6835 5.88569e-08 0)
(42.6828 5.98395e-08 0)
(42.6821 6.07926e-08 0)
(42.6814 6.17243e-08 0)
(42.6807 6.2624e-08 0)
(42.6801 6.34915e-08 0)
(42.6795 6.43347e-08 0)
(42.679 6.51511e-08 0)
(42.6785 6.59401e-08 0)
(42.678 6.66997e-08 0)
(42.6775 6.74398e-08 0)
(42.677 6.81501e-08 0)
(42.6766 6.88392e-08 0)
(42.6762 6.9502e-08 0)
(42.6759 7.01411e-08 0)
(42.6755 7.07572e-08 0)
(42.6752 7.13553e-08 0)
(42.6749 7.19267e-08 0)
(42.6746 7.24856e-08 0)
(42.6743 7.30194e-08 0)
(42.6741 7.35443e-08 0)
(42.6738 7.40513e-08 0)
(42.6736 7.45402e-08 0)
(42.6734 7.50174e-08 0)
(42.6732 7.54796e-08 0)
(42.673 7.59303e-08 0)
(42.6729 7.63716e-08 0)
(42.6727 7.67954e-08 0)
(42.6726 7.72104e-08 0)
(42.6724 7.76169e-08 0)
(42.6723 7.80104e-08 0)
(42.6722 7.83929e-08 0)
(42.6721 7.87693e-08 0)
(42.672 7.91351e-08 0)
(42.6719 7.94974e-08 0)
(42.6718 7.98538e-08 0)
(42.6717 8.01978e-08 0)
(42.6716 8.05402e-08 0)
(42.6715 8.08689e-08 0)
(42.6714 8.1181e-08 0)
(42.6713 8.14581e-08 0)
(42.6712 8.15587e-08 0)
(42.6711 8.25801e-08 0)
(42.671 8.25536e-08 0)
(42.671 8.28262e-08 0)
(42.6709 8.31177e-08 0)
(42.6708 8.34393e-08 0)
(42.6706 8.37616e-08 0)
(42.6705 8.4092e-08 0)
(42.6704 8.44484e-08 0)
(42.6703 8.48037e-08 0)
(42.6701 8.51607e-08 0)
(42.67 8.55201e-08 0)
(42.6698 8.58721e-08 0)
(42.6696 8.62269e-08 0)
(42.6694 8.65946e-08 0)
(42.6692 8.69895e-08 0)
(42.669 8.7419e-08 0)
(42.6687 8.78843e-08 0)
(42.6684 8.83776e-08 0)
(42.6681 8.88931e-08 0)
(42.6678 8.94211e-08 0)
(42.6675 8.99592e-08 0)
(42.6671 9.05124e-08 0)
(42.6667 9.10821e-08 0)
(42.6663 9.16651e-08 0)
(42.6659 9.22754e-08 0)
(42.6654 9.2912e-08 0)
(42.6649 9.35724e-08 0)
(42.6643 9.426e-08 0)
(42.6637 9.49709e-08 0)
(42.6631 9.57034e-08 0)
(42.6624 9.64656e-08 0)
(42.6617 9.72551e-08 0)
(42.6609 9.80627e-08 0)
(42.6601 9.88887e-08 0)
(42.6593 9.97331e-08 0)
(42.6584 1.00595e-07 0)
(42.6575 1.01479e-07 0)
(42.6565 1.02389e-07 0)
(42.6554 1.03305e-07 0)
(42.6543 1.04243e-07 0)
(42.6532 1.05198e-07 0)
(42.652 1.06163e-07 0)
(42.6507 1.07131e-07 0)
(42.6494 1.08117e-07 0)
(42.648 1.09111e-07 0)
(42.6465 1.10099e-07 0)
(42.645 1.11093e-07 0)
(42.6434 1.12085e-07 0)
(42.6418 1.13073e-07 0)
(42.6401 1.14048e-07 0)
(42.6383 1.15015e-07 0)
(42.6365 1.15965e-07 0)
(42.6346 1.16896e-07 0)
(42.6326 1.17805e-07 0)
(42.6306 1.18696e-07 0)
(42.6285 1.19547e-07 0)
(42.6263 1.20365e-07 0)
(42.6241 1.21145e-07 0)
(42.6218 1.21882e-07 0)
(42.6195 1.22568e-07 0)
(42.6171 1.23208e-07 0)
(42.6146 1.23788e-07 0)
(42.6121 1.2431e-07 0)
(42.6096 1.2477e-07 0)
(42.607 1.25161e-07 0)
(42.6043 1.25474e-07 0)
(42.6016 1.25717e-07 0)
(42.5989 1.25878e-07 0)
(42.5961 1.25954e-07 0)
(42.5933 1.25939e-07 0)
(42.5905 1.25832e-07 0)
(42.5876 1.25625e-07 0)
(42.5847 1.25319e-07 0)
(42.5818 1.24909e-07 0)
(42.5789 1.24389e-07 0)
(42.576 1.23758e-07 0)
(42.5731 1.23017e-07 0)
(42.5702 1.22165e-07 0)
(42.5672 1.21191e-07 0)
(42.5644 1.20096e-07 0)
(42.5615 1.1889e-07 0)
(42.5586 1.17555e-07 0)
(42.5558 1.16104e-07 0)
(42.5531 1.14536e-07 0)
(42.5503 1.12846e-07 0)
(42.5477 1.11038e-07 0)
(42.545 1.09115e-07 0)
(42.5425 1.0708e-07 0)
(42.54 1.04934e-07 0)
(42.5376 1.02677e-07 0)
(42.5352 1.00315e-07 0)
(42.533 9.7852e-08 0)
(42.5308 9.52942e-08 0)
(42.5288 9.26433e-08 0)
(42.5268 8.99074e-08 0)
(42.5249 8.70956e-08 0)
(42.5232 8.42021e-08 0)
(42.5216 8.12478e-08 0)
(42.5201 7.82342e-08 0)
(42.5187 7.51743e-08 0)
(42.5174 7.20725e-08 0)
(42.5163 6.89351e-08 0)
(42.5153 6.57761e-08 0)
(42.5145 6.25957e-08 0)
(42.5138 5.94201e-08 0)
(42.5132 5.62376e-08 0)
(42.5128 5.30599e-08 0)
(42.5125 4.99006e-08 0)
(42.5124 4.67611e-08 0)
(42.5124 4.37484e-08 0)
(42.5126 4.27234e-08 0)
(42.5129 4.10576e-08 0)
(42.5133 2.86511e-08 0)
(42.5139 2.82317e-08 0)
(42.5147 3.60814e-08 0)
(42.5155 2.65914e-08 0)
(42.5166 2.78785e-08 0)
(42.5177 2.07146e-08 0)
(42.519 2.33523e-08 0)
(42.5204 1.89282e-08 0)
(42.5219 2.327e-08 0)
(42.5236 2.30469e-08 0)
(42.5254 3.8984e-08 0)
(42.5273 6.63594e-08 0)
(42.5293 1.46524e-07 0)
(42.5314 3.35425e-07 0)
(42.5336 7.9358e-07 0)
(42.5359 1.8921e-06 0)
(42.5382 4.5187e-06 0)
(42.5407 1.08114e-05 0)
(42.5432 2.58491e-05 0)
(42.5456 6.18285e-05 0)
(42.5479 0.00014781 0)
(42.5497 0.000353372 0)
(42.5504 0.000844299 0)
(42.548 0.00201662 0)
(42.5385 0.00481153 0)
(42.5121 0.0114622 0)
(42.4457 0.0271498 0)
(42.2846 0.0641782 0)
(41.8993 0.152716 0)
(41.0406 0.378591 0)
(37.8884 0.957916 0)
(42.6981 9.72854e-05 0)
(42.6935 9.88631e-05 0)
(42.6884 9.4522e-05 0)
(42.6835 9.87714e-05 0)
(42.6788 0.000102563 0)
(42.6741 0.000104509 0)
(42.6694 0.000105815 0)
(42.6647 0.000106963 0)
(42.66 0.000107957 0)
(42.6554 0.000108804 0)
(42.6508 0.000109532 0)
(42.6463 0.000110151 0)
(42.6418 0.000110702 0)
(42.6374 0.000111181 0)
(42.633 0.000111599 0)
(42.6287 0.000111965 0)
(42.6244 0.000112283 0)
(42.6203 0.000112574 0)
(42.6162 0.000112814 0)
(42.6122 0.000113033 0)
(42.6083 0.000113226 0)
(42.6046 0.000113396 0)
(42.6009 0.000113548 0)
(42.5973 0.000113676 0)
(42.5939 0.000113797 0)
(42.5906 0.000113903 0)
(42.5874 0.000113997 0)