/*--------------------------------*- C++ -*----------------------------------*\
| =========                 |                                                 |
| \\      /  F ield         | OpenFOAM: The Open Source CFD Toolbox           |
|  \\    /   O peration     | Version:  3.0.x                                 |
|   \\  /    A nd           | Web:      www.OpenFOAM.org                      |
|    \\/     M anipulation  |                                                 |
\*---------------------------------------------------------------------------*/
FoamFile
{
    version     2.0;
    format      ascii;
    class       surfaceScalarField;
    location    "0.005";
    object      phi;
}
// * * * * * * * * * * * * * * * * * * * * * * * * * * * * * * * * * * * * * //

dimensions      [1 0 -1 0 0 0 0];

internalField   nonuniform List<scalar> 
999
(
2922.08
2922.08
2922.08
2922.08
2922.08
2922.08
2922.08
2922.08
2922.08
2922.08
2922.08
2922.08
2922.08
2922.08
2922.08
2922.08
2922.08
2922.08
2922.08
2922.08
2922.08
2922.08
2922.08
2922.08
2922.08
2922.08
2922.08
2922.08
2922.08
2922.08
2922.08
2922.08
2922.08
2922.08
2922.08
2922.08
2922.08
2922.08
2922.08
2922.08
2922.08
2922.08
2922.08
2922.08
2922.08
2922.08
2922.08
2922.08
2922.08
2922.08
2922.08
2922.08
2922.08
2922.08
2922.08
2922.08
2922.08
2922.08
2922.08
2922.08
2922.08
2922.08
2922.08
2922.08
2922.08
2922.08
2922.08
2922.08
2922.08
2922.08
2922.08
2922.08
2922.08
2922.08
2922.08
2922.08
2922.08
2922.08
2922.08
2922.08
2922.08
2922.08
2922.08
2922.08
2922.08
2922.08
2922.08
2922.08
2922.08
2922.08
2922.08
2922.08
2922.08
2922.08
2922.08
2922.08
2922.08
2922.08
2922.08
2922.08
2922.08
2922.08
2922.08
2922.08
2922.08
2922.08
2922.08
2922.08
2922.08
2922.08
2922.08
2922.08
2922.08
2922.08
2922.08
2922.08
2922.08
2922.08
2922.08
2922.08
2922.08
2922.08
2922.08
2922.08
2922.08
2922.08
2922.08
2922.08
2922.08
2922.08
2922.08
2922.08
2922.08
2922.08
2922.08
2922.08
2922.08
2922.08
2922.08
2922.08
2922.08
2922.08
2922.08
2922.08
2922.08
2922.08
2922.08
2922.08
2922.08
2922.08
2922.08
2922.08
2922.08
2922.08
2922.08
2922.08
2922.08
2922.08
2922.08
2922.08
2922.08
2922.08
2922.08
2922.08
2922.08
2922.08
2922.08
2922.08
2922.08
2922.08
2922.08
2922.08
2922.08
2922.08
2922.08
2922.08
2922.08
2922.08
2922.08
2922.08
2922.08
2922.08
2922.08
2922.08
2922.08
2922.08
2922.08
2922.08
2922.08
2922.08
2922.08
2922.08
2922.08
2922.08
2922.08
2922.08
2922.08
2922.08
2922.08
2922.08
2922.08
2922.08
2922.08
2922.08
2922.08
2922.08
2922.08
2922.08
2922.08
2922.08
2922.08
2922.08
2922.08
2922.08
2922.08
2922.08
2922.08
2922.08
2922.08
2922.08
2922.08
2922.08
2922.08
2922.08
2922.08
2922.08
2922.08
2922.08
2922.08
2922.08
2922.08
2922.08
2922.08
2922.08
2922.08
2922.08
2922.08
2922.08
2922.08
2922.08
2922.08
2922.08
2922.08
2922.08
2922.08
2922.08
2922.08
2922.08
2922.08
2922.08
2922.08
2922.08
2922.08
2922.08
2922.08
2922.08
2922.08
2922.08
2922.08
2922.08
2922.08
2922.08
2922.08
2922.08
2922.08
2922.08
2922.08
2922.08
2922.08
2922.08
2922.08
2922.08
2922.08
2922.08
2922.08
2922.08
2922.08
2922.08
2922.08
2922.08
2922.08
2922.08
2922.08
2922.08
2922.08
2922.08
2922.08
2922.08
2922.08
2922.08
2922.08
2922.08
2922.08
2922.08
2922.08
2922.08
2922.08
2922.08
2922.08
2922.08
2922.08
2922.08
2922.08
2922.08
2922.08
2922.08
2922.08
2922.08
2922.08
2922.08
2922.08
2922.08
2922.08
2922.08
2922.08
2922.08
2922.08
2922.08
2922.08
2922.08
2922.08
2922.08
2922.08
2922.08
2922.08
2922.08
2922.08
2922.08
2922.08
2922.08
2922.08
2922.08
2922.08
2922.08
2922.08
2922.08
2922.08
2922.08
2922.08
2922.08
2922.08
2922.08
2922.08
2922.08
2922.08
2922.08
2922.08
2922.08
2922.08
2922.08
2922.08
2922.08
2922.08
2922.08
2922.08
2922.08
2922.08
2922.08
2922.08
2922.08
2922.08
2922.08
2922.08
2922.08
2922.08
2922.08
2922.08
2922.08
2922.08
2922.08
2922.08
2922.08
2922.08
2922.08
2922.08
2922.08
2922.08
2922.08
2922.08
2922.08
2922.08
2922.08
2922.08
2922.08
2922.08
2922.08
2922.08
2922.08
2922.08
2922.08
2922.08
2922.08
2922.08
2922.08
2922.08
2922.08
2922.08
2922.08
2922.08
2922.08
2922.08
2922.08
2922.08
2922.08
2922.08
2922.08
2922.08
2922.08
2922.08
2922.08
2922.08
2922.08
2922.08
2922.08
2922.08
2922.08
2922.08
2922.08
2922.08
2922.08
2922.08
2922.08
2922.08
2922.08
2922.08
2922.08
2922.08
2922.08
2922.08
2922.08
2922.08
2922.08
2922.08
2922.08
2922.08
2922.08
2922.08
2922.08
2922.08
2922.08
2922.08
2922.08
2922.08
2922.08
2922.08
2922.08
2922.08
2922.08
2922.08
2922.08
2922.08
2922.08
2922.08
2922.08
2922.08
2922.08
2922.08
2922.08
2922.08
2922.08
2922.08
2922.08
2922.08
2922.08
2922.08
2922.08
2922.08
2922.08
2922.08
2922.08
2922.08
2922.08
2922.08
2922.08
2922.08
2922.08
2922.08
2922.08
2922.08
2922.08
2922.08
2922.08
2922.08
2922.08
2922.08
2922.08
2922.08
2922.08
2922.08
2922.08
2922.08
2922.08
2922.08
2922.08
2922.08
2922.08
2922.08
2922.08
2922.08
2922.08
2922.08
2922.08
2922.08
2922.08
2922.08
2922.08
2922.08
2922.08
2922.08
2922.08
2922.08
2922.08
2922.08
2922.08
2922.08
2922.08
2922.08
2922.08
2922.08
2922.08
2922.08
2922.08
2922.08
2922.08
2922.08
2922.08
2922.08
2922.08
2922.08
2922.08
2922.08
2922.08
2922.08
2922.08
2922.08
2922.08
2922.08
2922.08
2922.08
2922.08
2922.08
2922.08
2922.08
2922.08
2922.08
2922.08
2922.08
2922.08
2922.08
2922.08
2922.08
2922.08
2922.08
2922.08
2922.08
2922.08
2922.08
2922.08
2922.08
2922.08
2922.08
2922.08
2922.08
2922.08
2922.08
2922.08
2922.08
2922.08
2922.08
2922.08
2922.08
2922.08
2922.08
2922.08
2922.08
2922.08
2922.08
2922.08
2922.08
2922.08
2922.08
2922.08
2922.08
2922.08
2922.08
2922.08
2922.08
2922.08
2922.08
2922.08
2922.08
2922.08
2922.08
2922.08
2922.08
2922.08
2922.08
2922.08
2922.08
2922.08
2922.08
2922.08
2922.08
2922.08
2922.08
2922.08
2922.08
2922.08
2922.08
2922.08
2922.08
2922.08
2922.08
2922.08
2922.08
2922.08
2922.08
2922.08
2922.08
2922.08
2922.08
2922.08
2922.08
2922.08
2922.08
2922.08
2922.08
2922.07
2922.07
2922.07
2922.07
2922.07
2922.06
2922.06
2922.05
2922.04
2922.03
2922.02
2922
2921.97
2921.93
2921.89
2921.83
2921.75
2921.65
2921.52
2921.36
2921.14
2920.87
2920.52
2920.08
2919.52
2918.81
2917.92
2916.79
2915.38
2913.62
2911.42
2908.7
2905.32
2901.15
2896.02
2889.72
2882.02
2872.64
2861.24
2847.46
2830.84
2810.89
2787.05
2758.7
2725.16
2685.69
2639.54
2585.95
2524.2
2453.62
2373.72
2284.16
2184.91
2076.24
1958.82
1833.71
1702.38
1566.68
1428.7
1290.7
1154.97
1023.67
898.697
781.614
673.569
575.285
487.079
408.907
340.434
281.101
230.198
186.927
150.455
119.956
94.6394
73.7756
56.7036
42.8383
31.6713
22.7689
15.7665
10.363
6.3113
3.40843
1.48243
0.377137
-0.0647854
-0.0236181
0.117494
0.276066
0.401784
0.500142
0.574508
0.629528
0.669899
0.698625
0.717839
0.729225
0.734461
0.735198
0.73267
0.727641
0.720644
0.712193
0.702818
0.692944
0.682819
0.67256
0.662244
0.651968
0.641837
0.631927
0.622271
0.612869
0.603716
0.59481
0.586153
0.577742
0.569574
0.561642
0.553938
0.546452
0.53917
0.532081
0.525173
0.518442
0.51188
0.505483
0.499242
0.493149
0.487197
0.481378
0.475688
0.470124
0.464679
0.459349
0.454129
0.449014
0.443998
0.439079
0.434253
0.429517
0.424871
0.420311
0.415837
0.411444
0.40713
0.40289
0.398723
0.394625
0.390594
0.386628
0.382726
0.378887
0.375109
0.371391
0.367731
0.364127
0.360576
0.357077
0.353628
0.350226
0.346869
0.343556
0.340285
0.337055
0.333863
0.330711
0.327597
0.32452
0.321481
0.31848
0.315516
0.312588
0.309698
0.306844
0.304026
0.301243
0.298494
0.295778
0.293095
0.290442
0.287818
0.285222
0.282653
0.28011
0.277592
0.275098
0.272629
0.270183
0.267761
0.265363
0.262989
0.260639
0.258311
0.256006
0.253723
0.251461
0.249219
0.246996
0.244791
0.242604
0.240433
0.238278
0.23614
0.234017
0.23191
0.229819
0.227744
0.225686
0.223645
0.22162
0.219611
0.217619
0.215643
0.213683
0.211739
0.209811
0.207899
0.206002
0.204121
0.202255
0.200406
0.198573
0.196756
0.194955
0.193169
0.191398
0.189642
0.187899
0.18617
0.184451
0.182744
0.181047
0.179359
0.177681
0.176011
0.17435
0.172697
0.171054
0.169419
0.167794
0.166178
0.164572
0.162976
0.161388
0.15981
0.15824
0.156678
0.155123
0.153575
0.152033
0.150497
0.148966
0.147441
0.145922
0.144409
0.142903
0.141404
0.139912
0.138428
0.136954
0.135488
0.134031
0.132583
0.131145
0.129715
0.128294
0.126881
0.125475
0.124076
0.122684
0.121298
0.119917
0.11854
0.117167
0.115798
0.114432
0.113069
0.111708
0.110351
0.108996
0.107645
0.106298
0.104956
0.103622
0.102295
0.100977
0.0996684
0.0983699
0.0970815
0.0958026
0.0945327
0.0932704
0.0920143
0.0907626
0.0895133
0.088264
0.0870121
0.0857552
0.0844912
0.0832188
0.0819378
0.0806495
0.0793567
0.0780634
0.0767747
0.0754956
0.0742308
0.0729837
0.0717563
0.0705482
0.0693569
0.068178
0.0670063
0.0658415
0.064439
0.0634903
0.0619522
0.0611725
0.0596271
0.0590366
0.0572297
0.0561365
0.0549068
0.0543838
0.0525881
0.0520394
0.050141
0.0497484
0.0477416
0.0474761
0.0453461
0.0451511
0.0429155
0.0427502
0.0404723
0.0402969
0.0380678
0.0378215
0.0357464
0.0353435
0.0335355
0.0328697
0.0314411
0.0303923
0.0294445
0.0278924
0.0275085
0.0253532
0.0255916
0.0227729
0.0236568
0.0201675
0.0216729
0.017566
0.0196127
0.0150045
0.0174551
0.012523
0.0151896
0.0101621
0.0128187
0.0079571
0.0103561
0.00592934
0.0078225
0.00407848
0.00523948
0.0023788
0.00262647
0.000780532
)
;

boundaryField
{
    inlet
    {
        type            calculated;
        value           uniform -2922.08;
    }
    backWall
    {
        type            calculated;
        value           uniform 0;
    }
    sides
    {
        type            empty;
        value           nonuniform 0();
    }
}


// ************************************************************************* //
