/*--------------------------------*- C++ -*----------------------------------*\
| =========                 |                                                 |
| \\      /  F ield         | OpenFOAM: The Open Source CFD Toolbox           |
|  \\    /   O peration     | Version:  3.0.x                                 |
|   \\  /    A nd           | Web:      www.OpenFOAM.org                      |
|    \\/     M anipulation  |                                                 |
\*---------------------------------------------------------------------------*/
FoamFile
{
    version     2.0;
    format      ascii;
    class       volScalarField;
    location    "0.47";
    object      p;
}
// * * * * * * * * * * * * * * * * * * * * * * * * * * * * * * * * * * * * * //

dimensions      [1 -1 -2 0 0 0 0];

internalField   nonuniform List<scalar> 
6900
(
1.81991e+07
1.81991e+07
1.81991e+07
1.81991e+07
1.81991e+07
1.81992e+07
1.81992e+07
1.81993e+07
1.81993e+07
1.81994e+07
1.81994e+07
1.81995e+07
1.81995e+07
1.81996e+07
1.81996e+07
1.81997e+07
1.81997e+07
1.81998e+07
1.81998e+07
1.81999e+07
1.81999e+07
1.82e+07
1.82e+07
1.82e+07
1.82001e+07
1.82001e+07
1.82002e+07
1.82003e+07
1.82003e+07
1.82004e+07
1.82005e+07
1.82005e+07
1.82006e+07
1.82008e+07
1.82009e+07
1.8201e+07
1.82011e+07
1.82013e+07
1.82015e+07
1.82016e+07
1.82018e+07
1.8202e+07
1.82023e+07
1.82025e+07
1.82027e+07
1.8203e+07
1.82032e+07
1.82035e+07
1.82038e+07
1.8204e+07
1.82043e+07
1.82046e+07
1.82049e+07
1.82052e+07
1.82056e+07
1.82059e+07
1.82062e+07
1.82066e+07
1.82069e+07
1.82073e+07
1.82077e+07
1.82081e+07
1.82085e+07
1.82089e+07
1.82094e+07
1.82098e+07
1.82103e+07
1.82108e+07
1.82113e+07
1.82119e+07
1.82124e+07
1.8213e+07
1.82137e+07
1.82143e+07
1.8215e+07
1.82157e+07
1.82164e+07
1.82171e+07
1.82179e+07
1.82187e+07
1.82195e+07
1.82203e+07
1.82211e+07
1.8222e+07
1.82228e+07
1.82237e+07
1.82246e+07
1.82256e+07
1.82265e+07
1.82274e+07
1.82284e+07
1.82294e+07
1.82304e+07
1.82314e+07
1.82325e+07
1.82335e+07
1.82346e+07
1.82357e+07
1.82368e+07
1.8238e+07
1.82392e+07
1.82404e+07
1.82416e+07
1.82429e+07
1.82442e+07
1.82456e+07
1.8247e+07
1.82484e+07
1.82498e+07
1.82513e+07
1.82528e+07
1.82543e+07
1.82559e+07
1.82575e+07
1.82591e+07
1.82608e+07
1.82624e+07
1.82641e+07
1.82659e+07
1.82676e+07
1.82694e+07
1.82712e+07
1.8273e+07
1.82748e+07
1.82766e+07
1.82785e+07
1.82803e+07
1.82822e+07
1.82841e+07
1.82861e+07
1.8288e+07
1.829e+07
1.8292e+07
1.8294e+07
1.82961e+07
1.82982e+07
1.83003e+07
1.83025e+07
1.83046e+07
1.83069e+07
1.83091e+07
1.83114e+07
1.83138e+07
1.83162e+07
1.83186e+07
1.83211e+07
1.83236e+07
1.83261e+07
1.83287e+07
1.83313e+07
1.8334e+07
1.83367e+07
1.83394e+07
1.83421e+07
1.83449e+07
1.83477e+07
1.83505e+07
1.83534e+07
1.83562e+07
1.83591e+07
1.8362e+07
1.83649e+07
1.83678e+07
1.83708e+07
1.83737e+07
1.83767e+07
1.83797e+07
1.83828e+07
1.83858e+07
1.83889e+07
1.8392e+07
1.83952e+07
1.83983e+07
1.84015e+07
1.84048e+07
1.8408e+07
1.84113e+07
1.84146e+07
1.8418e+07
1.84214e+07
1.84248e+07
1.84283e+07
1.84319e+07
1.84354e+07
1.8439e+07
1.84427e+07
1.84464e+07
1.84502e+07
1.8454e+07
1.84578e+07
1.84617e+07
1.84656e+07
1.84695e+07
1.84735e+07
1.84775e+07
1.84815e+07
1.84855e+07
1.84896e+07
1.84937e+07
1.84981e+07
1.81991e+07
1.81991e+07
1.81991e+07
1.81991e+07
1.81991e+07
1.81992e+07
1.81992e+07
1.81993e+07
1.81993e+07
1.81994e+07
1.81994e+07
1.81995e+07
1.81995e+07
1.81996e+07
1.81996e+07
1.81997e+07
1.81997e+07
1.81998e+07
1.81998e+07
1.81999e+07
1.81999e+07
1.82e+07
1.82e+07
1.82e+07
1.82001e+07
1.82001e+07
1.82002e+07
1.82003e+07
1.82003e+07
1.82004e+07
1.82005e+07
1.82005e+07
1.82006e+07
1.82008e+07
1.82009e+07
1.8201e+07
1.82011e+07
1.82013e+07
1.82015e+07
1.82016e+07
1.82018e+07
1.8202e+07
1.82023e+07
1.82025e+07
1.82027e+07
1.8203e+07
1.82032e+07
1.82035e+07
1.82038e+07
1.8204e+07
1.82043e+07
1.82046e+07
1.82049e+07
1.82052e+07
1.82056e+07
1.82059e+07
1.82062e+07
1.82066e+07
1.82069e+07
1.82073e+07
1.82077e+07
1.82081e+07
1.82085e+07
1.82089e+07
1.82094e+07
1.82098e+07
1.82103e+07
1.82108e+07
1.82113e+07
1.82119e+07
1.82124e+07
1.8213e+07
1.82137e+07
1.82143e+07
1.8215e+07
1.82157e+07
1.82164e+07
1.82171e+07
1.82179e+07
1.82187e+07
1.82195e+07
1.82203e+07
1.82211e+07
1.8222e+07
1.82228e+07
1.82237e+07
1.82246e+07
1.82256e+07
1.82265e+07
1.82274e+07
1.82284e+07
1.82294e+07
1.82304e+07
1.82314e+07
1.82325e+07
1.82335e+07
1.82346e+07
1.82357e+07
1.82368e+07
1.8238e+07
1.82392e+07
1.82404e+07
1.82416e+07
1.82429e+07
1.82442e+07
1.82456e+07
1.8247e+07
1.82484e+07
1.82498e+07
1.82513e+07
1.82528e+07
1.82543e+07
1.82559e+07
1.82575e+07
1.82591e+07
1.82608e+07
1.82624e+07
1.82641e+07
1.82659e+07
1.82676e+07
1.82694e+07
1.82712e+07
1.8273e+07
1.82748e+07
1.82766e+07
1.82785e+07
1.82803e+07
1.82822e+07
1.82841e+07
1.82861e+07
1.8288e+07
1.829e+07
1.8292e+07
1.8294e+07
1.82961e+07
1.82982e+07
1.83003e+07
1.83025e+07
1.83046e+07
1.83069e+07
1.83091e+07
1.83114e+07
1.83138e+07
1.83162e+07
1.83186e+07
1.83211e+07
1.83236e+07
1.83261e+07
1.83287e+07
1.83313e+07
1.8334e+07
1.83367e+07
1.83394e+07
1.83421e+07
1.83449e+07
1.83477e+07
1.83505e+07
1.83534e+07
1.83562e+07
1.83591e+07
1.8362e+07
1.83649e+07
1.83678e+07
1.83708e+07
1.83737e+07
1.83767e+07
1.83797e+07
1.83828e+07
1.83858e+07
1.83889e+07
1.8392e+07
1.83952e+07
1.83983e+07
1.84015e+07
1.84048e+07
1.8408e+07
1.84113e+07
1.84146e+07
1.8418e+07
1.84214e+07
1.84248e+07
1.84283e+07
1.84319e+07
1.84354e+07
1.8439e+07
1.84427e+07
1.84464e+07
1.84502e+07
1.8454e+07
1.84578e+07
1.84617e+07
1.84656e+07
1.84695e+07
1.84735e+07
1.84775e+07
1.84815e+07
1.84855e+07
1.84896e+07
1.84937e+07
1.84981e+07
1.81991e+07
1.81991e+07
1.81991e+07
1.81991e+07
1.81991e+07
1.81992e+07
1.81992e+07
1.81993e+07
1.81993e+07
1.81994e+07
1.81994e+07
1.81995e+07
1.81995e+07
1.81996e+07
1.81996e+07
1.81997e+07
1.81997e+07
1.81998e+07
1.81998e+07
1.81999e+07
1.81999e+07
1.82e+07
1.82e+07
1.82e+07
1.82001e+07
1.82001e+07
1.82002e+07
1.82003e+07
1.82003e+07
1.82004e+07
1.82005e+07
1.82005e+07
1.82006e+07
1.82008e+07
1.82009e+07
1.8201e+07
1.82011e+07
1.82013e+07
1.82015e+07
1.82016e+07
1.82018e+07
1.8202e+07
1.82023e+07
1.82025e+07
1.82027e+07
1.8203e+07
1.82032e+07
1.82035e+07
1.82038e+07
1.8204e+07
1.82043e+07
1.82046e+07
1.82049e+07
1.82052e+07
1.82056e+07
1.82059e+07
1.82062e+07
1.82066e+07
1.82069e+07
1.82073e+07
1.82077e+07
1.82081e+07
1.82085e+07
1.82089e+07
1.82094e+07
1.82098e+07
1.82103e+07
1.82108e+07
1.82113e+07
1.82119e+07
1.82124e+07
1.8213e+07
1.82137e+07
1.82143e+07
1.8215e+07
1.82157e+07
1.82164e+07
1.82171e+07
1.82179e+07
1.82187e+07
1.82195e+07
1.82203e+07
1.82211e+07
1.8222e+07
1.82228e+07
1.82237e+07
1.82246e+07
1.82256e+07
1.82265e+07
1.82274e+07
1.82284e+07
1.82294e+07
1.82304e+07
1.82314e+07
1.82325e+07
1.82335e+07
1.82346e+07
1.82357e+07
1.82368e+07
1.8238e+07
1.82392e+07
1.82404e+07
1.82416e+07
1.82429e+07
1.82442e+07
1.82456e+07
1.8247e+07
1.82484e+07
1.82498e+07
1.82513e+07
1.82528e+07
1.82543e+07
1.82559e+07
1.82575e+07
1.82591e+07
1.82608e+07
1.82624e+07
1.82641e+07
1.82659e+07
1.82676e+07
1.82694e+07
1.82712e+07
1.8273e+07
1.82748e+07
1.82766e+07
1.82785e+07
1.82803e+07
1.82822e+07
1.82841e+07
1.82861e+07
1.8288e+07
1.829e+07
1.8292e+07
1.8294e+07
1.82961e+07
1.82982e+07
1.83003e+07
1.83025e+07
1.83046e+07
1.83069e+07
1.83091e+07
1.83114e+07
1.83138e+07
1.83162e+07
1.83186e+07
1.83211e+07
1.83236e+07
1.83261e+07
1.83287e+07
1.83313e+07
1.8334e+07
1.83367e+07
1.83394e+07
1.83421e+07
1.83449e+07
1.83477e+07
1.83505e+07
1.83534e+07
1.83562e+07
1.83591e+07
1.8362e+07
1.83649e+07
1.83678e+07
1.83708e+07
1.83737e+07
1.83767e+07
1.83797e+07
1.83828e+07
1.83858e+07
1.83889e+07
1.8392e+07
1.83952e+07
1.83983e+07
1.84015e+07
1.84048e+07
1.8408e+07
1.84113e+07
1.84146e+07
1.8418e+07
1.84214e+07
1.84248e+07
1.84283e+07
1.84319e+07
1.84354e+07
1.8439e+07
1.84427e+07
1.84464e+07
1.84502e+07
1.8454e+07
1.84578e+07
1.84617e+07
1.84656e+07
1.84695e+07
1.84735e+07
1.84775e+07
1.84815e+07
1.84855e+07
1.84896e+07
1.84936e+07
1.84977e+07
1.81991e+07
1.81991e+07
1.81991e+07
1.81991e+07
1.81991e+07
1.81992e+07
1.81992e+07
1.81993e+07
1.81993e+07
1.81994e+07
1.81994e+07
1.81995e+07
1.81995e+07
1.81996e+07
1.81996e+07
1.81997e+07
1.81997e+07
1.81998e+07
1.81998e+07
1.81999e+07
1.81999e+07
1.82e+07
1.82e+07
1.82e+07
1.82001e+07
1.82001e+07
1.82002e+07
1.82003e+07
1.82003e+07
1.82004e+07
1.82005e+07
1.82005e+07
1.82006e+07
1.82008e+07
1.82009e+07
1.8201e+07
1.82011e+07
1.82013e+07
1.82015e+07
1.82016e+07
1.82018e+07
1.8202e+07
1.82023e+07
1.82025e+07
1.82027e+07
1.8203e+07
1.82032e+07
1.82035e+07
1.82038e+07
1.8204e+07
1.82043e+07
1.82046e+07
1.82049e+07
1.82052e+07
1.82056e+07
1.82059e+07
1.82062e+07
1.82066e+07
1.82069e+07
1.82073e+07
1.82077e+07
1.82081e+07
1.82085e+07
1.82089e+07
1.82094e+07
1.82098e+07
1.82103e+07
1.82108e+07
1.82113e+07
1.82119e+07
1.82124e+07
1.8213e+07
1.82137e+07
1.82143e+07
1.8215e+07
1.82157e+07
1.82164e+07
1.82171e+07
1.82179e+07
1.82187e+07
1.82195e+07
1.82203e+07
1.82211e+07
1.8222e+07
1.82228e+07
1.82237e+07
1.82246e+07
1.82256e+07
1.82265e+07
1.82274e+07
1.82284e+07
1.82294e+07
1.82304e+07
1.82314e+07
1.82325e+07
1.82335e+07
1.82346e+07
1.82357e+07
1.82368e+07
1.8238e+07
1.82392e+07
1.82404e+07
1.82416e+07
1.82429e+07
1.82442e+07
1.82456e+07
1.8247e+07
1.82484e+07
1.82498e+07
1.82513e+07
1.82528e+07
1.82543e+07
1.82559e+07
1.82575e+07
1.82591e+07
1.82608e+07
1.82624e+07
1.82641e+07
1.82659e+07
1.82676e+07
1.82694e+07
1.82712e+07
1.8273e+07
1.82748e+07
1.82766e+07
1.82785e+07
1.82803e+07
1.82822e+07
1.82841e+07
1.82861e+07
1.8288e+07
1.829e+07
1.8292e+07
1.8294e+07
1.82961e+07
1.82982e+07
1.83003e+07
1.83025e+07
1.83046e+07
1.83069e+07
1.83091e+07
1.83114e+07
1.83138e+07
1.83162e+07
1.83186e+07
1.83211e+07
1.83236e+07
1.83261e+07
1.83287e+07
1.83313e+07
1.8334e+07
1.83367e+07
1.83394e+07
1.83421e+07
1.83449e+07
1.83477e+07
1.83505e+07
1.83534e+07
1.83562e+07
1.83591e+07
1.8362e+07
1.83649e+07
1.83678e+07
1.83708e+07
1.83737e+07
1.83767e+07
1.83797e+07
1.83828e+07
1.83858e+07
1.83889e+07
1.8392e+07
1.83952e+07
1.83983e+07
1.84015e+07
1.84048e+07
1.8408e+07
1.84113e+07
1.84146e+07
1.8418e+07
1.84214e+07
1.84248e+07
1.84283e+07
1.84319e+07
1.84354e+07
1.8439e+07
1.84427e+07
1.84464e+07
1.84502e+07
1.8454e+07
1.84578e+07
1.84617e+07
1.84656e+07
1.84695e+07
1.84735e+07
1.84775e+07
1.84815e+07
1.84855e+07
1.84895e+07
1.84935e+07
1.84972e+07
1.81991e+07
1.81991e+07
1.81991e+07
1.81991e+07
1.81991e+07
1.81992e+07
1.81992e+07
1.81993e+07
1.81993e+07
1.81994e+07
1.81994e+07
1.81995e+07
1.81995e+07
1.81996e+07
1.81996e+07
1.81997e+07
1.81997e+07
1.81998e+07
1.81998e+07
1.81999e+07
1.81999e+07
1.82e+07
1.82e+07
1.82e+07
1.82001e+07
1.82001e+07
1.82002e+07
1.82003e+07
1.82003e+07
1.82004e+07
1.82005e+07
1.82005e+07
1.82006e+07
1.82008e+07
1.82009e+07
1.8201e+07
1.82011e+07
1.82013e+07
1.82015e+07
1.82016e+07
1.82018e+07
1.8202e+07
1.82023e+07
1.82025e+07
1.82027e+07
1.8203e+07
1.82032e+07
1.82035e+07
1.82038e+07
1.8204e+07
1.82043e+07
1.82046e+07
1.82049e+07
1.82052e+07
1.82056e+07
1.82059e+07
1.82062e+07
1.82066e+07
1.82069e+07
1.82073e+07
1.82077e+07
1.82081e+07
1.82085e+07
1.82089e+07
1.82094e+07
1.82098e+07
1.82103e+07
1.82108e+07
1.82113e+07
1.82119e+07
1.82124e+07
1.8213e+07
1.82137e+07
1.82143e+07
1.8215e+07
1.82157e+07
1.82164e+07
1.82171e+07
1.82179e+07
1.82187e+07
1.82195e+07
1.82203e+07
1.82211e+07
1.8222e+07
1.82228e+07
1.82237e+07
1.82246e+07
1.82256e+07
1.82265e+07
1.82274e+07
1.82284e+07
1.82294e+07
1.82304e+07
1.82314e+07
1.82325e+07
1.82335e+07
1.82346e+07
1.82357e+07
1.82368e+07
1.8238e+07
1.82392e+07
1.82404e+07
1.82416e+07
1.82429e+07
1.82442e+07
1.82456e+07
1.8247e+07
1.82484e+07
1.82498e+07
1.82513e+07
1.82528e+07
1.82543e+07
1.82559e+07
1.82575e+07
1.82591e+07
1.82608e+07
1.82624e+07
1.82641e+07
1.82659e+07
1.82676e+07
1.82694e+07
1.82712e+07
1.8273e+07
1.82748e+07
1.82766e+07
1.82785e+07
1.82803e+07
1.82822e+07
1.82841e+07
1.82861e+07
1.8288e+07
1.829e+07
1.8292e+07
1.8294e+07
1.82961e+07
1.82982e+07
1.83003e+07
1.83025e+07
1.83046e+07
1.83069e+07
1.83091e+07
1.83114e+07
1.83138e+07
1.83162e+07
1.83186e+07
1.83211e+07
1.83236e+07
1.83261e+07
1.83287e+07
1.83313e+07
1.8334e+07
1.83367e+07
1.83394e+07
1.83421e+07
1.83449e+07
1.83477e+07
1.83505e+07
1.83534e+07
1.83562e+07
1.83591e+07
1.8362e+07
1.83649e+07
1.83678e+07
1.83708e+07
1.83737e+07
1.83767e+07
1.83797e+07
1.83828e+07
1.83858e+07
1.83889e+07
1.8392e+07
1.83952e+07
1.83983e+07
1.84015e+07
1.84048e+07
1.8408e+07
1.84113e+07
1.84146e+07
1.8418e+07
1.84214e+07
1.84248e+07
1.84283e+07
1.84319e+07
1.84354e+07
1.8439e+07
1.84427e+07
1.84464e+07
1.84502e+07
1.8454e+07
1.84578e+07
1.84617e+07
1.84656e+07
1.84695e+07
1.84735e+07
1.84775e+07
1.84815e+07
1.84855e+07
1.84895e+07
1.84935e+07
1.84972e+07
1.85045e+07
1.85071e+07
1.85081e+07
1.85086e+07
1.8509e+07
1.85094e+07
1.85094e+07
1.85093e+07
1.85095e+07
1.85103e+07
1.85119e+07
1.85139e+07
1.85147e+07
1.85126e+07
1.85084e+07
1.85053e+07
1.85039e+07
1.85028e+07
1.8502e+07
1.85024e+07
1.85034e+07
1.85051e+07
1.85059e+07
1.85064e+07
1.85068e+07
1.85072e+07
1.85071e+07
1.8507e+07
1.85072e+07
1.85081e+07
1.85097e+07
1.85117e+07
1.85122e+07
1.85096e+07
1.85047e+07
1.85017e+07
1.85004e+07
1.84996e+07
1.84992e+07
1.85001e+07
1.85004e+07
1.85011e+07
1.85016e+07
1.85018e+07
1.85018e+07
1.85016e+07
1.85013e+07
1.85007e+07
1.84999e+07
1.84987e+07
1.84973e+07
1.84959e+07
1.84945e+07
1.84932e+07
1.84921e+07
1.84906e+07
1.84888e+07
1.84868e+07
1.84846e+07
1.84821e+07
1.84953e+07
1.84955e+07
1.84964e+07
1.84971e+07
1.84972e+07
1.84965e+07
1.84957e+07
1.84947e+07
1.84935e+07
1.84923e+07
1.84913e+07
1.84898e+07
1.84888e+07
1.84875e+07
1.84864e+07
1.84855e+07
1.84847e+07
1.84842e+07
1.84839e+07
1.84837e+07
1.84922e+07
1.84899e+07
1.84894e+07
1.84898e+07
1.84897e+07
1.84889e+07
1.84879e+07
1.84866e+07
1.84852e+07
1.84838e+07
1.84823e+07
1.84807e+07
1.84793e+07
1.84778e+07
1.84765e+07
1.84753e+07
1.84744e+07
1.84738e+07
1.84735e+07
1.8474e+07
1.84988e+07
1.84916e+07
1.849e+07
1.84928e+07
1.84968e+07
1.84999e+07
1.85022e+07
1.8505e+07
1.85085e+07
1.85122e+07
1.85156e+07
1.85187e+07
1.85221e+07
1.85257e+07
1.85292e+07
1.85328e+07
1.85363e+07
1.85398e+07
1.85434e+07
1.8547e+07
1.85507e+07
1.85543e+07
1.8558e+07
1.85617e+07
1.85653e+07
1.85691e+07
1.85728e+07
1.85765e+07
1.85803e+07
1.85841e+07
1.85878e+07
1.85915e+07
1.85953e+07
1.85991e+07
1.86029e+07
1.86067e+07
1.86105e+07
1.86143e+07
1.86181e+07
1.8622e+07
1.86259e+07
1.86297e+07
1.86336e+07
1.86375e+07
1.86414e+07
1.86454e+07
1.86493e+07
1.86533e+07
1.86572e+07
1.86612e+07
1.86652e+07
1.86692e+07
1.86732e+07
1.86772e+07
1.86812e+07
1.86853e+07
1.86893e+07
1.86934e+07
1.86975e+07
1.87016e+07
1.87057e+07
1.87098e+07
1.87139e+07
1.87181e+07
1.87222e+07
1.87264e+07
1.87305e+07
1.87347e+07
1.87389e+07
1.87431e+07
1.87473e+07
1.87515e+07
1.87558e+07
1.876e+07
1.87642e+07
1.87685e+07
1.87727e+07
1.8777e+07
1.87812e+07
1.87855e+07
1.87897e+07
1.8794e+07
1.87985e+07
1.8803e+07
1.88071e+07
1.88111e+07
1.88152e+07
1.88194e+07
1.88237e+07
1.8828e+07
1.88323e+07
1.88366e+07
1.88409e+07
1.88453e+07
1.88496e+07
1.8854e+07
1.88584e+07
1.88628e+07
1.88672e+07
1.88715e+07
1.88759e+07
1.88803e+07
1.88847e+07
1.88891e+07
1.88934e+07
1.88978e+07
1.89022e+07
1.89065e+07
1.89109e+07
1.89152e+07
1.89195e+07
1.89238e+07
1.89281e+07
1.89324e+07
1.89367e+07
1.89409e+07
1.89452e+07
1.89494e+07
1.89537e+07
1.89579e+07
1.89622e+07
1.89664e+07
1.89706e+07
1.89749e+07
1.89791e+07
1.89833e+07
1.89876e+07
1.89918e+07
1.8996e+07
1.90002e+07
1.90044e+07
1.90086e+07
1.90127e+07
1.90169e+07
1.9021e+07
1.90252e+07
1.90293e+07
1.90334e+07
1.90375e+07
1.90416e+07
1.90457e+07
1.90498e+07
1.90539e+07
1.90579e+07
1.90619e+07
1.90659e+07
1.90699e+07
1.90739e+07
1.90779e+07
1.90819e+07
1.90858e+07
1.90898e+07
1.90937e+07
1.90976e+07
1.91015e+07
1.91054e+07
1.91093e+07
1.91132e+07
1.91171e+07
1.91209e+07
1.91247e+07
1.91286e+07
1.91324e+07
1.91362e+07
1.914e+07
1.91438e+07
1.91476e+07
1.91514e+07
1.91551e+07
1.91589e+07
1.91626e+07
1.91663e+07
1.917e+07
1.91737e+07
1.91774e+07
1.91811e+07
1.91848e+07
1.91884e+07
1.9192e+07
1.91957e+07
1.91993e+07
1.92029e+07
1.92064e+07
1.921e+07
1.92135e+07
1.9217e+07
1.92205e+07
1.9224e+07
1.92275e+07
1.92309e+07
1.92344e+07
1.92378e+07
1.92412e+07
1.92445e+07
1.92479e+07
1.92512e+07
1.92545e+07
1.92578e+07
1.92611e+07
1.92644e+07
1.84979e+07
1.84915e+07
1.84901e+07
1.84928e+07
1.84968e+07
1.84999e+07
1.85022e+07
1.8505e+07
1.85086e+07
1.85122e+07
1.85156e+07
1.85187e+07
1.85221e+07
1.85257e+07
1.85292e+07
1.85328e+07
1.85363e+07
1.85398e+07
1.85434e+07
1.8547e+07
1.85507e+07
1.85543e+07
1.8558e+07
1.85617e+07
1.85653e+07
1.85691e+07
1.85728e+07
1.85765e+07
1.85803e+07
1.85841e+07
1.85878e+07
1.85915e+07
1.85953e+07
1.85991e+07
1.86029e+07
1.86067e+07
1.86105e+07
1.86143e+07
1.86181e+07
1.8622e+07
1.86259e+07
1.86297e+07
1.86336e+07
1.86375e+07
1.86414e+07
1.86454e+07
1.86493e+07
1.86533e+07
1.86572e+07
1.86612e+07
1.86652e+07
1.86692e+07
1.86732e+07
1.86772e+07
1.86812e+07
1.86853e+07
1.86893e+07
1.86934e+07
1.86975e+07
1.87016e+07
1.87057e+07
1.87098e+07
1.87139e+07
1.87181e+07
1.87222e+07
1.87264e+07
1.87305e+07
1.87347e+07
1.87389e+07
1.87431e+07
1.87473e+07
1.87515e+07
1.87558e+07
1.876e+07
1.87642e+07
1.87685e+07
1.87727e+07
1.8777e+07
1.87812e+07
1.87855e+07
1.87897e+07
1.8794e+07
1.87985e+07
1.8803e+07
1.88071e+07
1.88111e+07
1.88152e+07
1.88194e+07
1.88237e+07
1.88279e+07
1.88322e+07
1.88366e+07
1.88409e+07
1.88452e+07
1.88496e+07
1.8854e+07
1.88584e+07
1.88628e+07
1.88672e+07
1.88715e+07
1.88759e+07
1.88803e+07
1.88847e+07
1.88891e+07
1.88934e+07
1.88978e+07
1.89022e+07
1.89065e+07
1.89109e+07
1.89152e+07
1.89195e+07
1.89238e+07
1.89281e+07
1.89324e+07
1.89367e+07
1.89409e+07
1.89452e+07
1.89494e+07
1.89537e+07
1.89579e+07
1.89622e+07
1.89664e+07
1.89706e+07
1.89749e+07
1.89791e+07
1.89833e+07
1.89876e+07
1.89918e+07
1.8996e+07
1.90002e+07
1.90044e+07
1.90086e+07
1.90127e+07
1.90169e+07
1.9021e+07
1.90252e+07
1.90293e+07
1.90334e+07
1.90375e+07
1.90416e+07
1.90457e+07
1.90498e+07
1.90539e+07
1.90579e+07
1.90619e+07
1.90659e+07
1.90699e+07
1.90739e+07
1.90779e+07
1.90819e+07
1.90858e+07
1.90898e+07
1.90937e+07
1.90976e+07
1.91015e+07
1.91054e+07
1.91093e+07
1.91132e+07
1.91171e+07
1.91209e+07
1.91247e+07
1.91286e+07
1.91324e+07
1.91362e+07
1.914e+07
1.91438e+07
1.91476e+07
1.91514e+07
1.91551e+07
1.91589e+07
1.91626e+07
1.91663e+07
1.917e+07
1.91737e+07
1.91774e+07
1.91811e+07
1.91848e+07
1.91884e+07
1.9192e+07
1.91957e+07
1.91993e+07
1.92029e+07
1.92064e+07
1.921e+07
1.92135e+07
1.9217e+07
1.92205e+07
1.9224e+07
1.92275e+07
1.92309e+07
1.92344e+07
1.92378e+07
1.92412e+07
1.92445e+07
1.92479e+07
1.92512e+07
1.92545e+07
1.92578e+07
1.92611e+07
1.92644e+07
1.84755e+07
1.84824e+07
1.84882e+07
1.84919e+07
1.84949e+07
1.8498e+07
1.85013e+07
1.85048e+07
1.85082e+07
1.85116e+07
1.8515e+07
1.85185e+07
1.8522e+07
1.85255e+07
1.8529e+07
1.85326e+07
1.85362e+07
1.85398e+07
1.85434e+07
1.8547e+07
1.85507e+07
1.85543e+07
1.8558e+07
1.85617e+07
1.85654e+07
1.85691e+07
1.85728e+07
1.85765e+07
1.85802e+07
1.8584e+07
1.85877e+07
1.85915e+07
1.85953e+07
1.85991e+07
1.86029e+07
1.86067e+07
1.86105e+07
1.86143e+07
1.86181e+07
1.8622e+07
1.86259e+07
1.86297e+07
1.86336e+07
1.86375e+07
1.86415e+07
1.86454e+07
1.86493e+07
1.86533e+07
1.86572e+07
1.86612e+07
1.86652e+07
1.86692e+07
1.86732e+07
1.86772e+07
1.86813e+07
1.86853e+07
1.86894e+07
1.86934e+07
1.86975e+07
1.87016e+07
1.87057e+07
1.87098e+07
1.87139e+07
1.87181e+07
1.87222e+07
1.87264e+07
1.87305e+07
1.87347e+07
1.87389e+07
1.87431e+07
1.87473e+07
1.87516e+07
1.87558e+07
1.876e+07
1.87642e+07
1.87685e+07
1.87727e+07
1.8777e+07
1.87812e+07
1.87855e+07
1.87898e+07
1.8794e+07
1.87983e+07
1.88025e+07
1.88067e+07
1.88109e+07
1.88152e+07
1.88195e+07
1.88238e+07
1.88281e+07
1.88324e+07
1.88367e+07
1.88411e+07
1.88454e+07
1.88498e+07
1.88541e+07
1.88585e+07
1.88629e+07
1.88673e+07
1.88716e+07
1.8876e+07
1.88804e+07
1.88848e+07
1.88891e+07
1.88935e+07
1.88978e+07
1.89022e+07
1.89065e+07
1.89109e+07
1.89152e+07
1.89195e+07
1.89238e+07
1.89281e+07
1.89324e+07
1.89367e+07
1.89409e+07
1.89452e+07
1.89494e+07
1.89537e+07
1.89579e+07
1.89622e+07
1.89664e+07
1.89706e+07
1.89749e+07
1.89791e+07
1.89833e+07
1.89876e+07
1.89918e+07
1.8996e+07
1.90002e+07
1.90044e+07
1.90086e+07
1.90127e+07
1.90169e+07
1.9021e+07
1.90252e+07
1.90293e+07
1.90334e+07
1.90375e+07
1.90416e+07
1.90457e+07
1.90498e+07
1.90539e+07
1.90579e+07
1.90619e+07
1.90659e+07
1.90699e+07
1.90739e+07
1.90779e+07
1.90819e+07
1.90858e+07
1.90898e+07
1.90937e+07
1.90976e+07
1.91015e+07
1.91054e+07
1.91093e+07
1.91132e+07
1.91171e+07
1.91209e+07
1.91247e+07
1.91286e+07
1.91324e+07
1.91362e+07
1.914e+07
1.91438e+07
1.91476e+07
1.91514e+07
1.91551e+07
1.91589e+07
1.91626e+07
1.91663e+07
1.917e+07
1.91737e+07
1.91774e+07
1.91811e+07
1.91848e+07
1.91884e+07
1.9192e+07
1.91957e+07
1.91993e+07
1.92029e+07
1.92064e+07
1.921e+07
1.92135e+07
1.9217e+07
1.92205e+07
1.9224e+07
1.92275e+07
1.92309e+07
1.92344e+07
1.92378e+07
1.92412e+07
1.92445e+07
1.92479e+07
1.92512e+07
1.92545e+07
1.92578e+07
1.92611e+07
1.92643e+07
1.84828e+07
1.84852e+07
1.84882e+07
1.84913e+07
1.84944e+07
1.84975e+07
1.85008e+07
1.85043e+07
1.85077e+07
1.85112e+07
1.85146e+07
1.85181e+07
1.85217e+07
1.85252e+07
1.85288e+07
1.85324e+07
1.8536e+07
1.85396e+07
1.85432e+07
1.85469e+07
1.85505e+07
1.85542e+07
1.85579e+07
1.85616e+07
1.85653e+07
1.8569e+07
1.85727e+07
1.85765e+07
1.85802e+07
1.85839e+07
1.85877e+07
1.85915e+07
1.85953e+07
1.85991e+07
1.86029e+07
1.86067e+07
1.86105e+07
1.86143e+07
1.86182e+07
1.8622e+07
1.86259e+07
1.86298e+07
1.86336e+07
1.86375e+07
1.86415e+07
1.86454e+07
1.86493e+07
1.86533e+07
1.86572e+07
1.86612e+07
1.86652e+07
1.86692e+07
1.86732e+07
1.86772e+07
1.86813e+07
1.86853e+07
1.86894e+07
1.86934e+07
1.86975e+07
1.87016e+07
1.87057e+07
1.87098e+07
1.87139e+07
1.87181e+07
1.87222e+07
1.87264e+07
1.87306e+07
1.87347e+07
1.87389e+07
1.87431e+07
1.87473e+07
1.87516e+07
1.87558e+07
1.876e+07
1.87643e+07
1.87685e+07
1.87728e+07
1.8777e+07
1.87813e+07
1.87856e+07
1.87899e+07
1.87941e+07
1.87984e+07
1.88026e+07
1.88068e+07
1.88111e+07
1.88153e+07
1.88196e+07
1.88239e+07
1.88282e+07
1.88325e+07
1.88369e+07
1.88412e+07
1.88455e+07
1.88499e+07
1.88543e+07
1.88586e+07
1.8863e+07
1.88674e+07
1.88717e+07
1.88761e+07
1.88804e+07
1.88848e+07
1.88892e+07
1.88935e+07
1.88979e+07
1.89022e+07
1.89066e+07
1.89109e+07
1.89152e+07
1.89195e+07
1.89238e+07
1.89281e+07
1.89324e+07
1.89367e+07
1.89409e+07
1.89452e+07
1.89494e+07
1.89537e+07
1.89579e+07
1.89622e+07
1.89664e+07
1.89706e+07
1.89749e+07
1.89791e+07
1.89833e+07
1.89876e+07
1.89918e+07
1.8996e+07
1.90002e+07
1.90044e+07
1.90086e+07
1.90127e+07
1.90169e+07
1.9021e+07
1.90252e+07
1.90293e+07
1.90334e+07
1.90375e+07
1.90416e+07
1.90457e+07
1.90498e+07
1.90539e+07
1.90579e+07
1.90619e+07
1.90659e+07
1.90699e+07
1.90739e+07
1.90779e+07
1.90819e+07
1.90858e+07
1.90898e+07
1.90937e+07
1.90976e+07
1.91015e+07
1.91054e+07
1.91093e+07
1.91132e+07
1.91171e+07
1.91209e+07
1.91247e+07
1.91286e+07
1.91324e+07
1.91362e+07
1.914e+07
1.91438e+07
1.91476e+07
1.91514e+07
1.91551e+07
1.91589e+07
1.91626e+07
1.91663e+07
1.917e+07
1.91737e+07
1.91774e+07
1.91811e+07
1.91848e+07
1.91884e+07
1.9192e+07
1.91957e+07
1.91993e+07
1.92029e+07
1.92064e+07
1.921e+07
1.92135e+07
1.9217e+07
1.92205e+07
1.9224e+07
1.92275e+07
1.92309e+07
1.92344e+07
1.92378e+07
1.92412e+07
1.92445e+07
1.92479e+07
1.92512e+07
1.92545e+07
1.92578e+07
1.92611e+07
1.92643e+07
1.84811e+07
1.8485e+07
1.84882e+07
1.84913e+07
1.84944e+07
1.84975e+07
1.85008e+07
1.85043e+07
1.85077e+07
1.85112e+07
1.85146e+07
1.85181e+07
1.85217e+07
1.85252e+07
1.85288e+07
1.85324e+07
1.8536e+07
1.85396e+07
1.85432e+07
1.85469e+07
1.85505e+07
1.85542e+07
1.85579e+07
1.85616e+07
1.85653e+07
1.8569e+07
1.85727e+07
1.85765e+07
1.85802e+07
1.85839e+07
1.85877e+07
1.85915e+07
1.85953e+07
1.85991e+07
1.86029e+07
1.86067e+07
1.86105e+07
1.86143e+07
1.86182e+07
1.8622e+07
1.86259e+07
1.86298e+07
1.86336e+07
1.86375e+07
1.86415e+07
1.86454e+07
1.86493e+07
1.86533e+07
1.86572e+07
1.86612e+07
1.86652e+07
1.86692e+07
1.86732e+07
1.86772e+07
1.86813e+07
1.86853e+07
1.86894e+07
1.86934e+07
1.86975e+07
1.87016e+07
1.87057e+07
1.87098e+07
1.87139e+07
1.87181e+07
1.87222e+07
1.87264e+07
1.87306e+07
1.87347e+07
1.87389e+07
1.87431e+07
1.87473e+07
1.87516e+07
1.87558e+07
1.876e+07
1.87643e+07
1.87685e+07
1.87728e+07
1.8777e+07
1.87813e+07
1.87856e+07
1.87899e+07
1.87941e+07
1.87984e+07
1.88026e+07
1.88068e+07
1.88111e+07
1.88153e+07
1.88196e+07
1.88239e+07
1.88282e+07
1.88325e+07
1.88369e+07
1.88412e+07
1.88455e+07
1.88499e+07
1.88542e+07
1.88586e+07
1.8863e+07
1.88674e+07
1.88717e+07
1.88761e+07
1.88804e+07
1.88848e+07
1.88892e+07
1.88935e+07
1.88979e+07
1.89022e+07
1.89066e+07
1.89109e+07
1.89152e+07
1.89195e+07
1.89238e+07
1.89281e+07
1.89324e+07
1.89367e+07
1.89409e+07
1.89452e+07
1.89494e+07
1.89537e+07
1.89579e+07
1.89622e+07
1.89664e+07
1.89706e+07
1.89749e+07
1.89791e+07
1.89833e+07
1.89876e+07
1.89918e+07
1.8996e+07
1.90002e+07
1.90044e+07
1.90086e+07
1.90127e+07
1.90169e+07
1.9021e+07
1.90252e+07
1.90293e+07
1.90334e+07
1.90375e+07
1.90416e+07
1.90457e+07
1.90498e+07
1.90539e+07
1.90579e+07
1.90619e+07
1.90659e+07
1.90699e+07
1.90739e+07
1.90779e+07
1.90819e+07
1.90858e+07
1.90898e+07
1.90937e+07
1.90976e+07
1.91015e+07
1.91054e+07
1.91093e+07
1.91132e+07
1.91171e+07
1.91209e+07
1.91247e+07
1.91286e+07
1.91324e+07
1.91362e+07
1.914e+07
1.91438e+07
1.91476e+07
1.91514e+07
1.91551e+07
1.91589e+07
1.91626e+07
1.91663e+07
1.917e+07
1.91737e+07
1.91774e+07
1.91811e+07
1.91848e+07
1.91884e+07
1.9192e+07
1.91957e+07
1.91993e+07
1.92029e+07
1.92064e+07
1.921e+07
1.92135e+07
1.9217e+07
1.92205e+07
1.9224e+07
1.92275e+07
1.92309e+07
1.92344e+07
1.92378e+07
1.92412e+07
1.92445e+07
1.92479e+07
1.92512e+07
1.92545e+07
1.92578e+07
1.92611e+07
1.92643e+07
1.92662e+07
1.92666e+07
1.92671e+07
1.92677e+07
1.92683e+07
1.92688e+07
1.92692e+07
1.92697e+07
1.92701e+07
1.92705e+07
1.92709e+07
1.92714e+07
1.92718e+07
1.92723e+07
1.92727e+07
1.92731e+07
1.92735e+07
1.92739e+07
1.92743e+07
1.92748e+07
1.92665e+07
1.92671e+07
1.92677e+07
1.92683e+07
1.92689e+07
1.92694e+07
1.92699e+07
1.92704e+07
1.92708e+07
1.92713e+07
1.92717e+07
1.92722e+07
1.92727e+07
1.92732e+07
1.92736e+07
1.92741e+07
1.92746e+07
1.9275e+07
1.92754e+07
1.92759e+07
1.92663e+07
1.92671e+07
1.92679e+07
1.92686e+07
1.92693e+07
1.92699e+07
1.92705e+07
1.92711e+07
1.92717e+07
1.92723e+07
1.92729e+07
1.92734e+07
1.92738e+07
1.92742e+07
1.92746e+07
1.9275e+07
1.92754e+07
1.92758e+07
1.92762e+07
1.92766e+07
1.92665e+07
1.92674e+07
1.92683e+07
1.92691e+07
1.927e+07
1.92709e+07
1.92718e+07
1.92726e+07
1.92732e+07
1.92735e+07
1.9274e+07
1.92747e+07
1.92755e+07
1.92763e+07
1.92776e+07
1.92791e+07
1.92804e+07
1.92813e+07
1.92816e+07
1.92811e+07
1.92666e+07
1.92676e+07
1.92685e+07
1.92694e+07
1.92702e+07
1.92711e+07
1.9272e+07
1.92729e+07
1.92735e+07
1.92738e+07
1.92743e+07
1.9275e+07
1.92757e+07
1.92765e+07
1.92777e+07
1.92793e+07
1.92807e+07
1.92818e+07
1.92823e+07
1.92819e+07
1.92771e+07
1.92808e+07
1.92837e+07
1.92864e+07
1.92892e+07
1.92921e+07
1.9295e+07
1.92977e+07
1.93005e+07
1.93033e+07
1.93061e+07
1.93088e+07
1.93116e+07
1.93144e+07
1.93172e+07
1.93199e+07
1.93225e+07
1.93253e+07
1.93281e+07
1.93308e+07
1.93334e+07
1.93359e+07
1.93385e+07
1.93412e+07
1.93439e+07
1.93465e+07
1.9349e+07
1.93515e+07
1.9354e+07
1.93566e+07
1.93592e+07
1.93617e+07
1.93642e+07
1.93666e+07
1.93691e+07
1.93715e+07
1.93739e+07
1.93763e+07
1.93787e+07
1.9381e+07
1.93833e+07
1.93856e+07
1.93879e+07
1.93902e+07
1.93924e+07
1.93946e+07
1.93968e+07
1.9399e+07
1.94011e+07
1.94032e+07
1.94053e+07
1.94074e+07
1.94095e+07
1.94115e+07
1.94135e+07
1.94155e+07
1.94175e+07
1.94194e+07
1.94214e+07
1.94233e+07
1.94252e+07
1.94271e+07
1.94289e+07
1.94308e+07
1.94326e+07
1.94344e+07
1.94362e+07
1.9438e+07
1.94397e+07
1.94415e+07
1.94432e+07
1.94448e+07
1.94465e+07
1.94482e+07
1.94499e+07
1.94515e+07
1.94531e+07
1.94547e+07
1.94564e+07
1.94579e+07
1.94595e+07
1.94611e+07
1.94627e+07
1.94642e+07
1.94658e+07
1.94673e+07
1.94689e+07
1.94704e+07
1.94719e+07
1.94735e+07
1.9475e+07
1.94764e+07
1.94779e+07
1.94793e+07
1.94807e+07
1.9482e+07
1.94834e+07
1.94847e+07
1.9486e+07
1.94871e+07
1.92773e+07
1.92808e+07
1.92837e+07
1.92864e+07
1.92891e+07
1.92921e+07
1.9295e+07
1.92977e+07
1.93004e+07
1.93033e+07
1.93061e+07
1.93088e+07
1.93116e+07
1.93144e+07
1.93173e+07
1.93199e+07
1.93225e+07
1.93253e+07
1.93281e+07
1.93308e+07
1.93334e+07
1.93359e+07
1.93385e+07
1.93412e+07
1.93439e+07
1.93466e+07
1.9349e+07
1.93515e+07
1.9354e+07
1.93566e+07
1.93592e+07
1.93617e+07
1.93642e+07
1.93666e+07
1.93691e+07
1.93715e+07
1.93739e+07
1.93763e+07
1.93787e+07
1.9381e+07
1.93833e+07
1.93856e+07
1.93879e+07
1.93902e+07
1.93924e+07
1.93946e+07
1.93968e+07
1.9399e+07
1.94011e+07
1.94032e+07
1.94053e+07
1.94074e+07
1.94095e+07
1.94115e+07
1.94135e+07
1.94155e+07
1.94175e+07
1.94194e+07
1.94214e+07
1.94233e+07
1.94252e+07
1.94271e+07
1.94289e+07
1.94308e+07
1.94326e+07
1.94344e+07
1.94362e+07
1.9438e+07
1.94397e+07
1.94415e+07
1.94432e+07
1.94448e+07
1.94465e+07
1.94482e+07
1.94499e+07
1.94515e+07
1.94531e+07
1.94548e+07
1.94564e+07
1.9458e+07
1.94595e+07
1.94611e+07
1.94627e+07
1.94642e+07
1.94658e+07
1.94673e+07
1.94689e+07
1.94704e+07
1.94719e+07
1.94735e+07
1.9475e+07
1.94764e+07
1.94779e+07
1.94793e+07
1.94807e+07
1.9482e+07
1.94834e+07
1.94847e+07
1.9486e+07
1.94871e+07
1.92778e+07
1.9282e+07
1.92847e+07
1.92873e+07
1.92902e+07
1.92931e+07
1.9296e+07
1.92986e+07
1.93014e+07
1.93043e+07
1.9307e+07
1.93096e+07
1.93124e+07
1.93152e+07
1.9318e+07
1.93205e+07
1.93231e+07
1.93258e+07
1.93286e+07
1.93315e+07
1.93338e+07
1.93362e+07
1.93389e+07
1.93416e+07
1.93443e+07
1.9347e+07
1.93493e+07
1.93517e+07
1.93543e+07
1.93569e+07
1.93594e+07
1.93619e+07
1.93644e+07
1.93669e+07
1.93693e+07
1.93717e+07
1.93741e+07
1.93764e+07
1.93788e+07
1.93811e+07
1.93834e+07
1.93857e+07
1.9388e+07
1.93902e+07
1.93924e+07
1.93946e+07
1.93968e+07
1.9399e+07
1.94011e+07
1.94032e+07
1.94053e+07
1.94074e+07
1.94095e+07