/*--------------------------------*- C++ -*----------------------------------*\
| =========                 |                                                 |
| \\      /  F ield         | OpenFOAM: The Open Source CFD Toolbox           |
|  \\    /   O peration     | Version:  3.0.x                                 |
|   \\  /    A nd           | Web:      www.OpenFOAM.org                      |
|    \\/     M anipulation  |                                                 |
\*---------------------------------------------------------------------------*/
FoamFile
{
    version     2.0;
    format      ascii;
    class       surfaceScalarField;
    location    "0.47";
    object      phi;
}
// * * * * * * * * * * * * * * * * * * * * * * * * * * * * * * * * * * * * * //

dimensions      [1 0 -1 0 0 0 0];

internalField   nonuniform List<scalar> 
12415
(
5.79834
0.000327746
5.79788
0.000235108
5.79742
0.00022467
5.79696
0.00022672
5.7965
0.000227114
5.79605
0.000226942
5.79559
0.000226889
5.79514
0.000226896
5.79469
0.000226901
5.79425
0.000226903
5.79381
0.000226906
5.79338
0.000226909
5.79295
0.000226911
5.79252
0.000226912
5.79209
0.000226913
5.79166
0.000226914
5.79124
0.000226914
5.79081
0.000226914
5.79038
0.000226915
5.78994
0.000226915
5.78949
0.000226915
5.78902
0.000226915
5.78855
0.000226917
5.78805
0.00022692
5.78753
0.000226924
5.78698
0.000226931
5.78641
0.000226941
5.7858
0.000226955
5.78517
0.000226973
5.78449
0.000226996
5.78378
0.000227026
5.78303
0.000227063
5.78223
0.000227106
5.7814
0.000227157
5.78053
0.000227212
5.77962
0.000227155
5.77867
0.000227488
5.7777
0.000227418
5.77669
0.000227516
5.77563
0.000227615
5.77454
0.000227781
5.77341
0.000227654
5.77225
0.000227884
5.77106
0.000228144
5.76984
0.000228142
5.7686
0.000228251
5.76734
0.000228367
5.76606
0.000228481
5.76476
0.0002285
5.76344
0.000228875
5.76211
0.000228756
5.76075
0.000228916
5.75937
0.000229002
5.75796
0.000229063
5.75651
0.000229092
5.75502
0.000229122
5.75349
0.000228944
5.75191
0.000228682
5.75027
0.000228598
5.74858
0.000228057
5.74683
0.000227414
5.74502
0.000226542
5.74314
0.000225383
5.74119
0.000223885
5.73916
0.000221988
5.73705
0.00021963
5.73485
0.000216755
5.73256
0.000213303
5.73018
0.000209228
5.7277
0.000204486
5.72513
0.000199053
5.72247
0.000192914
5.71972
0.000186075
5.71688
0.00017856
5.71395
0.000170412
5.71095
0.000161693
5.70787
0.000152484
5.70472
0.000142878
5.7015
0.000132986
5.69823
0.000122922
5.69489
0.000112808
5.6915
0.000102765
5.68806
9.29094e-05
5.68458
8.33505e-05
5.68104
7.41858e-05
5.67747
6.54985e-05
5.67385
5.73564e-05
5.67018
4.98097e-05
5.66647
4.28916e-05
5.66271
3.66187e-05
5.65889
3.0992e-05
5.65502
2.59987e-05
5.65108
2.16144e-05
5.64708
1.78055e-05
5.643
1.45311e-05
5.63884
1.17458e-05
5.6346
9.40151e-06
5.63025
7.44917e-06
5.62581
5.84075e-06
5.62126
4.53026e-06
5.61659
3.47463e-06
5.6118
2.63451e-06
5.60689
1.97447e-06
5.60185
1.46322e-06
5.59668
1.07349e-06
5.59137
7.81765e-07
5.58592
5.68099e-07
5.58034
4.15808e-07
5.57463
3.10643e-07
5.56878
2.41065e-07
5.56281
1.97935e-07
5.55671
1.74008e-07
5.5505
1.63715e-07
5.54417
1.62663e-07
5.53774
1.67596e-07
5.53121
1.75771e-07
5.52458
1.85515e-07
5.51788
1.95621e-07
5.51109
2.05497e-07
5.50423
2.14617e-07
5.49731
2.22894e-07
5.49031
2.30182e-07
5.48326
2.36772e-07
5.47614
2.43008e-07
5.46895
2.49382e-07
5.46171
2.56334e-07
5.45439
2.64114e-07
5.44701
2.73036e-07
5.43955
2.83349e-07
5.432
2.95318e-07
5.42438
3.09314e-07
5.41666
3.25439e-07
5.40884
3.43953e-07
5.40092
3.64904e-07
5.39288
3.88229e-07
5.38473
4.13916e-07
5.37644
4.41902e-07
5.36803
4.72168e-07
5.35947
5.04688e-07
5.35076
5.39252e-07
5.34191
5.75592e-07
5.33289
6.13325e-07
5.32372
6.52182e-07
5.31439
6.91696e-07
5.30489
7.31148e-07
5.29523
7.69929e-07
5.28541
8.07398e-07
5.27543
8.42771e-07
5.2653
8.75421e-07
5.25503
9.04825e-07
5.24463
9.30506e-07
5.2341
9.52141e-07
5.22346
9.69379e-07
5.21271
9.81981e-07
5.20186
9.90014e-07
5.19093
9.93843e-07
5.17992
9.93963e-07
5.16884
9.91331e-07
5.1577
9.86585e-07
5.14648
9.80101e-07
5.13521
9.72761e-07
5.12387
9.65387e-07
5.11247
9.58868e-07
5.10099
9.53556e-07
5.08944
9.50095e-07
5.07781
9.48385e-07
5.0661
9.48921e-07
5.0543
9.5105e-07
5.04241
9.55137e-07
5.03042
9.60174e-07
5.01833
9.66606e-07
5.00613
9.74109e-07
4.99382
9.83131e-07
4.9814
9.93161e-07
4.96887
1.00537e-06
4.95621
1.01782e-06
4.94341
1.03393e-06
4.93048
1.04967e-06
4.91741
1.0718e-06
4.90418
1.09188e-06
4.89079
1.12103e-06
4.87724
1.14313e-06
4.86351
1.17971e-06
4.84961
1.19826e-06
4.83553
1.24751e-06
4.82128
1.24389e-06
4.80686
1.32979e-06
4.79227
1.25973e-06
4.77751
1.4303e-06
4.76261
1.24047e-06
4.74755
1.55525e-06
4.73236
1.23876e-06
4.71704
2.3439e-06
4.70162
4.99809e-06
4.68606
3.06816e-05
4.67026
0.00019646
4.65322
0.00134764
4.62826
0.0092248
4.53822
0.0742594
0.341058
4.1813
11.5975
0.000260507
11.597
0.000215804
11.5966
0.000189399
11.5962
0.000194021
11.5957
0.000195334
11.5953
0.000194751
11.5949
0.000194591
11.5945
0.000194608
11.594
0.000194619
11.5936
0.000194625
11.5933
0.000194633
11.5929
0.000194643
11.5925
0.000194654
11.5921
0.000194664
11.5918
0.000194674
11.5914
0.000194685
11.591
0.000194695
11.5906
0.000194706
11.5903
0.000194717
11.5899
0.000194727
11.5895
0.000194738
11.589
0.000194749
11.5885
0.000194761
11.588
0.000194775
11.5875
0.00019479
11.5869
0.000194807
11.5862
0.000194826
11.5855
0.000194849
11.5847
0.000194875
11.5838
0.000194907
11.5829
0.000194943
11.5819
0.000194986
11.5808
0.000195034
11.5796
0.000195089
11.5783
0.000195143
11.577
0.000195136
11.5756
0.000195376
11.5741
0.000195371
11.5726
0.000195446
11.571
0.000195554
11.5693
0.000195682
11.5675
0.000195642
11.5657
0.000195814
11.5638
0.000196024
11.5618
0.000196066
11.5598
0.000196162
11.5578
0.000196275
11.5557
0.00019638
11.5536
0.000196431
11.5515
0.000196715
11.5493
0.000196673
11.5471
0.0001968
11.5448
0.000196888
11.5425
0.00019695
11.5401
0.000196987
11.5376
0.00019701
11.535
0.000196878
11.5323
0.000196665
11.5295
0.000196568
11.5266
0.000196126
11.5236
0.000195565
11.5205
0.00019481
11.5172
0.000193803
11.5138
0.000192499
11.5102
0.000190848
11.5065
0.000188793
11.5025
0.000186291
11.4984
0.000183283
11.4941
0.000179736
11.4896
0.00017561
11.4848
0.000170885
11.4799
0.00016555
11.4748
0.000159612
11.4695
0.000153093
11.464
0.00014603
11.4584
0.00013848
11.4526
0.000130513
11.4466
0.000122212
11.4404
0.000113672
11.4341
0.000104994
11.4277
9.62823e-05
11.4211
8.76414e-05
11.4145
7.91717e-05
11.4077
7.09665e-05
11.4008
6.31088e-05
11.3937
5.56694e-05
11.3866
4.87049e-05
11.3794
4.22575e-05
11.3721
3.63542e-05
11.3646
3.10077e-05
11.3571
2.62177e-05
11.3494
2.19721e-05
11.3415
1.82487e-05
11.3336
1.50178e-05
11.3255
1.22438e-05
11.3172
9.88709e-06
11.3087
7.90599e-06
11.3
6.25836e-06
11.2911
4.90301e-06
11.282
3.80047e-06
11.2727
2.91374e-06
11.2631
2.20931e-06
11.2533
1.65675e-06
11.2432
1.22908e-06
11.2329
9.03143e-07
11.2223
6.59076e-07
11.2114
4.80371e-07
11.2002
3.53296e-07
11.1888
2.65217e-07
11.1771
2.06509e-07
11.1652
1.69862e-07
11.153
1.49412e-07
11.1405
1.40619e-07
11.1279
1.39759e-07
11.115
1.44172e-07
11.102
1.51194e-07
11.0887
1.59522e-07
11.0753
1.68138e-07
11.0617
1.76616e-07
11.048
1.8438e-07
11.0342
1.9149e-07
11.0202
1.97703e-07
11.0061
2.03389e-07
10.9918
2.08714e-07
10.9775
2.14216e-07
10.963
2.20155e-07
10.9483
2.26862e-07
10.9336
2.34508e-07
10.9186
2.43369e-07
10.9036
2.53655e-07
10.8883
2.65663e-07
10.8729
2.79515e-07
10.8572
2.95402e-07
10.8414
3.13373e-07
10.8253
3.33408e-07
10.809
3.55436e-07
10.7924
3.79475e-07
10.7756
4.05435e-07
10.7585
4.3335e-07
10.7411
4.63e-07
10.7234
4.94194e-07
10.7053
5.26577e-07
10.687
5.59914e-07
10.6683
5.93821e-07
10.6493
6.27669e-07
10.63
6.60953e-07
10.6104
6.93121e-07
10.5904
7.23403e-07
10.5702
7.51502e-07
10.5496
7.76701e-07
10.5288
7.98737e-07
10.5078
8.17285e-07
10.4865
8.32124e-07
10.465
8.4294e-07
10.4433
8.49823e-07
10.4214
8.53154e-07
10.3994
8.53236e-07
10.3773
8.50937e-07
10.355
8.46976e-07
10.3326
8.41474e-07
10.31
8.35229e-07
10.2873
8.28733e-07
10.2645
8.23194e-07
10.2416
8.18668e-07
10.2185
8.15943e-07
10.1952
8.14124e-07
10.1718
8.14834e-07
10.1482
8.16481e-07
10.1244
8.2045e-07
10.1004
8.24323e-07
10.0763
8.29946e-07
10.0519
8.36302e-07
10.0273
8.4455e-07
10.0024
8.52483e-07
9.97735
8.64046e-07
9.95202
8.72892e-07
9.92644
8.89181e-07
9.90059
8.99295e-07
9.87444
9.22924e-07
9.84798
9.34238e-07
9.82121
9.67574e-07
9.7941
9.74834e-07
9.76665
1.02285e-06
9.73885
1.01375e-06
9.7107
1.09745e-06
9.6822
1.02214e-06
9.65335
1.21993e-06
9.62417
9.55335e-07
9.59467
1.41503e-06
9.56486
8.09976e-07
9.53475
1.71405e-06
9.50437
7.45786e-07
9.47374
4.0337e-06
9.44289
1.18679e-05
9.41178
8.81862e-05
9.38018
0.000580157
9.34616
0.00399627
9.29669
0.0272132
9.14733
0.192053
0.844446
8.61223
139.169
-0.000260507
139.164
-0.000215804
139.159
-0.000189399
139.154
-0.000194021
139.149
-0.000195334
139.143
-0.000194751
139.138
-0.000194591
139.133
-0.000194608
139.128
-0.000194619
139.124
-0.000194625
139.119
-0.000194633
139.114
-0.000194643
139.11
-0.000194654
139.105
-0.000194664
139.101
-0.000194674
139.097
-0.000194685
139.092
-0.000194695
139.088
-0.000194706
139.083
-0.000194717
139.078
-0.000194727
139.073
-0.000194738
139.068
-0.000194749
139.062
-0.000194761
139.056
-0.000194775
139.05
-0.00019479
139.042
-0.000194807
139.034
-0.000194826
139.026
-0.000194849
139.016
-0.000194875
139.006
-0.000194907
138.995
-0.000194943
138.982
-0.000194986
138.969
-0.000195034
138.955
-0.000195089
138.94
-0.000195143
138.924
-0.000195136
138.907
-0.000195376
138.89
-0.000195371
138.871
-0.000195446
138.852
-0.000195554
138.831
-0.000195682
138.81
-0.000195642
138.788
-0.000195814
138.765
-0.000196024
138.742
-0.000196066
138.718
-0.000196162
138.694
-0.000196275
138.669
-0.00019638
138.644
-0.000196431
138.618
-0.000196715
138.592
-0.000196673
138.565
-0.0001968
138.538
-0.000196888
138.51
-0.00019695
138.481
-0.000196987
138.451
-0.00019701
138.42
-0.000196878
138.388
-0.000196665
138.355
-0.000196568
138.32
-0.000196126
138.284
-0.000195565
138.246
-0.00019481
138.207
-0.000193803
138.166
-0.000192499
138.123
-0.000190848
138.078
-0.000188793
138.03
-0.000186291
137.981
-0.000183283
137.929
-0.000179736
137.875
-0.00017561
137.818
-0.000170885
137.759
-0.00016555
137.698
-0.000159612
137.635
-0.000153093
137.569
-0.00014603
137.501
-0.00013848
137.431
-0.000130513
137.359
-0.000122212
137.285
-0.000113672
137.21
-0.000104994
137.133
-9.62823e-05
137.054
-8.76414e-05
136.974
-7.91717e-05
136.892
-7.09665e-05
136.809
-6.31088e-05
136.725
-5.56694e-05
136.64
-4.87049e-05
136.553
-4.22575e-05
136.465
-3.63542e-05
136.376
-3.10077e-05
136.285
-2.62178e-05
136.193
-2.19721e-05
136.099
-1.82487e-05
136.003
-1.50178e-05
135.906
-1.22438e-05
135.806
-9.88709e-06
135.704
-7.906e-06
135.6
-6.25836e-06
135.494
-4.90301e-06
135.385
-3.80047e-06
135.273
-2.91374e-06
135.158
-2.20931e-06
135.04
-1.65674e-06
134.919
-1.22908e-06
134.795
-9.03144e-07
134.668
-6.59076e-07
134.537
-4.80368e-07
134.403
-3.53295e-07
134.266
-2.65213e-07
134.126
-2.06511e-07
133.982
-1.69863e-07
133.836
-1.49411e-07
133.687
-1.4061e-07
133.535
-1.39761e-07
133.38
-1.44168e-07
133.224
-1.512e-07
133.065
-1.59514e-07
132.904
-1.68148e-07
132.741
-1.76608e-07
132.576
-1.84391e-07
132.41
-1.91473e-07
132.242
-1.97717e-07
132.073
-2.03378e-07
131.902
-2.08729e-07
131.73
-2.14205e-07
131.556
-2.20171e-07
131.38
-2.26849e-07
131.203
-2.34515e-07
131.024
-2.43357e-07
130.843
-2.53674e-07
130.66
-2.65643e-07
130.475
-2.79517e-07
130.287
-2.95408e-07
130.097
-3.13375e-07
129.904
-3.33393e-07
129.708
-3.55464e-07
129.509
-3.79418e-07
129.307
-4.05515e-07
129.102
-4.33275e-07
128.893
-4.63048e-07
128.681
-4.94148e-07
128.464
-5.26624e-07
128.244
-5.5991e-07
128.02
-5.9376e-07
127.792
-6.27701e-07
127.56
-6.61024e-07
127.325
-6.92974e-07
127.085
-7.23589e-07
126.842
-7.51341e-07
126.596
-7.76711e-07
126.346
-7.98806e-07
126.093
-8.17379e-07
125.838
-8.31988e-07
125.58
-8.43009e-07
125.32
-8.49653e-07
125.057
-8.53224e-07
124.793
-8.53241e-07
124.527
-8.5143e-07
124.26
-8.46877e-07
123.991
-8.41011e-07
123.72
-8.34632e-07
123.448
-8.29393e-07
123.174
-8.23582e-07
122.899
-8.18905e-07
122.622
-8.14667e-07
122.343
-8.15338e-07
122.062
-8.14104e-07
121.779
-8.17699e-07
121.493
-8.18386e-07
121.205
-8.25626e-07
120.915
-8.29073e-07
120.623
-8.38528e-07
120.327
-8.42102e-07
120.029
-8.5489e-07
119.728
-8.59827e-07
119.424
-8.78609e-07
119.117
-8.82207e-07
118.807
-9.09008e-07
118.493
-9.09449e-07
118.176
-9.519e-07
117.855
-9.44206e-07
117.529
-1.00783e-06
117.2
-9.73137e-07
116.866
-1.09111e-06
116.529
-9.68528e-07
116.187
-1.24259e-06
115.84
-8.42801e-07
115.49
-1.55221e-06
115.136
-4.96721e-07
114.778
-2.08065e-06
114.417
7.43157e-08
114.053
-2.41078e-06
113.685
2.79765e-06
113.315
1.21662e-05
112.942
0.000108178
112.567
0.000745098
112.19
0.00522866
111.803
0.0367117
111.325
0.290403
1.16903
110.621
11.5975
-0.000327746
11.597
-0.000235108
11.5966
-0.00022467
11.5962
-0.00022672
11.5957
-0.000227114
11.5953
-0.000226942
11.5949
-0.000226889
11.5945
-0.000226896
11.594
-0.000226901
11.5936
-0.000226903
11.5933
-0.000226906
11.5929
-0.000226909
11.5925
-0.000226911
11.5921
-0.000226912
11.5918
-0.000226913
11.5914
-0.000226914
11.591
-0.000226914
11.5906
-0.000226914
11.5903
-0.000226915
11.5899
-0.000226915
11.5895
-0.000226915
11.589
-0.000226915
11.5885
-0.000226917
11.588
-0.00022692
11.5875
-0.000226924
11.5869
-0.000226931
11.5862
-0.000226941
11.5855
-0.000226955
11.5847
-0.000226973
11.5838
-0.000226996
11.5829
-0.000227026
11.5819
-0.000227063
11.5808
-0.000227106
11.5796
-0.000227157
11.5783
-0.000227212
11.577
-0.000227155
11.5756
-0.000227488
11.5741
-0.000227418
11.5726
-0.000227516
11.571
-0.000227615
11.5693
-0.000227781
11.5675
-0.000227654
11.5657
-0.000227884
11.5638
-0.000228144
11.5618
-0.000228142
11.5598
-0.000228251
11.5578
-0.000228367
11.5557
-0.000228481
11.5536
-0.0002285
11.5515
-0.000228875
11.5493
-0.000228756
11.5471
-0.000228916
11.5448
-0.000229002
11.5425
-0.000229063
11.5401
-0.000229092
11.5376
-0.000229122
11.535
-0.000228944
11.5323
-0.000228682
11.5295
-0.000228598
11.5266
-0.000228057
11.5236
-0.000227414
11.5205
-0.000226542
11.5172
-0.000225383
11.5138
-0.000223885
11.5102
-0.000221988
11.5065
-0.00021963
11.5025
-0.000216755
11.4984
-0.000213303
11.4941
-0.000209228
11.4896
-0.000204486
11.4848
-0.000199053
11.4799
-0.000192914
11.4748
-0.000186075
11.4695
-0.00017856
11.464
-0.000170412
11.4584
-0.000161693
11.4526
-0.000152484
11.4466
-0.000142878
11.4404
-0.000132986
11.4341
-0.000122922
11.4277
-0.000112808
11.4211
-0.000102765
11.4145
-9.29094e-05
11.4077
-8.33505e-05
11.4008
-7.41858e-05
11.3937
-6.54985e-05
11.3866
-5.73564e-05
11.3794
-4.98097e-05
11.3721
-4.28916e-05
11.3646
-3.66187e-05
11.3571
-3.0992e-05
11.3494
-2.59987e-05
11.3415
-2.16144e-05
11.3336
-1.78055e-05
11.3255
-1.45311e-05
11.3172
-1.17458e-05
11.3087
-9.40151e-06
11.3
-7.44917e-06
11.2911
-5.84075e-06
11.282
-4.53026e-06
11.2727
-3.47463e-06
11.2631
-2.63451e-06
11.2533
-1.97447e-06
11.2432
-1.46322e-06
11.2329
-1.07349e-06
11.2223
-7.81765e-07
11.2114
-5.68099e-07
11.2002
-4.1581e-07
11.1888
-3.10643e-07
11.1771
-2.41069e-07
11.1652
-1.97933e-07
11.153
-1.74008e-07
11.1405
-1.63707e-07
11.1279
-1.62667e-07
11.115
-1.67593e-07
11.102
-1.75778e-07
11.0887
-1.85508e-07
11.0753
-1.95632e-07
11.0617
-2.05489e-07
11.048
-2.14624e-07
11.0342
-2.22884e-07
11.0202
-2.30186e-07
11.0061
-2.36769e-07
10.9918
-2.43006e-07
10.9775
-2.49387e-07
10.963
-2.56323e-07
10.9483
-2.64121e-07
10.9336
-2.73032e-07
10.9186
-2.83337e-07
10.9036
-2.95342e-07
10.8883
-3.09285e-07
10.8729
-3.25448e-07
10.8572
-3.4396e-07
10.8414
-3.64895e-07
10.8253
-3.88229e-07
10.809
-4.13924e-07
10.7924
-4.41882e-07
10.7756
-4.72204e-07
10.7585
-5.04655e-07
10.7411
-5.39261e-07
10.7234
-5.75568e-07
10.7053
-6.13365e-07
10.687
-6.52188e-07
10.6683
-6.91638e-07
10.6493
-7.31146e-07
10.63
-7.69998e-07
10.6104
-8.07377e-07
10.5904
-8.42792e-07
10.5702
-8.75345e-07
10.5496
-9.04825e-07
10.5288
-9.30571e-07
10.5078
-9.52177e-07
10.4865
-9.69305e-07
10.465
-9.81976e-07
10.4433
-9.89947e-07
10.4214
-9.93896e-07
10.3994
-9.94052e-07
10.3773
-9.91537e-07
10.355
-9.86451e-07
10.3326
-9.79855e-07
10.31
-9.72575e-07
10.2873
-9.65671e-07
10.2645
-9.5904e-07
10.2416
-9.53611e-07
10.2185
-9.49625e-07
10.1952
-9.48789e-07
10.1718
-9.48759e-07
10.1482
-9.51508e-07
10.1244
-9.54398e-07
10.1004
-9.60486e-07
10.0763
-9.66236e-07
10.0519
-9.74884e-07
10.0273
-9.82453e-07
10.0024
-9.94107e-07
9.97735
-1.00395e-06
9.95202
-1.01969e-06
9.92644
-1.03141e-06
9.90059
-1.05293e-06
9.87444
-1.06709e-06
9.84798
-1.09797e-06
9.82121
-1.11305e-06
9.7941
-1.15455e-06
9.76665
-1.16281e-06
9.73885
-1.22493e-06
9.7107
-1.20303e-06
9.6822
-1.32044e-06
9.65335
-1.19797e-06
9.62417
-1.46957e-06
9.59467
-1.10552e-06
9.56485
-1.6934e-06
9.53475
-9.15974e-07
9.50437
-1.84831e-06
9.47375
2.1806e-08
9.4429
3.13536e-06
9.41194
3.6121e-05
9.3812
0.000254628
9.35326
0.00180723
9.34524
0.0132399
9.45658
0.147491
0.526411
10.0676
5.79834
5.79788
5.79742
5.79696
5.7965
5.79605
5.79559
5.79514
5.79469
5.79425
5.79381
5.79338
5.79295
5.79252
5.79209
5.79166
5.79124
5.79081
5.79038
5.78994
5.78949
5.78902
5.78855
5.78805
5.78753
5.78698
5.78641
5.7858
5.78517
5.78449
5.78378
5.78303
5.78223
5.7814
5.78053
5.77962
5.77867
5.7777
5.77669
5.77563
5.77454
5.77341
5.77225
5.77106
5.76984
5.7686
5.76734
5.76606
5.76476
5.76344
5.76211
5.76075
5.75937
5.75796
5.75651
5.75502
5.75349
5.75191
5.75027
5.74858
5.74683
5.74502
5.74314
5.74119
5.73916
5.73705
5.73485
5.73256
5.73018
5.7277
5.72513
5.72247
5.71972
5.71688
5.71395
5.71095
5.70787
5.70472
5.7015
5.69823
5.69489
5.6915
5.68806
5.68458
5.68104
5.67747
5.67385
5.67018
5.66647
5.66271
5.65889
5.65502
5.65108
5.64708
5.643
5.63884
5.6346
5.63025
5.62581
5.62126
5.61659
5.6118
5.60689
5.60185
5.59668
5.59137
5.58592
5.58034
5.57463
5.56878
5.56281
5.55671
5.5505
5.54417
5.53774
5.53121
5.52458
5.51788
5.51109
5.50423
5.49731
5.49031
5.48326
5.47614
5.46895
5.46171
5.45439
5.44701
5.43955
5.432
5.42438
5.41666
5.40884
5.40092
5.39288
5.38473
5.37644
5.36803
5.35947
5.35076
5.34191
5.33289
5.32372
5.31439
5.30489
5.29523
5.28541
5.27543
5.2653
5.25503
5.24463
5.2341
5.22346
5.21271
5.20186
5.19093
5.17992
5.16884
5.1577
5.14648
5.13521
5.12387
5.11247
5.10099
5.08944
5.07781
5.0661
5.0543
5.04241
5.03042
5.01833
5.00613
4.99382
4.9814
4.96887
4.95621
4.94341
4.93048
4.91741
4.90418
4.89079
4.87724
4.86351
4.84961
4.83553
4.82128
4.80686
4.79227
4.77751
4.7626
4.74755
4.73236
4.71705
4.70163
4.68614
4.67078
4.65691
4.6544
4.78611
5.29678
4.07802
0.0993288
4.08363
-0.00955381
4.08146
-0.0017803
4.0908
-0.0133185
4.12021
-0.0334236
4.16393
-0.0477793
4.17817
-0.0183234
4.14879
0.025265
4.08724
0.0573671
4.04454
0.0383866
4.18622
-0.14533
4.52076
-0.338244
4.92298
-0.406547
5.18095
-0.262704
5.1613
0.0148011
5.02518
0.131736
4.83069
0.190236
4.59659
0.229776
4.41595
0.176713
-0.620358
5.0332
8.5703
0.13353
8.58268
-0.02965
8.62415
-0.0509847
8.67957
-0.076525
8.7721
-0.13379
8.90014
-0.183755
8.96766
-0.0938055
8.95184
0.0330744
8.86413
0.136938
8.76438
0.129582
8.98577
-0.373697
9.56285
-0.922714
10.3596
-1.21193
11.0138
-0.92674
11.1778
-0.158498
11.0824
0.218863
10.7904
0.47398
10.3186
0.693403
9.69524
0.792353
-1.1972
10.266
110.59
0.0920808
110.56
-0.0716983
110.448
-0.0116958
110.19
0.109177
109.771
0.211755
109.259
0.254147
108.796
0.296439
108.45
0.306101
108.204
0.309857
107.959
0.301144
107.201
0.310981
105.922
0.2812
104.353
0.28417
103.099
0.254465
102.648
0.219954
102.605
0.186545
102.848
0.154519
103.344
0.120149
103.988
0.0694463
-0.0522198
102.763
10.0106
0.144662
9.93655
-0.00206416
9.91686
0.00372097
9.99095
0.0309462
10.1439
0.0548043
10.3259
0.068485
10.5363
0.0816975
10.7515
0.0865802
10.9681
0.0887519
11.1771
0.0878488
11.393
0.0901838
11.5872
0.0829361
11.7858
0.0810567
11.966
0.069655
12.1264
0.0549924
12.2692
0.0392705
12.397
0.0222892
12.5144
-0.00178417
12.6269
-0.0475988
-0.180092
12.7502
5.4393
5.43514
5.4368
5.46574
5.51863
5.58529
5.66492
5.74938
5.83599
5.9217
6.00961
6.09051
6.16937
6.23681
6.2896
6.32668
6.34677
6.34279
6.29299
6.1107
6.4465
-1.42511
6.68008
-0.248256
6.58767
0.078542
6.54138
0.032929
6.62655
-0.0984335
6.71427
-0.101551
6.72711
-0.0266569
6.70693
0.00660514
6.70695
-0.0135896
6.72583
-0.0325813
6.73254
-0.0205154
6.7212
-0.00249328
6.70741
-1.30612e-05
6.69771
-0.00415144
6.69116
-0.00735351
6.68263
-0.00546155
6.66955
-0.00098177
6.65316
0.00226282
6.63648
0.00250606
6.62023
0.00202099
6.60513
0.00079123
6.59198
-0.00124237
6.57796
-0.000447564
6.56294
0.000465139
6.54748
0.00083145
6.53165
0.00111821
6.51566
0.00118257
6.50071
5.48321e-05
6.48891
-0.0031739
6.47738
-0.00354597
6.46349
-0.00128229
6.44711
0.00112209
6.43022
0.00157268
6.41306
0.00175637
6.39574
0.00183424
6.37832
0.00187659
6.3608
0.00190532
6.34321
0.00191084
6.32559
0.00188889
6.30796
0.00183739
6.29036
0.00176004
6.27281
0.00166384
6.25531
0.00155893
6.23788
0.00145713
6.22049
0.0013703
6.20313
0.00130887
6.18575
0.00128078
6.16833
0.00129091
6.15082
0.00134067
6.1332
0.00142812
6.11543
0.00154823
6.09748
0.00169342
6.07934
0.00185428
6.06101
0.00202028
6.0425
0.00218073
6.02382
0.00232573
6.00501
0.00244664
5.98608
0.00253679
5.96709
0.00259177
5.94806
0.00260961
5.92904
0.00259073
5.91007
0.00253836
5.89116
0.00245798
5.87235
0.00235647
5.85364
0.0022412
5.83505
0.00211825
5.81658
0.00199389
5.79822
0.00187478
5.77996
0.00176861
5.76177
0.00168438
5.74362
0.00163143
5.72546
0.00161994
5.70725
0.00166616
5.68889
0.00179064
5.67028
0.00202076
5.65127
0.00239658
5.63167
0.00297597
5.61119
0.00383639
5.58945
0.00505417
5.56619
0.00654947
5.54202
0.0074182
5.52156
0.00368047
5.5255
-0.0206898
5.54495
-0.0362985
5.55182
-0.0238422
5.53567
-0.000842984
5.50694
0.0117762
5.47394
0.0160243
5.43814
0.0187961
5.40023
0.0208618
5.36012
0.0230398
5.3176
0.0254116
5.2726
0.0278637
5.22517
0.0302751
5.17543
0.0325589
5.12354
0.0347133
5.0695
0.0368616
5.01306
0.0392557
4.95358
0.0422338
4.89012
0.046166
4.82145
0.0513875
4.74611
0.0581429
4.66241
0.0665522
4.56868
0.0765483
4.46347
0.0878764
4.346
0.0998938
4.21648
0.111995
4.07613
0.123017
3.92726
0.131741
3.7734
0.136855
3.61905
0.137449
3.46912
0.133143
3.32813
0.124102
3.19972
0.111495
3.08601
0.0967764
2.98765
0.0813463
2.9041
0.0665338
2.83395
0.0531753
2.77535
0.0416741
2.72631
0.0321431
2.68499
0.024469
2.64974
0.0184256
2.6192
0.0137479
2.59227
0.0101762
2.56806
0.00747881
2.5459
0.00546045
2.52527
0.00396215
2.50576
0.00285781
2.48709
0.00204919
2.46904
0.00146079
2.45143
0.00103523
2.43414
0.000729248
2.4171
0.000510544
2.40023
0.00035513
2.38349
0.000245334
2.36685
0.000168216
2.35028
0.000114363
2.33377
7.69734e-05
2.3173
5.11618e-05
2.30087
3.34452e-05
2.28447
2.13499e-05
2.2681
1.31366e-05
2.25176
7.58415e-06
2.23546
3.84961e-06
2.21918
1.34437e-06
2.20293
-3.3548e-07
2.18671
-1.46554e-06
2.17052
-2.2169e-06
2.15437
-2.72779e-06
2.13826
-3.07504e-06
2.12219
-3.32452e-06
2.10616
-3.4961e-06
2.09017
-3.63313e-06
2.07423
-3.73182e-06
2.05833
-3.82818e-06
2.04249
-3.89878e-06
2.02669
-3.97784e-06
2.01095
-4.03092e-06
1.99527
-4.09614e-06
1.97965
-4.14447e-06
1.96408
-4.20636e-06
1.94858
-4.26243e-06
1.93313
-4.3286e-06
1.91776
-4.37739e-06
1.90245
-4.44793e-06
1.8872
-4.47989e-06
1.87202
-4.55845e-06
1.85691
-4.58295e-06
1.84187
-4.67341e-06
1.8269
-4.69498e-06
1.81199
-4.79545e-06
1.79716
-4.80102e-06
1.78239
-4.92768e-06
1.76769
-4.8949e-06
1.75305
-5.08762e-06
1.73848
-4.95383e-06
1.72397
-5.2912e-06
1.70952
-4.94724e-06
1.69514
-5.56056e-06
1.68081
-4.8744e-06
1.66655
-5.89378e-06
1.65234
-4.77855e-06
1.63819
-6.24189e-06
1.62409
-4.72283e-06
1.61005
-6.50922e-06
1.59607
-4.76349e-06
1.58214
-6.69232e-06
1.56826
-4.76913e-06
1.55445
-7.08706e-06
1.54068
-4.40868e-06
1.52697
-7.87722e-06
1.51332
-3.51361e-06
1.49973
-1.05e-05
1.4862
-1.11755e-05
1.47276
-4.13731e-05
1.45948
-0.000145516
1.44672
-0.00059986
1.43609
-0.00266142
1.45269
-0.0298497
-0.0869944
1.52652
12.1901
-3.37308
12.742
-0.829603
12.5989
0.193687
12.4181
0.187176
12.4989
-0.205894
12.6681
-0.298198
12.7199
-0.10595
12.6782
0.0211229
12.6585
-0.0211013
12.6901
-0.0915381
12.7188
-0.0767829
12.7131
-0.0243403
12.6928
-0.00732806
12.6762
-0.0152357
12.6684
-0.0273397
12.6611
-0.0261518
12.6465
-0.0145053
12.623
-0.00248229
12.5954
0.00178463
12.5659
0.00312877
12.5367
0.00128021
12.5116
-0.00486159
12.4855
-0.00330405
12.4572
-0.00033406
12.4271
0.00169272
12.3952
0.00358427
12.3617
0.00505519
12.329
0.00294417
12.3034
-0.00747364
12.2817
-0.0119823
12.258
-0.00795099
12.2295
-0.000819297
12.1989
0.00152472
12.1671
0.00276194
12.1345
0.00345981
12.1013
0.00393085
12.0677
0.00429284
12.0337
0.00454764
11.9994
0.00469766
11.965
0.00474155
11.9304
0.00469006
11.8957
0.00456095
11.861
0.00438054
11.8263
0.00418026
11.7917
0.00399303
11.757
0.00384898
11.7223
0.00377274
11.6876
0.00378182
11.6527
0.00388456
11.6176
0.00408121
11.5824
0.00436298
11.5469
0.00471394
11.511
0.00511283
11.4749
0.00553423
11.4385
0.00595181
11.4018
0.00634057
11.3648
0.00667883
11.3276
0.00694965
11.2903
0.00714245
11.2528
0.00725389
11.2152
0.00728732
11.1776
0.00725454
11.14
0.00717496
11.1024
0.00707278
11.0647
0.00697422
11.027
0.00690257
10.9892
0.00688283
10.9511
0.00694326
10.9128
0.00711737
10.874
0.00744515
10.8346
0.00797096
10.7944
0.00874571
10.7531
0.00984536
10.7104
0.011367
10.6658
0.0134395
10.6188
0.0162477
10.5684
0.0200577
10.5137
0.0252409
10.4531
0.0322452
10.385
0.041191
10.3089
0.0499333
10.2313
0.0476693
10.203
-0.0258626
10.2297
-0.0966608
10.2643
-0.0923173
10.2671
-0.0375945
10.2389
0.00613313
10.1921
0.0289192
10.1322
0.0445986
10.0624
0.0566103
9.98336
0.0678771
9.89564
0.0789112
9.7997
0.0895318
9.69622
0.0994662
9.58596
0.108507
9.46965
0.116673
9.34773
0.124324
9.22027
0.132176
9.08681
0.141179
8.94624
0.15234
8.79685
0.166476
8.63659
0.184011
8.46358
0.204876
8.2767
0.228487
8.07581
0.25378
7.86176
0.279131
7.63657
0.30269
7.40335
0.322039
7.1664
0.334662
6.93103
0.338444
6.7028
0.33199
6.48701
0.315102
6.2881
0.289111
6.10898
0.256709
5.95075
0.22097
5.8131
0.184927
5.69459
0.151052
5.59302
0.120833
5.50587
0.0949752
5.43067
0.0735733
5.36512
0.0563084
5.30725
0.0426571
5.25539
0.0320325
5.20818
0.0238679
5.16454
0.0176592
5.12363
0.0129798
5.08477
0.00948058
5.04745
0.0068826
5.01129
0.00496663
4.976
0.00356269
4.94134
0.00254037
4.90717
0.00180053
4.87334
0.0012684
4.83978
0.000888013
4.80642
0.000617757
4.77322
0.000426929
4.74012
0.00029301
4.70713
0.000199613
4.67421
0.000134873
4.64136
9.02773e-05
4.60857
5.97419e-05
4.57583
3.89642e-05
4.54315
2.49048e-05
4.51053
1.54537e-05
4.47797
9.1291e-06
4.44546
4.91194e-06
4.41302
2.11392e-06
4.38064
2.75867e-07
4.34834
-9.44439e-07
4.3161
-1.74166e-06
4.28395
-2.29081e-06
4.25188
-2.63729e-06
4.21989
-2.89808e-06
4.188
-3.05367e-06
4.1562
-3.20344e-06
4.1245
-3.27964e-06
4.09291
-3.38713e-06
4.06142
-3.4245e-06
4.03005
-3.50655e-06
3.99879
-3.53821e-06
3.96765
-3.60465e-06
3.93663
-3.64542e-06
3.90574
-3.71518e-06
3.87497
-3.73644e-06
3.84434
-3.83067e-06
3.81384
-3.81317e-06
3.78348
-3.93613e-06
3.75325
-3.89387e-06
3.72315
-4.04019e-06
3.6932
-3.98393e-06
3.66338
-4.15335e-06
3.63369
-4.05927e-06
3.60415
-4.29607e-06
3.57473
-4.09056e-06
3.54544
-4.51138e-06
3.51629
-4.01602e-06
3.48726
-4.86944e-06
3.45836
-3.759e-06
3.42958
-5.42085e-06
3.40091
-3.32296e-06
3.37237
-6.10136e-06
3.34394
-2.86523e-06
3.31563
-6.72739e-06
3.28743
-2.56876e-06
3.25934
-7.12418e-06
3.23135
-2.47759e-06
3.20349
-7.4396e-06
3.17572
-2.12204e-06
3.14807
-8.47267e-06
3.12053
-6.68065e-07
3.0931
-1.0629e-05
3.06578
1.9022e-06
3.03859
-1.76501e-05
3.01152
-1.89393e-05
2.98461
-0.000106666
2.95803
-0.000402389
2.93238
-0.00167001
2.90966
-0.00653559
2.89047
-0.0371455
-0.0876375
2.8648
98.8666
0.197621
97.6306
0.0830943
97.4019
0.0995677
97.1214
0.143793
96.4687
0.120181
95.7598
0.0843627
95.2632
0.0645794
94.8977
0.0599163
94.4907
0.0581024
94.0192
0.0515971
93.5698
0.0435854
93.1771
0.0385317
92.8027
0.0360461
92.4218
0.0334154
92.031
0.0298599
91.6439
0.0260785
91.2702
0.0228562
90.9094
0.0203511
90.5531
0.0183835
90.1982
0.0166308
89.8412
0.0150189
89.4781
0.0132505
89.1164
0.0114852
88.7572
0.0100219
88.3992
0.00885732
88.042
0.00794011
87.685
0.00706877
87.3244
0.00641024
86.9522
0.0054852
86.5745
0.00423274
86.2
0.00305127
85.8313
0.00224917
85.4635
0.0016941
85.0955
0.00123075
84.7269
0.000674809
84.3578
1.30003e-05
83.9883
-0.000750519
83.618
-0.00124355
83.2469
-0.00157558
82.8748
-0.00185219
82.5016
-0.00207765
82.1274
-0.00230972
81.7523
-0.00256378
81.3761
-0.00284425
80.9991
-0.0031488
80.6214
-0.00346913
80.243
-0.0037939
79.864
-0.00410985
79.4846
-0.00440299
79.1048
-0.00466046
78.7247
-0.00487056
78.3444
-0.00502531
77.9639
-0.00511914
77.5832
-0.00515016
77.2024
-0.00512028
76.8214
-0.00503302
76.4401
-0.00489576
76.0586
-0.00471587
75.6766
-0.00450245
75.2942
-0.00426413
74.9112
-0.0040091
74.5277
-0.00374432
74.1436
-0.00347656
73.7589
-0.00321844
73.3738
-0.00300449
72.9882
-0.00288357
72.6024
-0.00282395
72.2164
-0.0028302
71.8303
-0.00288674
71.4444
-0.00298453
71.0589
-0.00315864
70.6741
-0.00331791
70.2901
-0.00348277
69.9075
-0.00369632
69.5266
-0.00389755
69.1482
-0.00406936
68.7734
-0.0041276
68.4036
-0.00393715
68.0402
-0.00325944
67.6848
-0.00230847
67.3365
-0.00102825
66.9864
-0.000938264
66.5687
-0.00853619
66.0974
-0.02715
65.6482
-0.0458358
65.2647
-0.0578583
64.9309
-0.065645
64.6276
-0.0748313
64.352
-0.0878069
64.1051
-0.10551
63.8912
-0.12802
63.7146
-0.15508
63.5791
-0.186082
63.4867
-0.219895
63.4379
-0.2547
63.4301
-0.287964
63.4583
-0.316622
63.5154
-0.337768
63.593
-0.349451
63.6834
-0.351114
63.7807
-0.343975
63.8821
-0.330483
63.9873
-0.313425
64.0978
-0.294865
64.2146
-0.275601
64.3369
-0.255565
64.4616
-0.234116
64.583
-0.211161
64.6932
-0.18705
64.7825
-0.162014
64.8407
-0.137079
64.859
-0.113632
64.831
-0.0927768
64.7534
-0.0750222
64.626
-0.0603145
64.4513
-0.0483441
64.2337
-0.0386636
63.9788