/*--------------------------------*- C++ -*----------------------------------*\
| =========                 |                                                 |
| \\      /  F ield         | OpenFOAM: The Open Source CFD Toolbox           |
|  \\    /   O peration     | Version:  3.0.x                                 |
|   \\  /    A nd           | Web:      www.OpenFOAM.org                      |
|    \\/     M anipulation  |                                                 |
\*---------------------------------------------------------------------------*/
FoamFile
{
    version     2.0;
    format      ascii;
    class       volScalarField;
    location    "0.47";
    object      rho;
}
// * * * * * * * * * * * * * * * * * * * * * * * * * * * * * * * * * * * * * //

dimensions      [1 -3 0 0 0 0 0];

internalField   nonuniform List<scalar> 
6900
(
50.9271
50.9271
50.9272
50.9272
50.9273
50.9274
50.9275
50.9276
50.9278
50.9279
50.928
50.9282
50.9283
50.9284
50.9286
50.9287
50.9288
50.9289
50.929
50.9291
50.9293
50.9294
50.9295
50.9296
50.9297
50.9298
50.9299
50.9301
50.9302
50.9304
50.9306
50.9308
50.931
50.9312
50.9315
50.9319
50.9323
50.9328
50.9334
50.934
50.9345
50.9351
50.9357
50.9362
50.9368
50.9374
50.9381
50.9388
50.9396
50.9404
50.9412
50.9422
50.9431
50.9441
50.9451
50.946
50.9469
50.9479
50.9487
50.9497
50.9506
50.9516
50.9527
50.9538
50.955
50.9563
50.9575
50.9589
50.9602
50.9616
50.963
50.9645
50.9659
50.9675
50.969
50.9707
50.9723
50.9741
50.9758
50.9777
50.9795
50.9814
50.9834
50.9854
50.9874
50.9895
50.9916
50.9937
50.9959
50.9981
51.0004
51.0027
51.005
51.0074
51.0098
51.0123
51.0148
51.0174
51.02
51.0227
51.0255
51.0283
51.0312
51.0342
51.0373
51.0404
51.0436
51.0469
51.0502
51.0537
51.0572
51.0608
51.0644
51.0681
51.0719
51.0758
51.0797
51.0836
51.0877
51.0917
51.0958
51.1
51.1042
51.1084
51.1127
51.117
51.1214
51.1258
51.1302
51.1347
51.1393
51.1439
51.1485
51.1533
51.1581
51.1629
51.1679
51.1729
51.178
51.1832
51.1884
51.1938
51.1993
51.2048
51.2105
51.2162
51.222
51.228
51.234
51.2401
51.2463
51.2525
51.2589
51.2653
51.2717
51.2783
51.2848
51.2914
51.2981
51.3048
51.3115
51.3183
51.3251
51.332
51.3389
51.3458
51.3528
51.3599
51.367
51.3742
51.3814
51.3887
51.3961
51.4035
51.411
51.4186
51.4263
51.434
51.4418
51.4498
51.4578
51.4659
51.4741
51.4824
51.4908
51.4993
51.5079
51.5166
51.5255
51.5343
51.5435
51.5523
51.5618
51.5706
51.5803
51.5892
51.5991
51.608
51.6182
51.6263
50.9273
50.9273
50.9274
50.9275
50.9275
50.9276
50.9277
50.9278
50.928
50.9281
50.9282
50.9284
50.9285
50.9286
50.9288
50.9289
50.929
50.9291
50.9292
50.9294
50.9295
50.9296
50.9297
50.9298
50.9299
50.93
50.9301
50.9303
50.9304
50.9306
50.9308
50.931
50.9312
50.9314
50.9317
50.9321
50.9325
50.933
50.9335
50.9341
50.9347
50.9353
50.9359
50.9364
50.937
50.9376
50.9383
50.939
50.9397
50.9405
50.9414
50.9423
50.9433
50.9442
50.9452
50.9462
50.9471
50.948
50.9489
50.9498
50.9508
50.9518
50.9528
50.954
50.9552
50.9564
50.9577
50.959
50.9604
50.9617
50.9632
50.9646
50.9661
50.9676
50.9692
50.9708
50.9725
50.9742
50.976
50.9778
50.9797
50.9816
50.9835
50.9855
50.9876
50.9896
50.9917
50.9939
50.9961
50.9983
51.0005
51.0028
51.0052
51.0076
51.01
51.0124
51.015
51.0176
51.0202
51.0229
51.0257
51.0285
51.0314
51.0344
51.0374
51.0405
51.0437
51.047
51.0504
51.0538
51.0573
51.0609
51.0646
51.0683
51.0721
51.0759
51.0798
51.0838
51.0878
51.0919
51.096
51.1001
51.1043
51.1085
51.1128
51.1171
51.1215
51.1259
51.1303
51.1348
51.1394
51.144
51.1487
51.1534
51.1582
51.1631
51.168
51.173
51.1781
51.1833
51.1886
51.1939
51.1994
51.205
51.2106
51.2163
51.2222
51.2281
51.2341
51.2402
51.2464
51.2527
51.259
51.2654
51.2719
51.2784
51.285
51.2916
51.2982
51.3049
51.3117
51.3184
51.3252
51.3321
51.339
51.346
51.353
51.36
51.3671
51.3743
51.3816
51.3889
51.3962
51.4037
51.4112
51.4188
51.4264
51.4342
51.442
51.4499
51.4579
51.466
51.4742
51.4825
51.4909
51.4994
51.5081
51.5168
51.5256
51.5344
51.5436
51.5525
51.5619
51.5708
51.5805
51.5893
51.5993
51.6081
51.6184
51.6264
50.9273
50.9273
50.9274
50.9274
50.9275
50.9276
50.9277
50.9278
50.928
50.9281
50.9282
50.9284
50.9285
50.9286
50.9288
50.9289
50.929
50.9291
50.9292
50.9293
50.9295
50.9296
50.9297
50.9298
50.9299
50.93
50.9301
50.9303
50.9304
50.9306
50.9308
50.931
50.9312
50.9314
50.9317
50.9321
50.9325
50.933
50.9335
50.9341
50.9347
50.9353
50.9359
50.9364
50.937
50.9376
50.9383
50.939
50.9397
50.9405
50.9414
50.9423
50.9433
50.9442
50.9452
50.9462
50.9471
50.948
50.9489
50.9498
50.9508
50.9518
50.9528
50.954
50.9552
50.9564
50.9577
50.959
50.9604
50.9617
50.9632
50.9646
50.9661
50.9676
50.9692
50.9708
50.9725
50.9742
50.976
50.9778
50.9797
50.9816
50.9835
50.9855
50.9876
50.9896
50.9917
50.9939
50.9961
50.9983
51.0005
51.0028
51.0052
51.0076
51.01
51.0124
51.015
51.0176
51.0202
51.0229
51.0257
51.0285
51.0314
51.0344
51.0374
51.0405
51.0437
51.047
51.0504
51.0538
51.0573
51.0609
51.0646
51.0683
51.0721
51.0759
51.0798
51.0838
51.0878
51.0919
51.096
51.1001
51.1043
51.1085
51.1128
51.1171
51.1215
51.1259
51.1303
51.1348
51.1394
51.144
51.1487
51.1534
51.1582
51.1631
51.168
51.173
51.1781
51.1833
51.1886
51.1939
51.1994
51.205
51.2106
51.2163
51.2222
51.2281
51.2341
51.2402
51.2464
51.2527
51.259
51.2654
51.2719
51.2784
51.285
51.2916
51.2982
51.3049
51.3117
51.3184
51.3252
51.3321
51.339
51.346
51.353
51.36
51.3671
51.3743
51.3816
51.3889
51.3962
51.4037
51.4112
51.4188
51.4264
51.4342
51.442
51.4499
51.4579
51.466
51.4742
51.4825
51.4909
51.4994
51.5081
51.5168
51.5256
51.5345
51.5435
51.5525
51.5618
51.5709
51.5803
51.5896
51.599
51.6083
51.6181
51.6272
50.9273
50.9273
50.9274
50.9275
50.9275
50.9276
50.9277
50.9278
50.928
50.9281
50.9282
50.9284
50.9285
50.9286
50.9288
50.9289
50.929
50.9291
50.9292
50.9294
50.9295
50.9296
50.9297
50.9298
50.9299
50.93
50.9301
50.9303
50.9304
50.9306
50.9308
50.931
50.9312
50.9314
50.9317
50.9321
50.9325
50.933
50.9335
50.9341
50.9347
50.9353
50.9359
50.9364
50.937
50.9376
50.9383
50.939
50.9397
50.9405
50.9414
50.9423
50.9433
50.9442
50.9452
50.9462
50.9471
50.948
50.9489
50.9498
50.9508
50.9518
50.9528
50.954
50.9552
50.9564
50.9577
50.959
50.9604
50.9617
50.9632
50.9646
50.9661
50.9676
50.9692
50.9708
50.9725
50.9742
50.976
50.9778
50.9797
50.9816
50.9835
50.9855
50.9876
50.9896
50.9917
50.9939
50.9961
50.9983
51.0005
51.0028
51.0052
51.0076
51.01
51.0124
51.015
51.0176
51.0202
51.0229
51.0257
51.0285
51.0314
51.0344
51.0374
51.0405
51.0437
51.047
51.0504
51.0538
51.0573
51.0609
51.0646
51.0683
51.0721
51.0759
51.0798
51.0838
51.0878
51.0919
51.096
51.1001
51.1043
51.1085
51.1128
51.1171
51.1215
51.1259
51.1303
51.1348
51.1394
51.144
51.1487
51.1534
51.1582
51.1631
51.168
51.173
51.1781
51.1833
51.1886
51.1939
51.1994
51.205
51.2106
51.2163
51.2222
51.2281
51.2341
51.2402
51.2464
51.2527
51.259
51.2654
51.2719
51.2784
51.285
51.2916
51.2982
51.3049
51.3117
51.3184
51.3252
51.3321
51.339
51.346
51.353
51.36
51.3671
51.3743
51.3816
51.3889
51.3962
51.4037
51.4112
51.4188
51.4264
51.4342
51.442
51.4499
51.4579
51.466
51.4742
51.4825
51.4909
51.4995
51.508
51.5168
51.5255
51.5346
51.5434
51.5527
51.5616
51.5711
51.5801
51.5898
51.5987
51.6087
51.6166
51.6292
50.9271
50.9271
50.9272
50.9272
50.9273
50.9274
50.9275
50.9276
50.9278
50.9279
50.928
50.9282
50.9283
50.9284
50.9286
50.9287
50.9288
50.9289
50.929
50.9291
50.9293
50.9294
50.9295
50.9296
50.9297
50.9298
50.9299
50.9301
50.9302
50.9304
50.9306
50.9308
50.931
50.9312
50.9315
50.9319
50.9323
50.9328
50.9334
50.934
50.9345
50.9351
50.9357
50.9362
50.9368
50.9374
50.9381
50.9388
50.9396
50.9404
50.9412
50.9422
50.9431
50.9441
50.9451
50.946
50.9469
50.9479
50.9487
50.9497
50.9506
50.9516
50.9527
50.9538
50.955
50.9563
50.9575
50.9589
50.9602
50.9616
50.963
50.9645
50.9659
50.9675
50.969
50.9707
50.9723
50.9741
50.9758
50.9777
50.9795
50.9814
50.9834
50.9854
50.9874
50.9895
50.9916
50.9937
50.9959
50.9981
51.0004
51.0027
51.005
51.0074
51.0098
51.0123
51.0148
51.0174
51.02
51.0227
51.0255
51.0283
51.0312
51.0342
51.0373
51.0404
51.0436
51.0469
51.0502
51.0537
51.0572
51.0608
51.0644
51.0681
51.0719
51.0758
51.0797
51.0836
51.0877
51.0917
51.0958
51.1
51.1042
51.1084
51.1127
51.117
51.1214
51.1258
51.1302
51.1347
51.1393
51.1439
51.1485
51.1533
51.1581
51.1629
51.1679
51.1729
51.178
51.1832
51.1884
51.1938
51.1993
51.2048
51.2105
51.2162
51.222
51.228
51.234
51.2401
51.2463
51.2525
51.2589
51.2653
51.2717
51.2783
51.2848
51.2914
51.2981
51.3048
51.3115
51.3183
51.3251
51.332
51.3389
51.3458
51.3528
51.3599
51.367
51.3742
51.3814
51.3887
51.3961
51.4035
51.411
51.4186
51.4263
51.434
51.4418
51.4498
51.4578
51.4659
51.4741
51.4824
51.4908
51.4993
51.5079
51.5167
51.5254
51.5345
51.5432
51.5526
51.5614
51.571
51.5799
51.5897
51.5985
51.6086
51.6161
51.6327
51.6422
51.6481
51.6505
51.6514
51.6524
51.6531
51.6528
51.6521
51.6518
51.6535
51.6585
51.6653
51.6681
51.6623
51.6513
51.6432
51.6387
51.6343
51.63
51.6359
51.6398
51.6436
51.6455
51.6465
51.6476
51.6485
51.6481
51.6475
51.6476
51.6494
51.6547
51.6617
51.6632
51.6559
51.6432
51.6359
51.6318
51.6283
51.6253
51.6302
51.6333
51.6352
51.6362
51.6366
51.6365
51.636
51.635
51.6334
51.631
51.6278
51.6238
51.6194
51.6151
51.6116
51.6083
51.604
51.5987
51.5926
51.5861
51.5785
51.6228
51.6228
51.625
51.627
51.6273
51.6258
51.6241
51.6216
51.6189
51.616
51.6138
51.6099
51.6074
51.6045
51.6015
51.5992
51.5975
51.5962
51.5953
51.5952
51.6163
51.6105
51.6091
51.6099
51.6096
51.6076
51.605
51.6017
51.5981
51.5944
51.5907
51.5865
51.5829
51.5791
51.5754
51.5723
51.5697
51.5678
51.5666
51.5665
51.632
51.6116
51.6061
51.6144
51.6241
51.6295
51.6348
51.6422
51.6509
51.659
51.6667
51.6741
51.6821
51.6903
51.6986
51.7069
51.715
51.7232
51.7315
51.7399
51.7484
51.757
51.7654
51.7739
51.7825
51.7911
51.7998
51.8085
51.8172
51.826
51.8346
51.8432
51.852
51.8608
51.8696
51.8784
51.8873
51.8962
51.9051
51.9141
51.9231
51.9321
51.9412
51.9503
51.9593
51.9685
51.9776
51.9867
51.9959
52.0051
52.0143
52.0236
52.0329
52.0422
52.0516
52.061
52.0704
52.0799
52.0894
52.0989
52.1085
52.1181
52.1277
52.1373
52.1469
52.1566
52.1663
52.176
52.1857
52.1954
52.2052
52.215
52.2247
52.2345
52.2442
52.254
52.2639
52.2738
52.2837
52.2936
52.3035
52.3134
52.3236
52.3339
52.3434
52.3524
52.3619
52.3718
52.3818
52.3918
52.4018
52.4118
52.4218
52.4317
52.4416
52.4516
52.4619
52.4723
52.4825
52.492
52.5012
52.5111
52.5219
52.533
52.5429
52.5496
52.5548
52.5616
52.5709
52.5825
52.5951
52.6095
52.6232
52.6356
52.6474
52.6581
52.6673
52.6766
52.6861
52.6956
52.7052
52.7149
52.7246
52.7343
52.744
52.7538
52.7635
52.7733
52.783
52.7927
52.8024
52.8121
52.8217
52.8314
52.841
52.8506
52.8601
52.8697
52.8792
52.8886
52.8981
52.9075
52.9169
52.9262
52.9355
52.9448
52.9541
52.9633
52.9725
52.9817
52.9908
53
53.009
53.0181
53.0271
53.0361
53.0451
53.0541
53.063
53.0719
53.0808
53.0897
53.0985
53.1073
53.1161
53.1249
53.1336
53.1423
53.151
53.1597
53.1683
53.1769
53.1855
53.1941
53.2026
53.2111
53.2195
53.228
53.2363
53.2448
53.253
53.2614
53.2695
53.2779
53.2858
53.2943
53.302
53.3104
53.318
53.3264
53.3339
53.3423
53.3495
53.3579
53.3651
53.3733
53.3804
53.3885
53.3961
53.4028
51.6299
51.6103
51.6054
51.6132
51.6219
51.6277
51.6334
51.6408
51.6491
51.657
51.665
51.6726
51.6805
51.6888
51.6971
51.7054
51.7136
51.7219
51.7302
51.7387
51.7472
51.7557
51.7642
51.7727
51.7813
51.7899
51.7986
51.8072
51.816
51.8247
51.8334
51.842
51.8508
51.8596
51.8685
51.8773
51.8862
51.8951
51.9041
51.9131
51.9221
51.9311
51.9402
51.9492
51.9583
51.9674
51.9765
51.9856
51.9948
52.004
52.0133
52.0225
52.0319
52.0412
52.0506
52.06
52.0695
52.079
52.0885
52.098
52.1076
52.1171
52.1267
52.1363
52.146
52.1556
52.1653
52.175
52.1847
52.1944
52.2041
52.2138
52.2236
52.2333
52.2431
52.2529
52.2628
52.2726
52.2824
52.292
52.3015
52.3112
52.3212
52.3317
52.3415
52.3508
52.3604
52.3705
52.3805
52.3904
52.4002
52.4101
52.42
52.43
52.4401
52.4503
52.4604
52.4698
52.4791
52.4891
52.5
52.511
52.5208
52.5283
52.5347
52.5413
52.5496
52.56
52.5719
52.5848
52.5992
52.6126
52.625
52.6368
52.6478
52.6573
52.6667
52.6762
52.6858
52.6955
52.7052
52.7149
52.7246
52.7344
52.7441
52.7539
52.7636
52.7734
52.7831
52.7928
52.8025
52.8122
52.8219
52.8315
52.8411
52.8507
52.8603
52.8698
52.8793
52.8888
52.8982
52.9076
52.917
52.9264
52.9357
52.945
52.9542
52.9635
52.9727
52.9818
52.991
53.0001
53.0092
53.0182
53.0273
53.0363
53.0453
53.0542
53.0632
53.0721
53.081
53.0898
53.0986
53.1075
53.1163
53.125
53.1338
53.1425
53.1512
53.1598
53.1685
53.1771
53.1856
53.1942
53.2027
53.2112
53.2197
53.2281
53.2365
53.2449
53.2531
53.2616
53.2696
53.278
53.286
53.2944
53.3022
53.3106
53.3182
53.3266
53.334
53.3424
53.3497
53.358
53.3652
53.3734
53.3805
53.3887
53.396
53.4034
51.5562
51.5739
51.5867
51.5944
51.6004
51.6071
51.6147
51.6225
51.6303
51.6381
51.6461
51.6543
51.6625
51.6707
51.679
51.6873
51.6957
51.7041
51.7125
51.7209
51.7294
51.7379
51.7465
51.7551
51.7638
51.7725
51.7812
51.79
51.7987
51.8075
51.8163
51.8251
51.8338
51.8426
51.8514
51.8603
51.8692
51.8782
51.8872
51.8963
51.9054
51.9145
51.9236
51.9328
51.942
51.9512
51.9605
51.9697
51.9789
51.9882
51.9974
52.0066
52.0159
52.0252
52.0345
52.0438
52.0532
52.0627
52.0721
52.0817
52.0912
52.1007
52.1102
52.1198
52.1293
52.1389
52.1485
52.1581
52.1676
52.1771
52.1866
52.1961
52.2057
52.2153
52.2248
52.2343
52.244
52.254
52.2647
52.276
52.2878
52.3002
52.3132
52.3253
52.3371
52.3488
52.3603
52.3709
52.3813
52.3915
52.4016
52.4116
52.4215
52.4314
52.4413
52.4513
52.4613
52.4715
52.4816
52.4919
52.5022
52.5125
52.5228
52.5332
52.5436
52.554
52.5644
52.5748
52.5851
52.5954
52.6056
52.6157
52.6257
52.6356
52.6456
52.6555
52.6653
52.6752
52.6851
52.6949
52.7048
52.7146
52.7244
52.7342
52.744
52.7538
52.7636
52.7733
52.7831
52.7928
52.8025
52.8122
52.8219
52.8315
52.8411
52.8507
52.8603
52.8698
52.8793
52.8888
52.8982
52.9076
52.917
52.9264
52.9357
52.945
52.9542
52.9635
52.9727
52.9818
52.991
53.0001
53.0092
53.0182
53.0273
53.0363
53.0453
53.0542
53.0632
53.0721
53.081
53.0898
53.0987
53.1075
53.1163
53.125
53.1338
53.1425
53.1512
53.1598
53.1685
53.1771
53.1857
53.1942
53.2027
53.2112
53.2197
53.2281
53.2365
53.2448
53.2532
53.2614
53.2698
53.2779
53.2861
53.2942
53.3023
53.3104
53.3184
53.3263
53.3344
53.342
53.3501
53.3577
53.3654
53.3732
53.3808
53.3883
53.396
53.4035
51.5921
51.5978
51.6047
51.6114
51.618
51.625
51.6326
51.6403
51.6482
51.6561
51.664
51.672
51.6802
51.6884
51.6966
51.7049
51.7133
51.7217
51.7302
51.7387
51.7473
51.7558
51.7644
51.7731
51.7817
51.7904
51.7991
51.8077
51.8165
51.8252
51.8339
51.8427
51.8515
51.8603
51.8691
51.878
51.8868
51.8957
51.9046
51.9136
51.9225
51.9315
51.9406
51.9497
51.9588
51.9679
51.9771
51.9863
51.9955
52.0047
52.0139
52.0232
52.0325
52.0418
52.0512
52.0605
52.0699
52.0793
52.0888
52.0983
52.1078
52.1174
52.127
52.1366
52.1462
52.1559
52.1656
52.1753
52.185
52.1948
52.2046
52.2144
52.2242
52.2341
52.244
52.2539
52.2638
52.2737
52.2837
52.2935
52.3033
52.313
52.3228
52.3326
52.3422
52.3518
52.3618
52.3719
52.3818
52.3914
52.401
52.4109
52.4208
52.4304
52.4398
52.4493
52.4591
52.4689
52.4784
52.4874
52.4957
52.5038
52.5122
52.5217
52.5325
52.5444
52.5568
52.5701
52.583
52.5952
52.6071
52.6181
52.6277
52.6373
52.6469
52.6565
52.6661
52.6758
52.6855
52.6953
52.705
52.7148
52.7246
52.7343
52.7441
52.7539
52.7636
52.7734
52.7831
52.7928
52.8025
52.8122
52.8219
52.8315
52.8411
52.8507
52.8603
52.8698
52.8793
52.8888
52.8982
52.9076
52.917
52.9264
52.9357
52.945
52.9542
52.9635
52.9727
52.9818
52.991
53.0001
53.0092
53.0182
53.0273
53.0363
53.0453
53.0542
53.0632
53.0721
53.081
53.0898
53.0987
53.1075
53.1163
53.125
53.1338
53.1425
53.1512
53.1598
53.1685
53.1771
53.1857
53.1942
53.2027
53.2112
53.2197
53.2281
53.2365
53.2448
53.2532
53.2614
53.2698
53.2778
53.2862
53.2941
53.3025
53.3102
53.3186
53.3261
53.3345
53.3419
53.3502
53.3575
53.3658
53.3729
53.3811
53.3882
53.3962
53.4032
51.5834
51.5918
51.5989
51.6056
51.6119
51.6186
51.626
51.6336
51.6412
51.6488
51.6565
51.6643
51.6723
51.6804
51.6886
51.6969
51.7052
51.7135
51.722
51.7304
51.7389
51.7475
51.756
51.7646
51.7732
51.7818
51.7905
51.7991
51.8078
51.8165
51.8252
51.834
51.8428
51.8516
51.8604
51.8692
51.8781
51.887
51.896
51.905
51.914
51.923
51.9321
51.9412
51.9503
51.9595
51.9686
51.9778
51.987
51.9962
52.0054
52.0147
52.024
52.0334
52.0427
52.0521
52.0616
52.0711
52.0806
52.0901
52.0996
52.1092
52.1189
52.1285
52.1382
52.1479
52.1577
52.1674
52.1772
52.187
52.1968
52.2066
52.2165
52.2263
52.2361
52.2459
52.2557
52.2656
52.2755
52.2853
52.2951
52.305
52.3149
52.3248
52.3345
52.3443
52.3541
52.364
52.3741
52.3843
52.3941
52.4033
52.4125
52.4225
52.4336
52.4446
52.454
52.4601
52.4659
52.4736
52.4836
52.4954
52.5082
52.5229
52.537
52.5497
52.5618
52.5737
52.5848
52.5952
52.6054
52.6155
52.6256
52.6355
52.6455
52.6554
52.6652
52.6751
52.685
52.6948
52.7046
52.7145
52.7243
52.7341
52.7439
52.7537
52.7635
52.7732
52.783
52.7927
52.8024
52.8121
52.8217
52.8314
52.841
52.8506
52.8601
52.8697
52.8792
52.8886
52.8981
52.9075
52.9169
52.9262
52.9355
52.9448
52.9541
52.9633
52.9725
52.9817
52.9908
53
53.009
53.0181
53.0271
53.0361
53.0451
53.0541
53.063
53.0719
53.0808
53.0897
53.0985
53.1073
53.1161
53.1249
53.1336
53.1423
53.151
53.1597
53.1683
53.1769
53.1855
53.1941
53.2026
53.2111
53.2196
53.228
53.2364
53.2447
53.2531
53.2613
53.2697
53.2777
53.2861
53.294
53.3024
53.3101
53.3185
53.326
53.3344
53.3417
53.3501
53.3574
53.3654
53.3731
53.3805
53.3886
53.3957
53.4032
53.4073
53.4084
53.4097
53.4112
53.4126
53.4139
53.415
53.4162
53.4173
53.4184
53.4195
53.4206
53.4218
53.4229
53.424
53.4251
53.4261
53.427
53.4279
53.429
53.4086
53.4101
53.4116
53.4131
53.4145
53.4158
53.4171
53.4183
53.4195
53.4206
53.4217
53.4228
53.4241
53.4253
53.4264
53.4274
53.4283
53.4291
53.4298
53.4308
53.4082
53.4099
53.4116
53.4132
53.4147
53.4161
53.4175
53.4188
53.42
53.4213
53.4224
53.4231
53.4238
53.4246
53.4248
53.4247
53.4249
53.4256
53.4259
53.4264
53.4083
53.4104
53.4123
53.4141
53.4158
53.4178
53.4201
53.422
53.4231
53.4235
53.4247
53.4258
53.4265
53.4282
53.4316
53.4364
53.4402
53.4427
53.4432
53.4408
53.4084
53.4108
53.4128
53.4145
53.4163
53.4183
53.4204
53.4223
53.4237
53.4242
53.425
53.4255
53.4262
53.4279
53.4312
53.436
53.4405
53.4437
53.4449
53.4435
53.4343
53.4425
53.4486
53.4543
53.4601
53.4659
53.4716
53.4772
53.483
53.489
53.4945
53.5
53.5059
53.512
53.5177
53.5231
53.5287
53.5349
53.541
53.5468
53.5522
53.5577
53.5638
53.57
53.576
53.5818
53.5874
53.5931
53.599
53.6049
53.6108
53.6166
53.6224
53.6281
53.6338
53.6395
53.6451
53.6506
53.6561
53.6616
53.667
53.6723
53.6777
53.6829
53.6881
53.6933
53.6984
53.7034
53.7084
53.7132
53.7181
53.7229
53.7276
53.7323
53.737
53.7416
53.7461
53.7507
53.7552
53.7597
53.7641
53.7685
53.7728
53.7771
53.7813
53.7855
53.7897
53.7938
53.7978
53.8018
53.8058
53.8096
53.8135
53.8174
53.8212
53.825
53.8287
53.8325
53.8363
53.8398
53.8432
53.8469
53.8509
53.8546
53.8572
53.8595
53.8631
53.8675
53.8718
53.8744
53.8709
53.8688
53.8716
53.8764
53.8846
53.8938
53.9008
53.9062
53.9104
53.9145
53.4338
53.4411
53.4475
53.4535
53.4594
53.465
53.4707
53.477
53.4835
53.4897
53.4956
53.5016
53.508
53.5145
53.5206
53.5265
53.5327
53.5393
53.5457
53.5517
53.5575
53.5635
53.57
53.5764
53.5826
53.5885
53.5943
53.6002
53.6064
53.6125
53.6185
53.6244
53.6302
53.636
53.6418
53.6475
53.6532
53.6588
53.6643
53.6698
53.6752
53.6806
53.6859
53.6912
53.6964
53.7015
53.7066
53.7116
53.7166
53.7215
53.7264
53.7312
53.7359
53.7406
53.7452
53.7498
53.7544
53.7589
53.7633
53.7677
53.7721
53.7764
53.7807
53.785
53.7892
53.7934
53.7975
53.8017
53.8058
53.8098
53.8137
53.8175
53.8213
53.8253
53.8291
53.8327
53.8365
53.8404
53.844
53.8474
53.8509
53.8547
53.8583
53.8614
53.8646
53.8681
53.8714
53.8744
53.8773
53.8801
53.8826
53.8852
53.8875
53.8885
53.889
53.8911
53.8947
53.8988
53.9044
53.9112
53.4257
53.433
53.4371
53.4412
53.446
53.4508
53.4556
53.4607
53.4665
53.4723
53.4778
53.4838
53.4903
53.4967
53.5027
53.5084
53.515
53.5218
53.5284
53.5347
53.5402
53.5466
53.5536
53.5601
53.5664
53.5724
53.578
53.5843
53.5907
53.5968
53.6028
53.6086
53.6144
53.6201
53.6257
53.6313
53.6369
53.6425
53.648
53.6535
53.6589
53.6643
53.6696
53.6748
53.6799
53.685
53.69
53.6949
53.6999
53.7047
53.7096
53.7143
53.7191
53.7238
53.7284
53.7329
53.7373
53.7417
53.7461
53.7504
53.7547
53.7589
53.763
53.7671
53.7711
53.7751
53.7788
53.7825
53.7862
53.7901
53.7946
53.7999
53.8056
53.812
53.8188
53.8252
53.8311
53.8367
53.8419
53.8465
53.8505
53.8542
53.8579
53.8613
53.8648
53.8681
53.8716
53.875
53.8786
53.882
53.8858
53.8891
53.8928
53.8962
53.8996
53.9032
53.9065
53.9099
53.9133
53.9167
53.4322
53.4415
53.4518
53.4566
53.4596
53.4662
53.4733
53.48
53.4837
53.4906
53.4989
53.5058
53.5091
53.5155
53.5227
53.5328
53.5367
53.5407
53.5475
53.5538
53.565
53.5699
53.572
53.5779
53.5849
53.5913
53.6006
53.6044
53.608
53.6138
53.6197
53.6256
53.6313
53.637
53.6427
53.6483
53.6538
53.6593
53.6647
53.6701
53.6754
53.6807
53.6859
53.6911
53.6962
53.7012
53.7063
53.7112
53.7161
53.721
53.7258
53.7305
53.7353
53.74
53.7446
53.7492
53.7538
53.7584
53.7628
53.7673
53.7717
53.7761
53.7804
53.7846
53.7888
53.7929
53.797
53.8011
53.8053
53.8092
53.8138
53.8171
53.8205
53.8243
53.828
53.8317
53.8354
53.8391
53.8428
53.8464
53.8499
53.8533
53.8567
53.8603
53.8638
53.8672
53.8706
53.8742
53.878
53.8813
53.8839
53.8864
53.8899
53.8939
53.8979
53.9012
53.9014
53.8985
53.8979
53.9002
53.4324
53.4419
53.4556
53.4594
53.461
53.468
53.4788
53.4859
53.4875
53.4932
53.5041
53.5123
53.5139
53.5184
53.5268
53.5396
53.5423
53.544
53.5497
53.5576
53.5716
53.5753
53.5753
53.58
53.5866
53.5947
53.6051
53.6078
53.6101
53.6152
53.6211
53.6268
53.6325
53.6381
53.6438
53.6493
53.6548
53.6603
53.6657
53.6711
53.6764
53.6817
53.6869
53.6921
53.6972
53.7023
53.7073
53.7123
53.7172
53.7221
53.7269
53.7317
53.7364
53.741
53.7457
53.7503
53.7548
53.7593
53.7638
53.7683
53.7727
53.777
53.7813
53.7856
53.7898
53.794
53.7981
53.8022
53.8063
53.8105
53.8155
53.8185
53.8217
53.8255
53.8292
53.8329
53.8366
53.8402
53.8438
53.8474
53.851
53.8547
53.8583
53.8617
53.8652
53.8688
53.8724
53.8758
53.8791
53.8828
53.8867
53.8903
53.893
53.8951
53.898
53.9018
53.9057
53.9091
53.9089
53.9052
53.9155
53.9159
53.9166
53.9175
53.9185
53.9195
53.9205
53.9214
53.9224
53.9233
53.9242
53.9251
53.9259
53.9267
53.9274
53.928
53.9286
53.9292
53.9297
53.9301
53.9138
53.9146
53.9157
53.9168
53.918
53.9192
53.9204
53.9217
53.9228
53.924
53.9252
53.9263
53.9272
53.9279
53.9285
53.9291
53.9295
53.9299
53.93
53.9304
53.9186
53.9194
53.9201
53.9209
53.9216
53.9224
53.923
53.9237
53.9242
53.9247
53.9251
53.9254
53.9257
53.9261
53.9261
53.9263
53.9262
53.9261
53.9255
53.9253
53.9016
53.902
53.903
53.9046
53.9068
53.9092
53.9118
53.9143
53.9167
53.9189
53.921
53.923
53.9248
53.9265
53.9282
53.9297
53.9306
53.9317
53.9327
53.933
53.9042
53.9039
53.904
53.9042
53.9047
53.9055
53.9069
53.9092
53.9121
53.9149
53.9177
53.9206
53.9234
53.9257
53.9277
53.9297
53.9314
53.9334
53.9354
53.9366
53.9319
53.9347
53.9363
53.9378
53.9393
53.9409
53.9419
53.9427
53.9439
53.9455
53.9466
53.9471
53.9478
53.9494
53.9512
53.9525
53.9529
53.9523
53.9529
53.9548
53.9572
53.9588
53.9591
53.9589
53.9585
53.9591
53.9612
53.963
53.9645
53.9658
53.9671
53.9683
53.9694
53.9704
53.9715
53.9724
53.9734
53.9744
53.9753
53.9762
53.9771
53.9781
53.979
53.9799
53.9807
53.9816
53.9824
53.9832
53.984
53.9847
53.9855
53.9862
53.9871
53.9886
53.9899
53.9897
53.9877
53.9861
53.9874
53.9891
53.9897
53.9893
53.9891
53.9898
53.9907
53.9913
53.9918
53.9923
53.9929
53.9935
53.9941
53.9943
53.9948
53.9955
53.9964
53.9969
53.9963
53.9964
53.9975
53.9989
53.9984
53.9905
53.9852
53.9857
53.9906
53.9992
54.0048
54.0084
54.011
54.0133
54.015
54.016
54.0165
54.0169
54.0172
54.0175
54.0177
54.0179
54.018
54.0181
54.0183
54.0184
54.0185
54.0186
54.0187
54.0188
54.0189
54.019
54.0191
54.0192
54.0193
54.0194
54.0195
54.0196
54.0197
54.0198
54.0199
54.02
54.0201
54.0202
54.0203
54.0204
54.0205
54.0206
54.0208
54.0209
54.021
54.0211
54.0212
54.0213
54.0215
54.0216
54.0217
54.0218
54.022
54.0221
54.0222
54.0223
54.0224
54.0225
54.0226
54.0227
54.0227
54.0228
54.0229
54.0229
54.023
54.023
54.023
54.023
54.023
54.023
54.023
54.0229
54.0229
54.0228
54.0228
54.0227
54.0226
54.0225
54.0224
54.0223
54.0221
54.022
54.0218
54.0217
54.0215
54.0214
54.0212
54.021
54.0208
54.0206
54.0204
54.0202
54.02
54.0198
54.0196
54.0193
54.0191
54.0188
54.0187
54.0183
54.0182
54.0177
54.0176
54.0171
54.0171
54.0165
54.0165
54.0159
54.0158
54.0152
54.0151
54.0146
54.0142
54.014
54.0133
54.0132
54.0127
54.0122
53.9315
53.9325
53.9335
53.9353
53.9367
53.9376
53.9382
53.9397
53.9416
53.9434
53.944
53.9454
53.9471
53.9496
53.9516
53.9522
53.9532
53.954
53.9559
53.9586
53.9612
53.9622
53.9622
53.9629
53.9633
53.9647
53.9671
53.9692
53.9707
53.972
53.9734
53.9747
53.9759
53.9772
53.9784
53.9795
53.9807
53.9818
53.9828
53.9839
53.9849
53.9859
53.9868
53.9877
53.9886
53.9895
53.9903
53.9911
53.9919
53.9927
53.9934
53.9941
53.9951
53.9966
53.9972
53.9966
53.9951
53.9935
53.9951
53.9968
53.9972
53.9971
53.997
53.9976
53.9985
53.9993
53.9999
54.0002
54.0007
54.0013
54.0019
54.0021
54.0025
54.0031
54.0037
54.0039
54.004
54.0045
54.005
54.005
54.005
54.0041
54.0037
54.0033
54.0012
53.9993
53.9993
54.0001
54.0023
54.0075
54.0126
54.0163
54.0183
54.0189
54.0188
54.0186
54.0185
54.0185
54.0185
54.0185
54.0185
54.0186
54.0187
54.0188
54.0188
54.0189
54.019
54.0191
54.0192
54.0193
54.0194
54.0195
54.0196
54.0197
54.0198
54.0199
54.02
54.0201
54.0202
54.0203
54.0204
54.0205
54.0206
54.0207
54.0209
54.021
54.0211
54.0212
54.0213
54.0214
54.0216
54.0217
54.0218
54.0219
54.0221
54.0222
54.0223
54.0224
54.0225
54.0226
54.0227
54.0228
54.0228
54.0229
54.023
54.023
54.0231
54.0231
54.0231
54.0231
54.0231
54.0231
54.0231
54.023
54.023
54.0229
54.0229
54.0228
54.0227
54.0226
54.0225
54.0224
54.0222
54.0221
54.0219
54.0218
54.0216
54.0215
54.0213
54.0211
54.0209
54.0207
54.0205
54.0203
54.0201
54.0199
54.0197
54.0194
54.0192
54.0189
54.0188
54.0184
54.0183
54.0178
54.0177
54.0172
54.0172
54.0166
54.0166
54.016
54.0159
54.0153
54.0152
54.0146
54.0145
54.0138
54.0137
54.0131
54.0128
54.0123
53.9245
53.925
53.9242
53.9237
53.9237
53.9239
53.9239
53.9235
53.9246
53.9257
53.9272
53.9272
53.9288
53.931
53.9328
53.9352
53.936
53.9356
53.9382
53.9408
53.9429
53.9446
53.9464
53.9455
53.9457
53.9488
53.9517
53.954
53.9561
53.9577
53.9591
53.9603
53.9614
53.9624
53.9634
53.9644
53.9653
53.9662
53.9671
53.968
53.9689
53.9697
53.9706
53.9714
53.9722
53.973
53.9737
53.9744
53.975
53.9756
53.9762
53.9767
53.977
53.9769
53.9771
53.9762
53.9725
53.9743
53.9758
53.9766
53.9771
53.9763
53.979
53.9818
53.9849
53.9888
53.9921
53.9949
53.9973
53.9994
54.0008
54.0017
54.0023
54.0028
54.0033
54.0036
54.0041
54.0046
54.0052
54.0059
54.0067
54.0075
54.0083
54.0092
54.0099
54.0107
54.0115
54.0123
54.0132
54.0141
54.015
54.0158
54.0165
54.017
54.0174
54.0176
54.0178
54.0179
54.0181
54.0182
54.0183
54.0185
54.0186
54.0187
54.0188
54.0189
54.019
54.0191
54.0192
54.0193
54.0194
54.0195
54.0196
54.0197
54.0198
54.0199
54.02
54.0201
54.0202
54.0203
54.0204
54.0205
54.0206
54.0207
54.0209
54.021
54.0211
54.0212
54.0213
54.0214
54.0216
54.0217
54.0218
54.0219
54.0221
54.0222
54.0223
54.0224
54.0225
54.0226
54.0227
54.0228
54.0228
54.0229
54.023
54.023
54.0231
54.0231
54.0231
54.0231
54.0231
54.0231
54.0231
54.023
54.023
54.0229
54.0229
54.0228
54.0227
54.0226
54.0225
54.0224
54.0222
54.0221
54.0219
54.0218
54.0216
54.0215
54.0213
54.0211
54.0209
54.0207
54.0205
54.0203
54.0201
54.0199
54.0197
54.0194
54.0192
54.0189
54.0187
54.0184
54.0182
54.0179
54.0177
54.0174
54.0171
54.0167
54.0165
54.016
54.0159
54.0154
54.0151
54.0148
54.0143
54.014
54.0136
54.0131
54.0128
54.0123
53.9298
53.9334
53.9331
53.9359
53.9359
53.9378
53.9384
53.9417
53.9406
53.9431
53.945
53.951
53.9509
53.949
53.9519
53.9541
53.9583
53.9704
53.9632
53.9589
53.9619
53.9648
53.9644
53.9803
53.9879
53.9735
53.9696
53.9719
53.9738
53.9751
53.9762
53.9773
53.9783
53.9792
53.9802
53.9811
53.982
53.9828
53.9837
53.9846
53.9854
53.9863
53.9871
53.988
53.9888
53.9896
53.9903
53.9911
53.9916
53.9924
53.993
53.9934
53.9942
53.9955
53.9973
53.9975
54.0166
54.0029
53.9955
53.9968
53.9988
54.0071
54.0001
53.9973
53.9978
53.9985
53.9989
53.9993
53.9997
54.0001
54.0006
54.0011
54.0014
54.0017
54.0022
54.0029
54.0034
54.004
54.0048
54.0057
54.0064
54.0063
54.0059
54.0065
54.0074
54.0086
54.009
54.0065
54.0005
53.9979
53.9981
54.0008
54.0082
54.0146
54.0181
54.0194
54.0194
54.019
54.0188
54.0187
54.0187
54.0187
54.0187
54.0188
54.0189
54.0189
54.019
54.0191
54.0192
54.0193
54.0194
54.0195
54.0196
54.0197
54.0198
54.0199
54.02
54.0201
54.0202
54.0203
54.0204
54.0205
54.0206
54.0207
54.0209
54.021
54.0211
54.0212
54.0213
54.0214
54.0216
54.0217
54.0218
54.0219
54.0221
54.0222
54.0223
54.0224
54.0225
54.0226
54.0227
54.0228
54.0228
54.0229
54.023
54.023
54.0231
54.0231
54.0231
54.0231
54.0231
54.0231
54.0231
54.023
54.023
54.0229
54.0229
54.0228
54.0227
54.0226
54.0225
54.0224
54.0222
54.0221
54.0219
54.0218
54.0216
54.0215
54.0213
54.0211
54.0209
54.0207
54.0205
54.0203
54.0201
54.0199
54.0196
54.0195
54.0192
54.019
54.0186
54.0185
54.0181
54.018
54.0176
54.0175
54.017
54.0169
54.0163
54.0162
54.0156
54.0156
54.015
54.0149
54.0142
54.0141
54.0135
54.0131
54.013
54.0121
53.9318
53.9341
53.9366
53.9406
53.9388
53.9398
53.9436
53.9502
53.9463
53.9465
53.95
53.9612
53.9603
53.9543
53.9554
53.9589
53.9682
53.982
53.9727
53.9631
53.9643
53.9677
53.9716
53.991
53.9991
53.9812
53.9725
53.9737
53.9753
53.9764
53.9774
53.9784
53.9794
53.9803
53.9813
53.9822
53.9831
53.9839
53.9848
53.9856
53.9865
53.9873
53.9881
53.9889
53.9898
53.9905
53.9913
53.992
53.9926
53.9933
53.994
53.9945
53.9952
53.9963
53.9975
54.0032
54.027
54.0111
53.9986
53.9983
54.0011
54.0133
54.0048
53.9995
53.9993
53.9998
54.0001
54.0004
54.0008
54.0012
54.0016
54.0021
54.0026
54.0032
54.0037
54.0041
54.0047
54.0055
54.0061
54.0067
54.0075
54.0086
54.0095
54.0099
54.0093
54.0093
54.0101
54.0112
54.0117
54.0086
54.0013
53.9993
54.0009
54.0084
54.0159
54.0192
54.02
54.0196