/*--------------------------------*- C++ -*----------------------------------*\
| =========                 |                                                 |
| \\      /  F ield         | OpenFOAM: The Open Source CFD Toolbox           |
|  \\    /   O peration     | Version:  3.0.x                                 |
|   \\  /    A nd           | Web:      www.OpenFOAM.org                      |
|    \\/     M anipulation  |                                                 |
\*---------------------------------------------------------------------------*/
FoamFile
{
    version     2.0;
    format      ascii;
    class       volScalarField;
    location    "0.4";
    object      p;
}
// * * * * * * * * * * * * * * * * * * * * * * * * * * * * * * * * * * * * * //

dimensions      [1 -1 -2 0 0 0 0];

internalField   nonuniform List<scalar> 
6900
(
1.8194e+07
1.8194e+07
1.8194e+07
1.8194e+07
1.8194e+07
1.8194e+07
1.8194e+07
1.8194e+07
1.8194e+07
1.8194e+07
1.8194e+07
1.81941e+07
1.81941e+07
1.81941e+07
1.81941e+07
1.81941e+07
1.81941e+07
1.81941e+07
1.81941e+07
1.81941e+07
1.81941e+07
1.81941e+07
1.81941e+07
1.81941e+07
1.81941e+07
1.81941e+07
1.81941e+07
1.81941e+07
1.81941e+07
1.81942e+07
1.81942e+07
1.81942e+07
1.81942e+07
1.81943e+07
1.81943e+07
1.81943e+07
1.81944e+07
1.81944e+07
1.81944e+07
1.81945e+07
1.81945e+07
1.81945e+07
1.81945e+07
1.81946e+07
1.81946e+07
1.81946e+07
1.81946e+07
1.81946e+07
1.81946e+07
1.81946e+07
1.81946e+07
1.81946e+07
1.81946e+07
1.81946e+07
1.81946e+07
1.81946e+07
1.81946e+07
1.81946e+07
1.81946e+07
1.81946e+07
1.81946e+07
1.81946e+07
1.81946e+07
1.81947e+07
1.81947e+07
1.81947e+07
1.81947e+07
1.81948e+07
1.81948e+07
1.81949e+07
1.81949e+07
1.8195e+07
1.8195e+07
1.8195e+07
1.81951e+07
1.81951e+07
1.81952e+07
1.81952e+07
1.81953e+07
1.81953e+07
1.81953e+07
1.81953e+07
1.81953e+07
1.81953e+07
1.81953e+07
1.81953e+07
1.81953e+07
1.81952e+07
1.81952e+07
1.81952e+07
1.81951e+07
1.81951e+07
1.81951e+07
1.8195e+07
1.8195e+07
1.8195e+07
1.8195e+07
1.81949e+07
1.81949e+07
1.81949e+07
1.8195e+07
1.8195e+07
1.8195e+07
1.8195e+07
1.81951e+07
1.81951e+07
1.81952e+07
1.81953e+07
1.81953e+07
1.81954e+07
1.81954e+07
1.81955e+07
1.81955e+07
1.81956e+07
1.81956e+07
1.81957e+07
1.81957e+07
1.81957e+07
1.81957e+07
1.81957e+07
1.81956e+07
1.81956e+07
1.81956e+07
1.81955e+07
1.81955e+07
1.81954e+07
1.81953e+07
1.81953e+07
1.81952e+07
1.81951e+07
1.81951e+07
1.8195e+07
1.8195e+07
1.8195e+07
1.81949e+07
1.81949e+07
1.81949e+07
1.8195e+07
1.8195e+07
1.8195e+07
1.81951e+07
1.81952e+07
1.81952e+07
1.81953e+07
1.81954e+07
1.81955e+07
1.81956e+07
1.81957e+07
1.81957e+07
1.81958e+07
1.81959e+07
1.81959e+07
1.81959e+07
1.81959e+07
1.81959e+07
1.81959e+07
1.81959e+07
1.81958e+07
1.81958e+07
1.81957e+07
1.81956e+07
1.81955e+07
1.81955e+07
1.81954e+07
1.81953e+07
1.81952e+07
1.81951e+07
1.81951e+07
1.8195e+07
1.8195e+07
1.8195e+07
1.81949e+07
1.8195e+07
1.8195e+07
1.81951e+07
1.81951e+07
1.81952e+07
1.81954e+07
1.81955e+07
1.81956e+07
1.81958e+07
1.81959e+07
1.81961e+07
1.81962e+07
1.81964e+07
1.81965e+07
1.81966e+07
1.81966e+07
1.81967e+07
1.81967e+07
1.81967e+07
1.81967e+07
1.81967e+07
1.81967e+07
1.81966e+07
1.81966e+07
1.81966e+07
1.81965e+07
1.81966e+07
1.81972e+07
1.8194e+07
1.8194e+07
1.8194e+07
1.8194e+07
1.8194e+07
1.8194e+07
1.8194e+07
1.8194e+07
1.8194e+07
1.8194e+07
1.8194e+07
1.81941e+07
1.81941e+07
1.81941e+07
1.81941e+07
1.81941e+07
1.81941e+07
1.81941e+07
1.81941e+07
1.81941e+07
1.81941e+07
1.81941e+07
1.81941e+07
1.81941e+07
1.81941e+07
1.81941e+07
1.81941e+07
1.81941e+07
1.81941e+07
1.81942e+07
1.81942e+07
1.81942e+07
1.81942e+07
1.81943e+07
1.81943e+07
1.81943e+07
1.81944e+07
1.81944e+07
1.81944e+07
1.81945e+07
1.81945e+07
1.81945e+07
1.81945e+07
1.81946e+07
1.81946e+07
1.81946e+07
1.81946e+07
1.81946e+07
1.81946e+07
1.81946e+07
1.81946e+07
1.81946e+07
1.81946e+07
1.81946e+07
1.81946e+07
1.81946e+07
1.81946e+07
1.81946e+07
1.81946e+07
1.81946e+07
1.81946e+07
1.81946e+07
1.81946e+07
1.81947e+07
1.81947e+07
1.81947e+07
1.81947e+07
1.81948e+07
1.81948e+07
1.81949e+07
1.81949e+07
1.8195e+07
1.8195e+07
1.8195e+07
1.81951e+07
1.81951e+07
1.81952e+07
1.81952e+07
1.81953e+07
1.81953e+07
1.81953e+07
1.81953e+07
1.81953e+07
1.81953e+07
1.81953e+07
1.81953e+07
1.81953e+07
1.81952e+07
1.81952e+07
1.81952e+07
1.81951e+07
1.81951e+07
1.81951e+07
1.8195e+07
1.8195e+07
1.8195e+07
1.8195e+07
1.81949e+07
1.81949e+07
1.81949e+07
1.8195e+07
1.8195e+07
1.8195e+07
1.8195e+07
1.81951e+07
1.81951e+07
1.81952e+07
1.81953e+07
1.81953e+07
1.81954e+07
1.81954e+07
1.81955e+07
1.81955e+07
1.81956e+07
1.81956e+07
1.81957e+07
1.81957e+07
1.81957e+07
1.81957e+07
1.81957e+07
1.81956e+07
1.81956e+07
1.81956e+07
1.81955e+07
1.81955e+07
1.81954e+07
1.81953e+07
1.81953e+07
1.81952e+07
1.81951e+07
1.81951e+07
1.8195e+07
1.8195e+07
1.8195e+07
1.81949e+07
1.81949e+07
1.81949e+07
1.8195e+07
1.8195e+07
1.8195e+07
1.81951e+07
1.81952e+07
1.81952e+07
1.81953e+07
1.81954e+07
1.81955e+07
1.81956e+07
1.81957e+07
1.81957e+07
1.81958e+07
1.81959e+07
1.81959e+07
1.81959e+07
1.81959e+07
1.81959e+07
1.81959e+07
1.81959e+07
1.81958e+07
1.81958e+07
1.81957e+07
1.81956e+07
1.81955e+07
1.81955e+07
1.81954e+07
1.81953e+07
1.81952e+07
1.81951e+07
1.81951e+07
1.8195e+07
1.8195e+07
1.8195e+07
1.81949e+07
1.8195e+07
1.8195e+07
1.81951e+07
1.81951e+07
1.81952e+07
1.81954e+07
1.81955e+07
1.81956e+07
1.81958e+07
1.81959e+07
1.81961e+07
1.81962e+07
1.81964e+07
1.81965e+07
1.81966e+07
1.81966e+07
1.81967e+07
1.81967e+07
1.81967e+07
1.81967e+07
1.81967e+07
1.81967e+07
1.81966e+07
1.81966e+07
1.81966e+07
1.81965e+07
1.81966e+07
1.81972e+07
1.8194e+07
1.8194e+07
1.8194e+07
1.8194e+07
1.8194e+07
1.8194e+07
1.8194e+07
1.8194e+07
1.8194e+07
1.8194e+07
1.8194e+07
1.81941e+07
1.81941e+07
1.81941e+07
1.81941e+07
1.81941e+07
1.81941e+07
1.81941e+07
1.81941e+07
1.81941e+07
1.81941e+07
1.81941e+07
1.81941e+07
1.81941e+07
1.81941e+07
1.81941e+07
1.81941e+07
1.81941e+07
1.81941e+07
1.81942e+07
1.81942e+07
1.81942e+07
1.81942e+07
1.81943e+07
1.81943e+07
1.81943e+07
1.81944e+07
1.81944e+07
1.81944e+07
1.81945e+07
1.81945e+07
1.81945e+07
1.81945e+07
1.81946e+07
1.81946e+07
1.81946e+07
1.81946e+07
1.81946e+07
1.81946e+07
1.81946e+07
1.81946e+07
1.81946e+07
1.81946e+07
1.81946e+07
1.81946e+07
1.81946e+07
1.81946e+07
1.81946e+07
1.81946e+07
1.81946e+07
1.81946e+07
1.81946e+07
1.81946e+07
1.81947e+07
1.81947e+07
1.81947e+07
1.81947e+07
1.81948e+07
1.81948e+07
1.81949e+07
1.81949e+07
1.8195e+07
1.8195e+07
1.8195e+07
1.81951e+07
1.81951e+07
1.81952e+07
1.81952e+07
1.81953e+07
1.81953e+07
1.81953e+07
1.81953e+07
1.81953e+07
1.81953e+07
1.81953e+07
1.81953e+07
1.81953e+07
1.81952e+07
1.81952e+07
1.81952e+07
1.81951e+07
1.81951e+07
1.81951e+07
1.8195e+07
1.8195e+07
1.8195e+07
1.8195e+07
1.81949e+07
1.81949e+07
1.81949e+07
1.8195e+07
1.8195e+07
1.8195e+07
1.8195e+07
1.81951e+07
1.81951e+07
1.81952e+07
1.81953e+07
1.81953e+07
1.81954e+07
1.81954e+07
1.81955e+07
1.81955e+07
1.81956e+07
1.81956e+07
1.81957e+07
1.81957e+07
1.81957e+07
1.81957e+07
1.81957e+07
1.81956e+07
1.81956e+07
1.81956e+07
1.81955e+07
1.81955e+07
1.81954e+07
1.81953e+07
1.81953e+07
1.81952e+07
1.81951e+07
1.81951e+07
1.8195e+07
1.8195e+07
1.8195e+07
1.81949e+07
1.81949e+07
1.81949e+07
1.8195e+07
1.8195e+07
1.8195e+07
1.81951e+07
1.81952e+07
1.81952e+07
1.81953e+07
1.81954e+07
1.81955e+07
1.81956e+07
1.81957e+07
1.81957e+07
1.81958e+07
1.81959e+07
1.81959e+07
1.81959e+07
1.81959e+07
1.81959e+07
1.81959e+07
1.81959e+07
1.81958e+07
1.81958e+07
1.81957e+07
1.81956e+07
1.81955e+07
1.81955e+07
1.81954e+07
1.81953e+07
1.81952e+07
1.81951e+07
1.81951e+07
1.8195e+07
1.8195e+07
1.8195e+07
1.81949e+07
1.8195e+07
1.8195e+07
1.81951e+07
1.81951e+07
1.81952e+07
1.81954e+07
1.81955e+07
1.81956e+07
1.81958e+07
1.81959e+07
1.81961e+07
1.81962e+07
1.81964e+07
1.81965e+07
1.81966e+07
1.81966e+07
1.81967e+07
1.81967e+07
1.81967e+07
1.81967e+07
1.81967e+07
1.81967e+07
1.81966e+07
1.81966e+07
1.81965e+07
1.81965e+07
1.81965e+07
1.81965e+07
1.8194e+07
1.8194e+07
1.8194e+07
1.8194e+07
1.8194e+07
1.8194e+07
1.8194e+07
1.8194e+07
1.8194e+07
1.8194e+07
1.8194e+07
1.81941e+07
1.81941e+07
1.81941e+07
1.81941e+07
1.81941e+07
1.81941e+07
1.81941e+07
1.81941e+07
1.81941e+07
1.81941e+07
1.81941e+07
1.81941e+07
1.81941e+07
1.81941e+07
1.81941e+07
1.81941e+07
1.81941e+07
1.81941e+07
1.81942e+07
1.81942e+07
1.81942e+07
1.81942e+07
1.81943e+07
1.81943e+07
1.81943e+07
1.81944e+07
1.81944e+07
1.81944e+07
1.81945e+07
1.81945e+07
1.81945e+07
1.81945e+07
1.81946e+07
1.81946e+07
1.81946e+07
1.81946e+07
1.81946e+07
1.81946e+07
1.81946e+07
1.81946e+07
1.81946e+07
1.81946e+07
1.81946e+07
1.81946e+07
1.81946e+07
1.81946e+07
1.81946e+07
1.81946e+07
1.81946e+07
1.81946e+07
1.81946e+07
1.81946e+07
1.81947e+07
1.81947e+07
1.81947e+07
1.81947e+07
1.81948e+07
1.81948e+07
1.81949e+07
1.81949e+07
1.8195e+07
1.8195e+07
1.8195e+07
1.81951e+07
1.81951e+07
1.81952e+07
1.81952e+07
1.81953e+07
1.81953e+07
1.81953e+07
1.81953e+07
1.81953e+07
1.81953e+07
1.81953e+07
1.81953e+07
1.81953e+07
1.81952e+07
1.81952e+07
1.81952e+07
1.81951e+07
1.81951e+07
1.81951e+07
1.8195e+07
1.8195e+07
1.8195e+07
1.8195e+07
1.81949e+07
1.81949e+07
1.81949e+07
1.8195e+07
1.8195e+07
1.8195e+07
1.8195e+07
1.81951e+07
1.81951e+07
1.81952e+07
1.81953e+07
1.81953e+07
1.81954e+07
1.81954e+07
1.81955e+07
1.81955e+07
1.81956e+07
1.81956e+07
1.81957e+07
1.81957e+07
1.81957e+07
1.81957e+07
1.81957e+07
1.81956e+07
1.81956e+07
1.81956e+07
1.81955e+07
1.81955e+07
1.81954e+07
1.81953e+07
1.81953e+07
1.81952e+07
1.81951e+07
1.81951e+07
1.8195e+07
1.8195e+07
1.8195e+07
1.81949e+07
1.81949e+07
1.81949e+07
1.8195e+07
1.8195e+07
1.8195e+07
1.81951e+07
1.81952e+07
1.81952e+07
1.81953e+07
1.81954e+07
1.81955e+07
1.81956e+07
1.81957e+07
1.81957e+07
1.81958e+07
1.81959e+07
1.81959e+07
1.81959e+07
1.81959e+07
1.81959e+07
1.81959e+07
1.81959e+07
1.81958e+07
1.81958e+07
1.81957e+07
1.81956e+07
1.81955e+07
1.81955e+07
1.81954e+07
1.81953e+07
1.81952e+07
1.81951e+07
1.81951e+07
1.8195e+07
1.8195e+07
1.8195e+07
1.81949e+07
1.8195e+07
1.8195e+07
1.81951e+07
1.81951e+07
1.81952e+07
1.81954e+07
1.81955e+07
1.81956e+07
1.81958e+07
1.81959e+07
1.81961e+07
1.81962e+07
1.81964e+07
1.81965e+07
1.81966e+07
1.81966e+07
1.81967e+07
1.81967e+07
1.81967e+07
1.81967e+07
1.81967e+07
1.81967e+07
1.81966e+07
1.81966e+07
1.81965e+07
1.81965e+07
1.81962e+07
1.81954e+07
1.8194e+07
1.8194e+07
1.8194e+07
1.8194e+07
1.8194e+07
1.8194e+07
1.8194e+07
1.8194e+07
1.8194e+07
1.8194e+07
1.8194e+07
1.81941e+07
1.81941e+07
1.81941e+07
1.81941e+07
1.81941e+07
1.81941e+07
1.81941e+07
1.81941e+07
1.81941e+07
1.81941e+07
1.81941e+07
1.81941e+07
1.81941e+07
1.81941e+07
1.81941e+07
1.81941e+07
1.81941e+07
1.81941e+07
1.81942e+07
1.81942e+07
1.81942e+07
1.81942e+07
1.81943e+07
1.81943e+07
1.81943e+07
1.81944e+07
1.81944e+07
1.81944e+07
1.81945e+07
1.81945e+07
1.81945e+07
1.81945e+07
1.81946e+07
1.81946e+07
1.81946e+07
1.81946e+07
1.81946e+07
1.81946e+07
1.81946e+07
1.81946e+07
1.81946e+07
1.81946e+07
1.81946e+07
1.81946e+07
1.81946e+07
1.81946e+07
1.81946e+07
1.81946e+07
1.81946e+07
1.81946e+07
1.81946e+07
1.81946e+07
1.81947e+07
1.81947e+07
1.81947e+07
1.81947e+07
1.81948e+07
1.81948e+07
1.81949e+07
1.81949e+07
1.8195e+07
1.8195e+07
1.8195e+07
1.81951e+07
1.81951e+07
1.81952e+07
1.81952e+07
1.81953e+07
1.81953e+07
1.81953e+07
1.81953e+07
1.81953e+07
1.81953e+07
1.81953e+07
1.81953e+07
1.81953e+07
1.81952e+07
1.81952e+07
1.81952e+07
1.81951e+07
1.81951e+07
1.81951e+07
1.8195e+07
1.8195e+07
1.8195e+07
1.8195e+07
1.81949e+07
1.81949e+07
1.81949e+07
1.8195e+07
1.8195e+07
1.8195e+07
1.8195e+07
1.81951e+07
1.81951e+07
1.81952e+07
1.81953e+07
1.81953e+07
1.81954e+07
1.81954e+07
1.81955e+07
1.81955e+07
1.81956e+07
1.81956e+07
1.81957e+07
1.81957e+07
1.81957e+07
1.81957e+07
1.81957e+07
1.81956e+07
1.81956e+07
1.81956e+07
1.81955e+07
1.81955e+07
1.81954e+07
1.81953e+07
1.81953e+07
1.81952e+07
1.81951e+07
1.81951e+07
1.8195e+07
1.8195e+07
1.8195e+07
1.81949e+07
1.81949e+07
1.81949e+07
1.8195e+07
1.8195e+07
1.8195e+07
1.81951e+07
1.81952e+07
1.81952e+07
1.81953e+07
1.81954e+07
1.81955e+07
1.81956e+07
1.81957e+07
1.81957e+07
1.81958e+07
1.81959e+07
1.81959e+07
1.81959e+07
1.81959e+07
1.81959e+07
1.81959e+07
1.81959e+07
1.81958e+07
1.81958e+07
1.81957e+07
1.81956e+07
1.81955e+07
1.81955e+07
1.81954e+07
1.81953e+07
1.81952e+07
1.81951e+07
1.81951e+07
1.8195e+07
1.8195e+07
1.8195e+07
1.81949e+07
1.8195e+07
1.8195e+07
1.81951e+07
1.81951e+07
1.81952e+07
1.81954e+07
1.81955e+07
1.81956e+07
1.81958e+07
1.81959e+07
1.81961e+07
1.81962e+07
1.81964e+07
1.81965e+07
1.81966e+07
1.81966e+07
1.81967e+07
1.81967e+07
1.81967e+07
1.81967e+07
1.81967e+07
1.81967e+07
1.81966e+07
1.81966e+07
1.81965e+07
1.81965e+07
1.81962e+07
1.81954e+07
1.82036e+07
1.82065e+07
1.82067e+07
1.8206e+07
1.82054e+07
1.82049e+07
1.82046e+07
1.82041e+07
1.82026e+07
1.81997e+07
1.81969e+07
1.81948e+07
1.81932e+07
1.81927e+07
1.81947e+07
1.81977e+07
1.81986e+07
1.81951e+07
1.81876e+07
1.81786e+07
1.8202e+07
1.82034e+07
1.82033e+07
1.82026e+07
1.82019e+07
1.82014e+07
1.82011e+07
1.82005e+07
1.81989e+07
1.81957e+07
1.81928e+07
1.81908e+07
1.81894e+07
1.81891e+07
1.81912e+07
1.81939e+07
1.81941e+07
1.81896e+07
1.8181e+07
1.81721e+07
1.81968e+07
1.81967e+07
1.81963e+07
1.81954e+07
1.81942e+07
1.81927e+07
1.81909e+07
1.81889e+07
1.81866e+07
1.81842e+07
1.81815e+07
1.81783e+07
1.81747e+07
1.81708e+07
1.81666e+07
1.81622e+07
1.81582e+07
1.81544e+07
1.81509e+07
1.81471e+07
1.81865e+07
1.81854e+07
1.81858e+07
1.81864e+07
1.81859e+07
1.81842e+07
1.81818e+07
1.81787e+07
1.8176e+07
1.81727e+07
1.81697e+07
1.81668e+07
1.81639e+07
1.81612e+07
1.81588e+07
1.81564e+07
1.81543e+07
1.81524e+07
1.8151e+07
1.81501e+07
1.81816e+07
1.81766e+07
1.81748e+07
1.81747e+07
1.81739e+07
1.8172e+07
1.81693e+07
1.81659e+07
1.81627e+07
1.8159e+07
1.81556e+07
1.81522e+07
1.8149e+07
1.81459e+07
1.8143e+07
1.81404e+07
1.8138e+07
1.81361e+07
1.81348e+07
1.81349e+07
1.81491e+07
1.81465e+07
1.8151e+07
1.81488e+07
1.81462e+07
1.81457e+07
1.81459e+07
1.8146e+07
1.81459e+07
1.81458e+07
1.81459e+07
1.8146e+07
1.81461e+07
1.81462e+07
1.81463e+07
1.81464e+07
1.81466e+07
1.81467e+07
1.81469e+07
1.81471e+07
1.81472e+07
1.81474e+07
1.81476e+07
1.81479e+07
1.81481e+07
1.81483e+07
1.81486e+07
1.81488e+07
1.81491e+07
1.81494e+07
1.81497e+07
1.815e+07
1.81503e+07
1.81506e+07
1.8151e+07
1.81513e+07
1.81517e+07
1.8152e+07
1.81524e+07
1.81527e+07
1.81531e+07
1.81535e+07
1.81539e+07
1.81542e+07
1.81546e+07
1.8155e+07
1.81554e+07
1.81558e+07
1.81562e+07
1.81567e+07
1.81571e+07
1.81575e+07
1.8158e+07
1.81585e+07
1.81589e+07
1.81594e+07
1.81599e+07
1.81604e+07
1.8161e+07
1.81615e+07
1.81621e+07
1.81627e+07
1.81633e+07
1.81639e+07
1.81646e+07
1.81653e+07
1.81659e+07
1.81664e+07
1.8167e+07
1.81677e+07
1.81683e+07
1.81691e+07
1.81698e+07
1.81705e+07
1.81713e+07
1.81721e+07
1.8173e+07
1.81738e+07
1.81747e+07
1.81756e+07
1.81766e+07
1.81776e+07
1.81786e+07
1.81796e+07
1.81807e+07
1.81818e+07
1.81828e+07
1.8184e+07
1.81851e+07
1.81862e+07
1.81874e+07
1.81885e+07
1.81897e+07
1.81908e+07
1.8192e+07
1.81932e+07
1.81943e+07
1.81955e+07
1.81967e+07
1.81979e+07
1.81991e+07
1.82002e+07
1.82014e+07
1.82027e+07
1.82039e+07
1.82051e+07
1.82064e+07
1.82076e+07
1.82089e+07
1.82102e+07
1.82115e+07
1.82128e+07
1.82142e+07
1.82155e+07
1.82169e+07
1.82183e+07
1.82197e+07
1.82211e+07
1.82225e+07
1.82239e+07
1.82254e+07
1.82268e+07
1.82283e+07
1.82298e+07
1.82313e+07
1.82328e+07
1.82344e+07
1.82359e+07
1.82375e+07
1.82391e+07
1.82407e+07
1.82423e+07
1.8244e+07
1.82457e+07
1.82474e+07
1.82491e+07
1.82508e+07
1.82525e+07
1.82543e+07
1.82561e+07
1.82579e+07
1.82597e+07
1.82616e+07
1.82635e+07
1.82654e+07
1.82673e+07
1.82692e+07
1.82712e+07
1.82732e+07
1.82752e+07
1.82772e+07
1.82792e+07
1.82813e+07
1.82833e+07
1.82854e+07
1.82875e+07
1.82896e+07
1.82917e+07
1.82939e+07
1.8296e+07
1.82982e+07
1.83004e+07
1.83026e+07
1.83048e+07
1.8307e+07
1.83092e+07
1.83114e+07
1.83137e+07
1.8316e+07
1.83182e+07
1.83205e+07
1.83229e+07
1.83252e+07
1.83275e+07
1.83299e+07
1.83323e+07
1.83347e+07
1.83371e+07
1.83395e+07
1.8342e+07
1.83444e+07
1.83469e+07
1.83494e+07
1.83519e+07
1.83544e+07
1.83569e+07
1.83595e+07
1.83621e+07
1.83647e+07
1.83673e+07
1.83699e+07
1.83726e+07
1.83753e+07
1.8378e+07
1.83807e+07
1.83835e+07
1.83862e+07
1.8389e+07
1.83916e+07
1.83938e+07
1.81473e+07
1.81464e+07
1.8151e+07
1.81488e+07
1.81462e+07
1.81457e+07
1.81459e+07
1.8146e+07
1.81459e+07
1.81458e+07
1.81459e+07
1.8146e+07
1.81461e+07
1.81462e+07
1.81463e+07
1.81464e+07
1.81466e+07
1.81467e+07
1.81469e+07
1.81471e+07
1.81472e+07
1.81474e+07
1.81476e+07
1.81479e+07
1.81481e+07
1.81483e+07
1.81486e+07
1.81488e+07
1.81491e+07
1.81494e+07
1.81497e+07
1.815e+07
1.81503e+07
1.81506e+07
1.8151e+07
1.81513e+07
1.81517e+07
1.8152e+07
1.81524e+07
1.81527e+07
1.81531e+07
1.81535e+07
1.81539e+07
1.81542e+07
1.81546e+07
1.8155e+07
1.81554e+07
1.81558e+07
1.81562e+07
1.81567e+07
1.81571e+07
1.81575e+07
1.8158e+07
1.81585e+07
1.81589e+07
1.81594e+07
1.81599e+07
1.81604e+07
1.8161e+07
1.81615e+07
1.81621e+07
1.81627e+07
1.81633e+07
1.81639e+07
1.81646e+07
1.81653e+07
1.81659e+07
1.81664e+07
1.8167e+07
1.81676e+07
1.81683e+07
1.81691e+07
1.81698e+07
1.81705e+07
1.81713e+07
1.81721e+07
1.8173e+07
1.81738e+07
1.81747e+07
1.81756e+07
1.81766e+07
1.81776e+07
1.81786e+07
1.81796e+07
1.81807e+07
1.81817e+07
1.81828e+07
1.8184e+07
1.81851e+07
1.81862e+07
1.81873e+07
1.81885e+07
1.81897e+07
1.81908e+07
1.8192e+07
1.81932e+07
1.81943e+07
1.81955e+07
1.81967e+07
1.81979e+07
1.81991e+07
1.82002e+07
1.82014e+07
1.82027e+07
1.82039e+07
1.82051e+07
1.82064e+07
1.82076e+07
1.82089e+07
1.82102e+07
1.82115e+07
1.82128e+07
1.82142e+07
1.82155e+07
1.82169e+07
1.82183e+07
1.82197e+07
1.82211e+07
1.82225e+07
1.82239e+07
1.82254e+07
1.82268e+07
1.82283e+07
1.82298e+07
1.82313e+07
1.82328e+07
1.82344e+07
1.82359e+07
1.82375e+07
1.82391e+07
1.82407e+07
1.82423e+07
1.8244e+07
1.82457e+07
1.82474e+07
1.82491e+07
1.82508e+07
1.82525e+07
1.82543e+07
1.82561e+07
1.82579e+07
1.82597e+07
1.82616e+07
1.82635e+07
1.82654e+07
1.82673e+07
1.82692e+07
1.82712e+07
1.82732e+07
1.82752e+07
1.82772e+07
1.82792e+07
1.82813e+07
1.82833e+07
1.82854e+07
1.82875e+07
1.82896e+07
1.82917e+07
1.82939e+07
1.8296e+07
1.82982e+07
1.83004e+07
1.83026e+07
1.83048e+07
1.8307e+07
1.83092e+07
1.83114e+07
1.83137e+07
1.8316e+07
1.83182e+07
1.83205e+07
1.83229e+07
1.83252e+07
1.83275e+07
1.83299e+07
1.83323e+07
1.83347e+07
1.83371e+07
1.83395e+07
1.8342e+07
1.83444e+07
1.83469e+07
1.83494e+07
1.83519e+07
1.83544e+07
1.83569e+07
1.83595e+07
1.83621e+07
1.83647e+07
1.83673e+07
1.83699e+07
1.83726e+07
1.83753e+07
1.8378e+07
1.83807e+07
1.83835e+07
1.83862e+07
1.8389e+07
1.83916e+07
1.83938e+07
1.81374e+07
1.81423e+07
1.81453e+07
1.81457e+07
1.81455e+07
1.81454e+07
1.81455e+07
1.81456e+07
1.81457e+07
1.81458e+07
1.81459e+07
1.8146e+07
1.81461e+07
1.81462e+07
1.81463e+07
1.81464e+07
1.81466e+07
1.81467e+07
1.81469e+07
1.81471e+07
1.81472e+07
1.81474e+07
1.81476e+07
1.81479e+07
1.81481e+07
1.81483e+07
1.81486e+07
1.81488e+07
1.81491e+07
1.81494e+07
1.81497e+07
1.815e+07
1.81503e+07
1.81506e+07
1.8151e+07
1.81513e+07
1.81517e+07
1.8152e+07
1.81524e+07
1.81527e+07
1.81531e+07
1.81535e+07
1.81539e+07
1.81543e+07
1.81546e+07
1.8155e+07
1.81554e+07
1.81558e+07
1.81563e+07
1.81567e+07
1.81571e+07
1.81575e+07
1.8158e+07
1.81585e+07
1.81589e+07
1.81594e+07
1.81599e+07
1.81604e+07
1.8161e+07
1.81615e+07
1.81621e+07
1.81627e+07
1.81632e+07
1.81638e+07
1.81644e+07
1.8165e+07
1.81657e+07
1.81663e+07
1.8167e+07
1.81677e+07
1.81684e+07
1.81691e+07
1.81699e+07
1.81707e+07
1.81714e+07
1.81723e+07
1.81731e+07
1.8174e+07
1.81749e+07
1.81758e+07
1.81767e+07
1.81777e+07
1.81787e+07
1.81798e+07
1.81808e+07
1.81819e+07
1.8183e+07
1.81841e+07
1.81852e+07
1.81863e+07
1.81874e+07
1.81885e+07
1.81897e+07
1.81909e+07
1.8192e+07
1.81932e+07
1.81943e+07
1.81955e+07
1.81967e+07
1.81979e+07
1.81991e+07
1.82002e+07
1.82014e+07
1.82027e+07
1.82039e+07
1.82051e+07
1.82064e+07
1.82076e+07
1.82089e+07
1.82102e+07
1.82115e+07
1.82128e+07
1.82142e+07
1.82155e+07
1.82169e+07
1.82183e+07
1.82197e+07
1.82211e+07
1.82225e+07
1.82239e+07
1.82254e+07
1.82268e+07
1.82283e+07
1.82298e+07
1.82313e+07
1.82328e+07
1.82344e+07
1.82359e+07
1.82375e+07
1.82391e+07
1.82407e+07
1.82423e+07
1.8244e+07
1.82457e+07
1.82474e+07
1.82491e+07
1.82508e+07
1.82525e+07
1.82543e+07
1.82561e+07
1.82579e+07
1.82597e+07
1.82616e+07
1.82635e+07
1.82654e+07
1.82673e+07
1.82692e+07
1.82712e+07
1.82732e+07
1.82752e+07
1.82772e+07
1.82792e+07
1.82813e+07
1.82833e+07
1.82854e+07
1.82875e+07
1.82896e+07
1.82917e+07
1.82939e+07
1.8296e+07
1.82982e+07
1.83004e+07
1.83026e+07
1.83048e+07
1.8307e+07
1.83092e+07
1.83114e+07
1.83137e+07
1.8316e+07
1.83182e+07
1.83205e+07
1.83229e+07
1.83252e+07
1.83275e+07
1.83299e+07
1.83323e+07
1.83347e+07
1.83371e+07
1.83395e+07
1.8342e+07
1.83444e+07
1.83469e+07
1.83494e+07
1.83519e+07
1.83544e+07
1.83569e+07
1.83595e+07
1.83621e+07
1.83647e+07
1.83673e+07
1.83699e+07
1.83726e+07
1.83753e+07
1.8378e+07
1.83807e+07
1.83835e+07
1.83862e+07
1.8389e+07
1.83919e+07
1.83947e+07
1.81478e+07
1.81474e+07
1.81468e+07
1.81461e+07
1.81457e+07
1.81456e+07
1.81456e+07
1.81456e+07
1.81457e+07
1.81458e+07
1.81459e+07
1.8146e+07
1.81461e+07
1.81462e+07
1.81463e+07
1.81465e+07
1.81466e+07
1.81467e+07
1.81469e+07
1.81471e+07
1.81473e+07
1.81474e+07
1.81476e+07
1.81479e+07
1.81481e+07
1.81483e+07
1.81486e+07
1.81488e+07
1.81491e+07
1.81494e+07
1.81497e+07
1.815e+07
1.81503e+07
1.81507e+07
1.8151e+07
1.81513e+07
1.81517e+07
1.8152e+07
1.81524e+07
1.81528e+07
1.81531e+07
1.81535e+07
1.81539e+07
1.81543e+07
1.81546e+07
1.8155e+07
1.81554e+07
1.81558e+07
1.81563e+07
1.81567e+07
1.81571e+07
1.81576e+07
1.8158e+07
1.81585e+07
1.81589e+07
1.81594e+07
1.81599e+07
1.81605e+07
1.8161e+07
1.81615e+07
1.81621e+07
1.81627e+07
1.81633e+07
1.81639e+07
1.81645e+07
1.81651e+07
1.81657e+07
1.81664e+07
1.81671e+07
1.81678e+07
1.81685e+07
1.81692e+07
1.817e+07
1.81708e+07
1.81716e+07
1.81724e+07
1.81732e+07
1.81741e+07
1.8175e+07
1.81759e+07
1.81769e+07
1.81778e+07
1.81788e+07
1.81799e+07
1.81809e+07
1.8182e+07
1.8183e+07
1.81841e+07
1.81852e+07
1.81863e+07
1.81874e+07
1.81886e+07
1.81897e+07
1.81909e+07
1.8192e+07
1.81932e+07
1.81944e+07
1.81955e+07
1.81967e+07
1.81979e+07
1.81991e+07
1.82002e+07
1.82014e+07
1.82027e+07
1.82039e+07
1.82051e+07
1.82064e+07
1.82076e+07
1.82089e+07
1.82102e+07
1.82115e+07
1.82128e+07
1.82142e+07
1.82155e+07
1.82169e+07
1.82183e+07
1.82197e+07
1.82211e+07
1.82225e+07
1.82239e+07
1.82254e+07
1.82268e+07
1.82283e+07
1.82298e+07
1.82313e+07
1.82328e+07
1.82344e+07
1.82359e+07
1.82375e+07
1.82391e+07
1.82407e+07
1.82423e+07
1.8244e+07
1.82457e+07
1.82474e+07
1.82491e+07
1.82508e+07
1.82525e+07
1.82543e+07
1.82561e+07
1.82579e+07
1.82597e+07
1.82616e+07
1.82635e+07
1.82654e+07
1.82673e+07
1.82692e+07
1.82712e+07
1.82732e+07
1.82752e+07
1.82772e+07
1.82792e+07
1.82813e+07
1.82833e+07
1.82854e+07
1.82875e+07
1.82896e+07
1.82917e+07
1.82939e+07
1.8296e+07
1.82982e+07
1.83004e+07
1.83026e+07
1.83048e+07
1.8307e+07
1.83092e+07
1.83114e+07
1.83137e+07
1.8316e+07
1.83182e+07
1.83205e+07
1.83229e+07
1.83252e+07
1.83275e+07
1.83299e+07
1.83323e+07
1.83347e+07
1.83371e+07
1.83395e+07
1.8342e+07
1.83444e+07
1.83469e+07
1.83494e+07
1.83519e+07
1.83544e+07
1.83569e+07
1.83595e+07
1.83621e+07
1.83647e+07
1.83673e+07
1.83699e+07
1.83726e+07
1.83753e+07
1.8378e+07
1.83807e+07
1.83835e+07
1.83862e+07
1.83891e+07
1.8392e+07
1.83954e+07
1.8145e+07
1.8147e+07
1.81466e+07
1.81461e+07
1.81457e+07
1.81455e+07
1.81456e+07
1.81456e+07
1.81457e+07
1.81458e+07
1.81459e+07
1.8146e+07
1.81461e+07
1.81462e+07
1.81463e+07
1.81465e+07
1.81466e+07
1.81467e+07
1.81469e+07
1.81471e+07
1.81473e+07
1.81474e+07
1.81476e+07
1.81479e+07
1.81481e+07
1.81483e+07
1.81486e+07
1.81488e+07
1.81491e+07
1.81494e+07
1.81497e+07
1.815e+07
1.81503e+07
1.81507e+07
1.8151e+07
1.81513e+07
1.81517e+07
1.8152e+07
1.81524e+07
1.81528e+07
1.81531e+07
1.81535e+07
1.81539e+07
1.81543e+07
1.81546e+07
1.8155e+07
1.81554e+07
1.81558e+07
1.81563e+07
1.81567e+07
1.81571e+07
1.81576e+07
1.8158e+07
1.81585e+07
1.81589e+07
1.81594e+07
1.81599e+07
1.81605e+07
1.8161e+07
1.81615e+07
1.81621e+07
1.81627e+07
1.81633e+07
1.81639e+07
1.81645e+07
1.81651e+07
1.81657e+07
1.81664e+07
1.81671e+07
1.81678e+07
1.81685e+07
1.81692e+07
1.817e+07
1.81708e+07
1.81716e+07
1.81724e+07
1.81732e+07
1.81741e+07
1.8175e+07
1.81759e+07
1.81769e+07
1.81778e+07
1.81788e+07
1.81799e+07
1.81809e+07
1.8182e+07
1.8183e+07
1.81841e+07
1.81852e+07
1.81863e+07
1.81874e+07
1.81886e+07
1.81897e+07
1.81909e+07
1.8192e+07
1.81932e+07
1.81944e+07
1.81955e+07
1.81967e+07
1.81979e+07
1.81991e+07
1.82002e+07
1.82014e+07
1.82027e+07
1.82039e+07
1.82051e+07
1.82064e+07
1.82076e+07
1.82089e+07
1.82102e+07
1.82115e+07
1.82128e+07
1.82142e+07
1.82155e+07
1.82169e+07
1.82183e+07
1.82197e+07
1.82211e+07
1.82225e+07
1.82239e+07
1.82254e+07
1.82268e+07
1.82283e+07
1.82298e+07
1.82313e+07
1.82328e+07
1.82344e+07
1.82359e+07
1.82375e+07
1.82391e+07
1.82407e+07
1.82423e+07
1.8244e+07
1.82457e+07
1.82474e+07
1.82491e+07
1.82508e+07
1.82525e+07
1.82543e+07
1.82561e+07
1.82579e+07
1.82597e+07
1.82616e+07
1.82635e+07
1.82654e+07
1.82673e+07
1.82692e+07
1.82712e+07
1.82732e+07
1.82752e+07
1.82772e+07
1.82792e+07
1.82813e+07
1.82833e+07
1.82854e+07
1.82875e+07
1.82896e+07
1.82917e+07
1.82939e+07
1.8296e+07
1.82982e+07
1.83004e+07
1.83026e+07
1.83048e+07
1.8307e+07
1.83092e+07
1.83114e+07
1.83137e+07
1.8316e+07
1.83182e+07
1.83205e+07
1.83229e+07
1.83252e+07
1.83275e+07
1.83299e+07
1.83323e+07
1.83347e+07
1.83371e+07
1.83395e+07
1.8342e+07
1.83444e+07
1.83469e+07
1.83494e+07
1.83519e+07
1.83544e+07
1.83569e+07
1.83595e+07
1.83621e+07
1.83647e+07
1.83673e+07
1.83699e+07
1.83726e+07
1.83753e+07
1.8378e+07
1.83807e+07
1.83835e+07
1.83862e+07
1.83891e+07
1.8392e+07
1.83954e+07
1.83879e+07
1.8385e+07
1.83843e+07
1.83846e+07
1.83846e+07
1.83838e+07
1.83822e+07
1.83806e+07
1.8379e+07
1.83772e+07
1.83753e+07
1.83737e+07
1.8372e+07
1.83703e+07
1.83689e+07
1.83677e+07
1.83667e+07
1.83659e+07
1.83656e+07
1.8366e+07
1.83911e+07
1.8391e+07
1.83919e+07
1.83927e+07
1.83928e+07
1.83922e+07
1.83908e+07
1.83895e+07
1.83881e+07
1.83867e+07
1.8385e+07
1.83838e+07
1.83823e+07
1.83809e+07
1.83797e+07
1.83787e+07
1.83779e+07
1.83773e+07
1.83768e+07
1.83766e+07
1.83967e+07
1.83974e+07
1.83977e+07
1.83978e+07
1.83977e+07
1.83973e+07
1.83968e+07
1.8396e+07
1.83948e+07
1.83935e+07
1.83921e+07
1.83907e+07
1.83894e+07
1.83879e+07
1.83859e+07
1.83838e+07
1.83814e+07
1.83789e+07
1.8376e+07
1.83733e+07
1.83999e+07
1.84016e+07
1.84023e+07
1.84026e+07
1.84028e+07
1.84029e+07
1.8403e+07
1.84033e+07
1.84042e+07
1.84058e+07
1.84065e+07
1.84048e+07
1.84009e+07
1.8398e+07
1.83966e+07
1.83956e+07
1.83948e+07
1.8395e+07
1.83975e+07
1.83993e+07
1.8401e+07
1.84038e+07
1.84047e+07
1.8405e+07
1.84052e+07
1.84054e+07
1.84055e+07
1.84058e+07
1.84066e+07
1.84082e+07
1.8409e+07
1.84077e+07
1.84043e+07
1.84015e+07
1.83999e+07
1.83987e+07
1.83977e+07
1.83976e+07
1.83999e+07
1.84023e+07
1.83734e+07
1.83769e+07
1.83798e+07
1.83825e+07
1.83851e+07
1.83878e+07
1.83908e+07
1.83938e+07
1.83967e+07
1.83997e+07
1.84027e+07
1.84057e+07
1.84088e+07
1.84118e+07
1.84149e+07
1.84179e+07
1.8421e+07
1.84241e+07
1.84272e+07
1.84303e+07
1.84334e+07
1.84365e+07
1.84397e+07
1.84428e+07
1.8446e+07
1.84491e+07
1.84523e+07
1.84554e+07
1.84586e+07
1.84618e+07
1.8465e+07
1.84682e+07
1.84714e+07
1.84747e+07
1.84779e+07
1.84812e+07
1.84844e+07
1.84877e+07
1.8491e+07
1.84943e+07
1.84976e+07
1.85009e+07
1.85043e+07
1.85076e+07
1.85109e+07
1.85143e+07
1.85177e+07
1.8521e+07
1.85244e+07
1.85278e+07
1.85312e+07
1.85347e+07
1.85381e+07
1.85416e+07
1.8545e+07
1.85485e+07
1.8552e+07
1.85555e+07
1.8559e+07
1.85625e+07
1.85661e+07
1.85697e+07
1.85732e+07
1.85768e+07
1.85804e+07
1.8584e+07
1.85876e+07
1.85913e+07
1.85949e+07
1.85986e+07
1.86023e+07
1.8606e+07
1.86097e+07
1.86134e+07
1.86171e+07
1.86208e+07
1.86246e+07
1.86284e+07
1.86322e+07
1.8636e+07
1.86398e+07
1.86436e+07
1.86475e+07
1.86513e+07
1.86552e+07
1.86591e+07
1.86629e+07
1.86668e+07
1.86707e+07
1.86746e+07
1.86784e+07
1.86823e+07
1.86862e+07
1.869e+07
1.86939e+07
1.86977e+07
1.87015e+07
1.87053e+07
1.8709e+07
1.87125e+07
1.83753e+07
1.83772e+07
1.83798e+07
1.83826e+07
1.83851e+07
1.83878e+07
1.83908e+07
1.83938e+07
1.83967e+07
1.83997e+07
1.84027e+07
1.84057e+07
1.84088e+07
1.84118e+07
1.84149e+07
1.84179e+07
1.8421e+07
1.84241e+07
1.84272e+07
1.84303e+07
1.84334e+07
1.84365e+07
1.84397e+07
1.84428e+07
1.8446e+07
1.84491e+07
1.84523e+07
1.84554e+07
1.84586e+07
1.84618e+07
1.8465e+07
1.84682e+07
1.84714e+07
1.84747e+07
1.84779e+07
1.84812e+07
1.84844e+07
1.84877e+07
1.8491e+07
1.84943e+07
1.84976e+07
1.85009e+07
1.85043e+07
1.85076e+07
1.85109e+07
1.85143e+07
1.85177e+07
1.8521e+07
1.85244e+07
1.85278e+07
1.85312e+07
1.85347e+07
1.85381e+07
1.85416e+07
1.8545e+07
1.85485e+07
1.8552e+07
1.85555e+07
1.8559e+07
1.85625e+07
1.85661e+07
1.85697e+07
1.85732e+07
1.85768e+07
1.85804e+07
1.8584e+07
1.85876e+07
1.85913e+07
1.85949e+07
1.85986e+07
1.86023e+07
1.8606e+07
1.86097e+07
1.86134e+07
1.86171e+07
1.86208e+07
1.86246e+07
1.86284e+07
1.86322e+07
1.8636e+07
1.86398e+07
1.86436e+07
1.86475e+07
1.86513e+07
1.86552e+07
1.86591e+07
1.86629e+07
1.86668e+07
1.86707e+07
1.86746e+07
1.86784e+07
1.86823e+07
1.86862e+07
1.869e+07
1.86939e+07
1.86977e+07
1.87015e+07
1.87053e+07
1.8709e+07
1.87125e+07
1.83679e+07
1.83743e+07
1.83799e+07
1.8383e+07
1.83854e+07
1.83881e+07
1.83911e+07
1.83941e+07
1.83971e+07
1.84e+07
1.8403e+07
1.8406e+07
1.8409e+07
1.8412e+07
1.8415e+07
1.84181e+07
1.84212e+07
1.84242e+07
1.84273e+07
1.84304e+07
1.84335e+07
1.84366e+07
1.84397e+07
1.84428e+07
1.8446e+07
1.84491e+07
1.84523e+07
1.84554e+07
1.84586e+07
1.84618e+07
1.8465e+07
1.84682e+07
1.84714e+07
1.84747e+07
1.84779e+07
1.84812e+07
1.84844e+07
1.84877e+07
1.8491e+07
1.84943e+07
1.84976e+07
1.85009e+07
1.85042e+07
1.85076e+07
1.85109e+07
1.85143e+07
1.85177e+07
1.8521e+07
1.85244e+07
1.85278e+07
1.85312e+07
1.85347e+07
1.85381e+07
1.85416e+07
1.8545e+07
1.85485e+07