/*--------------------------------*- C++ -*----------------------------------*\
| =========                 |                                                 |
| \\      /  F ield         | OpenFOAM: The Open Source CFD Toolbox           |
|  \\    /   O peration     | Version:  3.0.x                                 |
|   \\  /    A nd           | Web:      www.OpenFOAM.org                      |
|    \\/     M anipulation  |                                                 |
\*---------------------------------------------------------------------------*/
FoamFile
{
    version     2.0;
    format      ascii;
    class       volScalarField;
    location    "0.4";
    object      T;
}
// * * * * * * * * * * * * * * * * * * * * * * * * * * * * * * * * * * * * * //

dimensions      [0 0 0 1 0 0 0];

internalField   nonuniform List<scalar> 
6900
(
774.459
774.459
774.459
774.459
774.459
774.459
774.459
774.459
774.459
774.459
774.459
774.459
774.459
774.459
774.459
774.459
774.459
774.459
774.459
774.459
774.459
774.459
774.459
774.459
774.458
774.455
774.453
774.45
774.448
774.446
774.445
774.445
774.445
774.444
774.444
774.443
774.441
774.439
774.437
774.434
774.43
774.427
774.423
774.42
774.418
774.416
774.415
774.414
774.414
774.413
774.411
774.409
774.407
774.404
774.401
774.399
774.397
774.395
774.394
774.393
774.393
774.392
774.392
774.392
774.392
774.392
774.393
774.393
774.393
774.393
774.394
774.394
774.394
774.395
774.395
774.396
774.396
774.396
774.396
774.396
774.397
774.397
774.397
774.397
774.397
774.397
774.396
774.396
774.396
774.396
774.396
774.395
774.395
774.395
774.395
774.394
774.394
774.394
774.394
774.394
774.394
774.394
774.395
774.395
774.395
774.395
774.396
774.396
774.397
774.397
774.398
774.398
774.398
774.399
774.399
774.399
774.399
774.399
774.399
774.399
774.399
774.399
774.399
774.398
774.398
774.397
774.397
774.396
774.396
774.396
774.395
774.395
774.394
774.394
774.394
774.394
774.394
774.394
774.394
774.395
774.395
774.396
774.396
774.397
774.397
774.398
774.399
774.399
774.4
774.4
774.401
774.401
774.401
774.401
774.401
774.401
774.401
774.4
774.4
774.399
774.399
774.398
774.398
774.397
774.396
774.396
774.395
774.395
774.395
774.394
774.394
774.394
774.394
774.394
774.395
774.395
774.396
774.397
774.398
774.399
774.4
774.401
774.402
774.403
774.404
774.405
774.406
774.406
774.406
774.407
774.407
774.407
774.406
774.406
774.406
774.406
774.405
774.407
774.406
774.477
774.456
774.456
774.456
774.456
774.456
774.456
774.456
774.456
774.456
774.456
774.456
774.456
774.456
774.456
774.456
774.456
774.456
774.456
774.456
774.456
774.456
774.456
774.456
774.456
774.455
774.453
774.45
774.447
774.445
774.444
774.443
774.442
774.442
774.442
774.442
774.44
774.439
774.437
774.434
774.431
774.428
774.425
774.421
774.418
774.415
774.414
774.413
774.412
774.412
774.411
774.409
774.407
774.405
774.402
774.4
774.397
774.395
774.394
774.392
774.391
774.391
774.391
774.39
774.39
774.39
774.391
774.391
774.391
774.391
774.392
774.392
774.392
774.393
774.393
774.393
774.394
774.394
774.394
774.394
774.395
774.395
774.395
774.395
774.395
774.395
774.395
774.395
774.394
774.394
774.394
774.394
774.393
774.393
774.393
774.393
774.392
774.392
774.392
774.392
774.392
774.392
774.392
774.393
774.393
774.393
774.394
774.394
774.394
774.395
774.395
774.396
774.396
774.396
774.397
774.397
774.397
774.397
774.397
774.397
774.397
774.397
774.397
774.397
774.396
774.396
774.395
774.395
774.395
774.394
774.394
774.393
774.393
774.393
774.392
774.392
774.392
774.392
774.392
774.393
774.393
774.393
774.394
774.394
774.395
774.396
774.396
774.397
774.397
774.398
774.398
774.399
774.399
774.399
774.399
774.399
774.399
774.399
774.399
774.398
774.398
774.397
774.396
774.396
774.395
774.395
774.394
774.394
774.393
774.393
774.392
774.392
774.392
774.392
774.393
774.393
774.394
774.394
774.395
774.396
774.397
774.398
774.399
774.4
774.401
774.402
774.403
774.404
774.404
774.405
774.405
774.405
774.405
774.405
774.404
774.404
774.404
774.404
774.405
774.405
774.47
774.456
774.456
774.456
774.456
774.456
774.457
774.456
774.456
774.456
774.456
774.456
774.456
774.456
774.456
774.456
774.456
774.456
774.456
774.456
774.456
774.456
774.456
774.456
774.456
774.455
774.453
774.45
774.447
774.445
774.444
774.443
774.442
774.442
774.442
774.442
774.441
774.439
774.437
774.434
774.431
774.428
774.425
774.421
774.418
774.415
774.414
774.413
774.412
774.412
774.411
774.409
774.407
774.405
774.402
774.4
774.397
774.395
774.394
774.392
774.391
774.391
774.391
774.39
774.39
774.39
774.391
774.391
774.391
774.391
774.392
774.392
774.392
774.393
774.393
774.393
774.394
774.394
774.394
774.394
774.395
774.395
774.395
774.395
774.395
774.395
774.395
774.395
774.394
774.394
774.394
774.394
774.393
774.393
774.393
774.393
774.392
774.392
774.392
774.392
774.392
774.392
774.392
774.393
774.393
774.393
774.394
774.394
774.394
774.395
774.395
774.396
774.396
774.396
774.397
774.397
774.397
774.397
774.397
774.397
774.397
774.397
774.397
774.397
774.396
774.396
774.395
774.395
774.395
774.394
774.394
774.393
774.393
774.393
774.392
774.392
774.392
774.392
774.392
774.393
774.393
774.393
774.394
774.394
774.395
774.396
774.396
774.397
774.397
774.398
774.398
774.399
774.399
774.399
774.399
774.399
774.399
774.399
774.399
774.398
774.398
774.397
774.396
774.396
774.395
774.395
774.394
774.394
774.393
774.393
774.392
774.392
774.392
774.392
774.393
774.393
774.394
774.394
774.395
774.396
774.397
774.398
774.399
774.4
774.401
774.402
774.403
774.404
774.404
774.405
774.405
774.405
774.405
774.405
774.404
774.404
774.404
774.404
774.403
774.403
774.407
774.456
774.456
774.456
774.456
774.456
774.456
774.456
774.456
774.456
774.456
774.456
774.456
774.456
774.456
774.456
774.456
774.456
774.456
774.456
774.456
774.456
774.456
774.456
774.456
774.455
774.453
774.45
774.447
774.445
774.444
774.443
774.442
774.442
774.442
774.442
774.44
774.439
774.437
774.434
774.431
774.428
774.425
774.421
774.418
774.415
774.414
774.413
774.412
774.412
774.411
774.409
774.407
774.405
774.402
774.4
774.397
774.395
774.394
774.392
774.391
774.391
774.391
774.39
774.39
774.39
774.391
774.391
774.391
774.391
774.392
774.392
774.392
774.393
774.393
774.393
774.394
774.394
774.394
774.394
774.395
774.395
774.395
774.395
774.395
774.395
774.395
774.395
774.394
774.394
774.394
774.394
774.393
774.393
774.393
774.393
774.392
774.392
774.392
774.392
774.392
774.392
774.392
774.393
774.393
774.393
774.394
774.394
774.394
774.395
774.395
774.396
774.396
774.396
774.397
774.397
774.397
774.397
774.397
774.397
774.397
774.397
774.397
774.397
774.396
774.396
774.395
774.395
774.395
774.394
774.394
774.393
774.393
774.393
774.392
774.392
774.392
774.392
774.392
774.393
774.393
774.393
774.394
774.394
774.395
774.396
774.396
774.397
774.397
774.398
774.398
774.399
774.399
774.399
774.399
774.399
774.399
774.399
774.398
774.398
774.398
774.397
774.396
774.396
774.395
774.395
774.394
774.394
774.393
774.393
774.392
774.392
774.392
774.392
774.393
774.393
774.394
774.394
774.395
774.396
774.397
774.398
774.399
774.4
774.401
774.402
774.403
774.404
774.404
774.405
774.405
774.405
774.405
774.405
774.404
774.404
774.404
774.404
774.401
774.405
774.275
774.459
774.459
774.459
774.459
774.459
774.459
774.459
774.459
774.459
774.459
774.459
774.459
774.459
774.459
774.459
774.459
774.459
774.459
774.459
774.459
774.459
774.459
774.459
774.459
774.458
774.455
774.453
774.45
774.448
774.446
774.445
774.445
774.445
774.444
774.444
774.443
774.441
774.439
774.437
774.434
774.43
774.427
774.423
774.42
774.418
774.416
774.415
774.414
774.414
774.413
774.411
774.409
774.407
774.404
774.401
774.399
774.397
774.395
774.394
774.393
774.393
774.392
774.392
774.392
774.392
774.392
774.393
774.393
774.393
774.393
774.394
774.394
774.394
774.395
774.395
774.396
774.396
774.396
774.396
774.396
774.397
774.397
774.397
774.397
774.397
774.397
774.396
774.396
774.396
774.396
774.396
774.395
774.395
774.395
774.395
774.394
774.394
774.394
774.394
774.394
774.394
774.394
774.395
774.395
774.395
774.395
774.396
774.396
774.397
774.397
774.398
774.398
774.398
774.399
774.399
774.399
774.399
774.399
774.399
774.399
774.399
774.399
774.399
774.398
774.398
774.397
774.397
774.396
774.396
774.396
774.395
774.395
774.394
774.394
774.394
774.394
774.394
774.394
774.394
774.395
774.395
774.396
774.396
774.397
774.397
774.398
774.399
774.399
774.4
774.4
774.401
774.401
774.401
774.401
774.401
774.401
774.401
774.4
774.4
774.399
774.399
774.398
774.398
774.397
774.397
774.396
774.395
774.395
774.395
774.394
774.394
774.394
774.394
774.394
774.395
774.395
774.396
774.397
774.398
774.399
774.4
774.401
774.402
774.403
774.404
774.405
774.406
774.406
774.406
774.407
774.407
774.407
774.406
774.406
774.406
774.406
774.406
774.402
774.415
774.186
774.462
774.476
774.474
774.474
774.473
774.472
774.466
774.459
774.448
774.433
774.426
774.431
774.443
774.448
774.409
774.373
774.35
774.331
774.278
774.239
774.448
774.452
774.45
774.447
774.443
774.439
774.432
774.421
774.41
774.391
774.377
774.379
774.394
774.404
774.358
774.309
774.296
774.288
774.248
774.203
774.407
774.406
774.403
774.398
774.392
774.386
774.378
774.372
774.364
774.356
774.346
774.337
774.33
774.323
774.322
774.328
774.328
774.316
774.292
774.28
774.332
774.333
774.339
774.339
774.332
774.318
774.304
774.278
774.264
774.24
774.221
774.208
774.19
774.168
774.156
774.142
774.129
774.12
774.111
774.106
774.278
774.256
774.253
774.256
774.255
774.251
774.238
774.224
774.208
774.193
774.175
774.163
774.147
774.136
774.122
774.115
774.106
774.108
774.115
774.149
774.088
774.097
774.103
774.106
774.075
774.061
774.065
774.077
774.078
774.073
774.071
774.073
774.075
774.076
774.076
774.077
774.078
774.079
774.08
774.081
774.082
774.083
774.084
774.086
774.087
774.089
774.09
774.093
774.095
774.097
774.099
774.102
774.104
774.107
774.109
774.112
774.114
774.116
774.118
774.121
774.123
774.125
774.127
774.13
774.132
774.135
774.137
774.14
774.143
774.146
774.149
774.152
774.155
774.159
774.163
774.167
774.171
774.175
774.179
774.182
774.187
774.19
774.194
774.199
774.205
774.212
774.216
774.221
774.225
774.228
774.232
774.236
774.241
774.247
774.253
774.26
774.267
774.275
774.283
774.292
774.299
774.306
774.313
774.323
774.335
774.349
774.362
774.372
774.38
774.389
774.409
774.466
774.555
774.617
774.641
774.642
774.613
774.527
774.455
774.418
774.406
774.405
774.409
774.422
774.438
774.452
774.465
774.477
774.488
774.499
774.509
774.519
774.529
774.539
774.549
774.559
774.569
774.579
774.59
774.6
774.61
774.621
774.631
774.642
774.652
774.663
774.674
774.685
774.696
774.708
774.719
774.731
774.742
774.754
774.766
774.778
774.791
774.803
774.816
774.828
774.841
774.854
774.867
774.88
774.894
774.908
774.921
774.935
774.949
774.963
774.978
774.992
775.007
775.021
775.036
775.051
775.066
775.081
775.096
775.111
775.126
775.142
775.157
775.173
775.189
775.204
775.22
775.236
775.252
775.268
775.284
775.301
775.317
775.334
775.351
775.368
775.384
775.401
775.419
775.436
775.453
775.471
775.488
775.506
775.524
775.541
775.56
775.577
775.597
775.613
775.635
775.65
775.673
775.688
775.712
775.726
775.751
775.763
775.799
775.699
774.079
774.09
774.107
774.116
774.088
774.077
774.084
774.095
774.095
774.09
774.089
774.091
774.093
774.094
774.094
774.094
774.095
774.096
774.096
774.097
774.098
774.099
774.1
774.102
774.103
774.105
774.107
774.109
774.111
774.114
774.116
774.119
774.121
774.123
774.125
774.128
774.13
774.132
774.133
774.135
774.137
774.14
774.142
774.144
774.147
774.149
774.152
774.155
774.158
774.16
774.164
774.167
774.171
774.175
774.179
774.183
774.188
774.192
774.196
774.2
774.205
774.21
774.217
774.224
774.232
774.238
774.241
774.243
774.244
774.246
774.25
774.254
774.26
774.266
774.274
774.282
774.291
774.299
774.306
774.313
774.322
774.332
774.344
774.358
774.371
774.382
774.391
774.398
774.41
774.44
774.508
774.576
774.619
774.635
774.634
774.606
774.527
774.461
774.424
774.41
774.408
774.41
774.417
774.43
774.443
774.455
774.467
774.477
774.488
774.498
774.508
774.518
774.528
774.538
774.548
774.558
774.568
774.578
774.588
774.598
774.608
774.619
774.629
774.64
774.651
774.661
774.672
774.683
774.695
774.706
774.717
774.729
774.741
774.752
774.764
774.777
774.789
774.801
774.814
774.826
774.839
774.852
774.865
774.879
774.892
774.906
774.92
774.933
774.947
774.962
774.976
774.99
775.005
775.019
775.034
775.049
775.064
775.079
775.094
775.109
775.125
775.14
775.156
775.171
775.187
775.203
775.218
775.234
775.25
775.266
775.283
775.299
775.316
775.332
775.349
775.366
775.383
775.4
775.417
775.434
775.451
775.469
775.486
775.504
775.522
775.539
775.558
775.575
775.595
775.612
775.633
775.649
775.671
775.686
775.71
775.724
775.749
775.762
775.792
775.751
774.284
774.333
774.346
774.343
774.344
774.349
774.352
774.352
774.352
774.353
774.353
774.353
774.353
774.352
774.352
774.351
774.351
774.351
774.352
774.353
774.354
774.356
774.357
774.359
774.36
774.36
774.36
774.36
774.36
774.361
774.361
774.361
774.362
774.363
774.364
774.366
774.368
774.37
774.373
774.376
774.379
774.383
774.386
774.389
774.392
774.395
774.398
774.4
774.403
774.406
774.409
774.413
774.418
774.422
774.427
774.432
774.438
774.444
774.451
774.459
774.467
774.475
774.483
774.489
774.495
774.499
774.501
774.5
774.489
774.453
774.409
774.37
774.34
774.316
774.3
774.291
774.289
774.29
774.292
774.297
774.304
774.313
774.322
774.331
774.341
774.349
774.356
774.362
774.367
774.372
774.375
774.379
774.381
774.384
774.387
774.392
774.397
774.403
774.41
774.417
774.425
774.433
774.441
774.449
774.458
774.466
774.475
774.483
774.492
774.501
774.51
774.52
774.529
774.539
774.548
774.558
774.568
774.578
774.588
774.598
774.608
774.619
774.629
774.64
774.651
774.661
774.672
774.683
774.695
774.706
774.717
774.729
774.741
774.752
774.764
774.777
774.789
774.801
774.814
774.826
774.839
774.852
774.865
774.879
774.892
774.906
774.92
774.933
774.947
774.962
774.976
774.99
775.005
775.019
775.034
775.049
775.064
775.079
775.094
775.109
775.125
775.14
775.156
775.171
775.187
775.203
775.218
775.234
775.25
775.266
775.283
775.299
775.316
775.332
775.349
775.366
775.383
775.4
775.417
775.434
775.451
775.469
775.486
775.504
775.522
775.54
775.558
775.576
775.594
775.613
775.631
775.651
775.669
775.688
775.708
775.726
775.747
775.767
775.783
775.811
774.084
774.084
774.084
774.079
774.075
774.075
774.079
774.08
774.079
774.079
774.079
774.081
774.082
774.082
774.084
774.085
774.086
774.087
774.088
774.09
774.091
774.092
774.094
774.095
774.096
774.098
774.099
774.101
774.103
774.104
774.107
774.109
774.111
774.114
774.117
774.119
774.122
774.125
774.128
774.13
774.133
774.136
774.138
774.141
774.143
774.146
774.148
774.151
774.154
774.156
774.159
774.162
774.165
774.168
774.171
774.174
774.177
774.18
774.184
774.187
774.191
774.195
774.201
774.206
774.212
774.216
774.221
774.226
774.231
774.236
774.242
774.248
774.255
774.261
774.267
774.277
774.288
774.297
774.304
774.314
774.329
774.348
774.365
774.377
774.387
774.406
774.44
774.479
774.513
774.535
774.544
774.545
774.535
774.494
774.44
774.406
774.389
774.385
774.386
774.391
774.401
774.414
774.426
774.437
774.449
774.459
774.469
774.479
774.489
774.499
774.509
774.519
774.528
774.538
774.548
774.558
774.568
774.578
774.588
774.598
774.608
774.619
774.629
774.64
774.651
774.661
774.672
774.683
774.695
774.706
774.717
774.729
774.741
774.752
774.764
774.777
774.789
774.801
774.814
774.826
774.839
774.852
774.865
774.879
774.892
774.906
774.92
774.933
774.947
774.962
774.976
774.99
775.005
775.019
775.034
775.049
775.064
775.079
775.094
775.109
775.125
775.14
775.156
775.171
775.187
775.203
775.218
775.234
775.25
775.266
775.283
775.299
775.316
775.332
775.349
775.366
775.383
775.4
775.417
775.434
775.451
775.469
775.486
775.504
775.522
775.54
775.558
775.576
775.594
775.614
775.63
775.651
775.668
775.69
775.705
775.73
775.744
775.77
775.786
775.837
774.211
774.214
774.214
774.21
774.205
774.205
774.207
774.208
774.208
774.208
774.209
774.211
774.211
774.212
774.214
774.215
774.216
774.217
774.218
774.219
774.22
774.221
774.221
774.222
774.223
774.224
774.225
774.227
774.229
774.231
774.233
774.235
774.238
774.24
774.243
774.245
774.247
774.25
774.252
774.254
774.256
774.258
774.26
774.262
774.264
774.266
774.268
774.27
774.272
774.274
774.276
774.279
774.281
774.284
774.287
774.29
774.293
774.297
774.301
774.306
774.31
774.315
774.32
774.325
774.329
774.333
774.337
774.341
774.346
774.351
774.356
774.362
774.369
774.375
774.381
774.387
774.395
774.407
774.421
774.434
774.443
774.448
774.454
774.468
774.512
774.596
774.66
774.692
774.697
774.686
774.63
774.551
774.493
774.455
774.432
774.419
774.414
774.414
774.416
774.421
774.428
774.435
774.442
774.45
774.459
774.467
774.476
774.485
774.494
774.503
774.512
774.521
774.531
774.54
774.55
774.56
774.57
774.58
774.59
774.6
774.61
774.621
774.631
774.642
774.652
774.663
774.674
774.685
774.696
774.708
774.719
774.731
774.742
774.754
774.766
774.778
774.791
774.803
774.816
774.828
774.841
774.854
774.867
774.88
774.894
774.908
774.921
774.935
774.949
774.963
774.978
774.992
775.007
775.021
775.036
775.051
775.066
775.081
775.096
775.111
775.126
775.142
775.157
775.173
775.189
775.204
775.22
775.236
775.252
775.268
775.284
775.301
775.317
775.334
775.351
775.368
775.384
775.401
775.419
775.436
775.453
775.471
775.488
775.506
775.523
775.542
775.559
775.578
775.595
775.615
775.632
775.653
775.669
775.692
775.707
775.731
775.745
775.772
775.787
775.839
775.735
775.723
775.725
775.728
775.731
775.728
775.723
775.717
775.71
775.703
775.695
775.691
775.685
775.68
775.676
775.674
775.672
775.674
775.68
775.701
775.769
775.776
775.783
775.784
775.783
775.777
775.766
775.757
775.745
775.739
775.727
775.719
775.712
775.702
775.695
775.694
775.689
775.684
775.682
775.674
775.821
775.826
775.828
775.83
775.83
775.83
775.829
775.828
775.829
775.83
775.832
775.832
775.832
775.833
775.835
775.839
775.843
775.848
775.865
775.884
775.852
775.863
775.867
775.871
775.874
775.878
775.883
775.889
775.884
775.873
775.866
775.868
775.852
775.836
775.843
775.861
775.879
775.879
775.842
775.718
775.859
775.88
775.886
775.891
775.896
775.901
775.909
775.919
775.915
775.908
775.9
775.901
775.889
775.883
775.889
775.905
775.922
775.922
775.884
775.754
775.751
775.786
775.813
775.841
775.867
775.892
775.917
775.943
775.969
775.995
776.019
776.043
776.066
776.089
776.111
776.134
776.156
776.178
776.2
776.222
776.244
776.265
776.287
776.309
776.33
776.352
776.373
776.395
776.416
776.438
776.46
776.482
776.504
776.526
776.548
776.57
776.592
776.615
776.638
776.661
776.684
776.708
776.731
776.754
776.778
776.801
776.824
776.847
776.87
776.893
776.916
776.94
776.963
776.987
777.011
777.035
777.059
777.083
777.108
777.133
777.158
777.183
777.207
777.232
777.257
777.282
777.308
777.334
777.359
777.384
777.41
777.437
777.463
777.49
777.517
777.543
777.572
777.607
777.645
777.677
777.697
777.709
777.731
777.79
777.91
778.014
778.076
778.097
778.096
778.067
778.001
777.959
777.943
777.939
777.941
777.948
777.969
777.983
778.022
778.002
775.686
775.696
775.716
775.747
775.766
775.786
775.811
775.837
775.859
775.881
775.902
775.924
775.947
775.969
775.99
776.011
776.033
776.054
776.076
776.097
776.119
776.14
776.162
776.183
776.205
776.227
776.249
776.271
776.293
776.315
776.338
776.36
776.382
776.405
776.428
776.45
776.473
776.496
776.519
776.541
776.565
776.588
776.611
776.635
776.658
776.682
776.706
776.73
776.754
776.778
776.801
776.825
776.849
776.873
776.897
776.921
776.945
776.969
776.994
777.018
777.042
777.067
777.093
777.118
777.143
777.168
777.194
777.22
777.245
777.271
777.298
777.325
777.353
777.378
777.404
777.435
777.467
777.495
777.52
777.553
777.594
777.632
777.663
777.691
777.725
777.772
777.831
777.894
777.947
777.981
777.993
777.993
777.981
777.953
777.939
777.936
777.94
777.95
777.987
778.002
775.897
775.927
775.981
776.018
776.042
776.065
776.089
776.113
776.136
776.157
776.176
776.196
776.216
776.235
776.254
776.272
776.291
776.311
776.33
776.35
776.371
776.391
776.412
776.433
776.454
776.476
776.498
776.521
776.543
776.565
776.587
776.608
776.629
776.651
776.672
776.694
776.716
776.738
776.761
776.784
776.807
776.831
776.854
776.878
776.901
776.925
776.949
776.973
776.997
777.02
777.045
777.07
777.096
777.122
777.148
777.173
777.198
777.225
777.252
777.28
777.307
777.335
777.364
777.394
777.423
777.448
777.465
777.473
777.475
777.467
777.444
777.43
777.428
777.429
777.433
777.445
777.464
777.487
777.512
777.539
777.567
777.596
777.625
777.653
777.68
777.706
777.731
777.756
777.779
777.802
777.825
777.847
777.866
777.891
777.909
777.937
777.959
777.984
778.01
778.037
775.724
775.758
775.753
775.779
775.825
775.838
775.838
775.846
775.881
775.907
775.918
775.936
775.959
775.98
776
776.02
776.04
776.06
776.081
776.102
776.123
776.145
776.166
776.188
776.209
776.231
776.253
776.275
776.298
776.32
776.343
776.365
776.388
776.41
776.433
776.456
776.48
776.503
776.526
776.55
776.573
776.597
776.62
776.644
776.667
776.69
776.713
776.736
776.759
776.783
776.806
776.83
776.854
776.878
776.902
776.927
776.952
776.977
777.002
777.027
777.052
777.077
777.102
777.128
777.153
777.178
777.203
777.229
777.254
777.279
777.305
777.332
777.36
777.388
777.415
777.442
777.468
777.496
777.525
777.554
777.584
777.613
777.646
777.683
777.716
777.738
777.753
777.772
777.817
777.911
778.013
778.091
778.13
778.138
778.126
778.075
778.029
778.01
778.01
778.017
775.719
775.75
775.743
775.754
775.8
775.819
775.82
775.825
775.851
775.883
775.898
775.915
775.936
775.959
775.98
776
776.021
776.042
776.064
776.085
776.107
776.128
776.15
776.172
776.194
776.216
776.238
776.26
776.283
776.305
776.328
776.35
776.373
776.395
776.418
776.441
776.464
776.487
776.511
776.534
776.557
776.581
776.604
776.628
776.652
776.675
776.698
776.722
776.745
776.768
776.792
776.816
776.839
776.863
776.887
776.911
776.936
776.961
776.986
777.011
777.036
777.061
777.086
777.111
777.136
777.162
777.187
777.213
777.238
777.263
777.289
777.314
777.34
777.366
777.394
777.421
777.448
777.475
777.501
777.529
777.557
777.585
777.612
777.641
777.675
777.713
777.745
777.765
777.779
777.802
777.866
777.991
778.097
778.154
778.168
778.157
778.101
778.043
778.029
778.024
778.01
778.006
778.01
778.011
778.014
778.015
778.015
778.014
778.015
778.013
778.013
778.013
778.013
778.016
778.015
778.017
778.019
778.023
778.029
778.04
778.019
778.023
778.026
778.03
778.03
778.03
778.029
778.028
778.028
778.025
778.023
778.024
778.024
778.027
778.025
778.027
778.029
778.031
778.032
778.032
778.056
778.062
778.066
778.071
778.074
778.078
778.082
778.086
778.09
778.095
778.102
778.11
778.12
778.126
778.131
778.138
778.15
778.162
778.171
778.179
778.029
778.041
778.05
778.059
778.068
778.077
778.084
778.091
778.102
778.125
778.135
778.131
778.125
778.129
778.133
778.127
778.131
778.146
778.177
778.176
778.028
778.033
778.041
778.053
778.07
778.085
778.095
778.105
778.123
778.143
778.151
778.15
778.145
778.146
778.149
778.146
778.152
778.171
778.211
778.192
778.071
778.116
778.147
778.187
778.228
778.263
778.299
778.337
778.375
778.411
778.446
778.48
778.515
778.55
778.583
778.615
778.645
778.675
778.704
778.732
778.76
778.788
778.816
778.843
778.871
778.898
778.926
778.954
778.982
779.01
779.037
779.065
779.093
779.12
779.148
779.175
779.202
779.229
779.256
779.282
779.309
779.336
779.363
779.39
779.417
779.444
779.471
779.499
779.526
779.553
779.58
779.607
779.635
779.661
779.689
779.716
779.743
779.77
779.797
779.823
779.851
779.879
779.906
779.933
779.959
779.986
780.014
780.042
780.069
780.093
780.119
780.155
780.199
780.234
780.251
780.261
780.283
780.359
780.507
780.615
780.661
780.665
780.645
780.573
780.515
780.487
780.477
780.474
780.476
780.49
780.513
780.536
780.56
780.584
780.608
780.632
780.657
780.681
780.706
780.73
780.754
780.779
780.803
780.827
780.851
780.875
780.898
780.922
780.946
780.969
780.992
781.016
781.039
781.061
781.084
781.107
781.129
781.152
781.174
781.196
781.218
781.24
781.262
781.283
781.305
781.326
781.348
781.369
781.39
781.41
781.431
781.452
781.472
781.492
781.512
781.532
781.552
781.572
781.592
781.611
781.631
781.65
781.669
781.688
781.707
781.726
781.745
781.763
781.782
781.8
781.818
781.836
781.854
781.872
781.89
781.907
781.925
781.942
781.959
781.976
781.993
782.01
782.027
782.043
782.059
782.075
782.091
782.107
782.123
782.138
782.154
782.169
782.184
782.199
782.213
782.228
782.242
782.256
782.27
782.285
782.297
782.312
782.323
782.339
782.349
782.366
782.374
782.392
782.399
782.417
782.423
782.441
782.447
782.464
782.474
782.483
782.5
782.505
782.519
782.531
778.053
778.077
778.104
778.142
778.18
778.211
778.24
778.271
778.306
778.338
778.368
778.397
778.427
778.457
778.485
778.513
778.541
778.568
778.596
778.623
778.65
778.677
778.704
778.73
778.757
778.784
778.81
778.837
778.864
778.891
778.918
778.945
778.973
779.001
779.028
779.056
779.084
779.111
779.139
779.166
779.193
779.22
779.248
779.274
779.301
779.329
779.356
779.382
779.41
779.438
779.464
779.492
779.519
779.546
779.573
779.6
779.627
779.655
779.681
779.708
779.736
779.764
779.791
779.818
779.844
779.873
779.904
779.93
779.954
779.985
780.02
780.048
780.072
780.103
780.145
780.187
780.218
780.245
780.281
780.333
780.4
780.47
780.52
780.539
780.539
780.529
780.499
780.476
780.466
780.464
780.475
780.506
780.538
780.567
780.596
780.623
780.65
780.676
780.701
780.727
780.751
780.776
780.801
780.825
780.849
780.873
780.897
780.92
780.944
780.967
780.991
781.014
781.037
781.06
781.083
781.105
781.128
781.15
781.173
781.195
781.217
781.239
781.26
781.282
781.303
781.325
781.346
781.367
781.388
781.409
781.429
781.45
781.47
781.491
781.511
781.531
781.551
781.571
781.59
781.61
781.629
781.648
781.668
781.687
781.706
781.724
781.743
781.762
781.78
781.798
781.817
781.835
781.853
781.871
781.888
781.906
781.923
781.941
781.958
781.975
781.992
782.008
782.025
782.042
782.058
782.074
782.09
782.106
782.121
782.137
782.152
782.167
782.182
782.197
782.212
782.226
782.24
782.255
782.268
782.283
782.295
782.311
782.322
782.338
782.347
782.364
782.373
782.39
782.397
782.416
782.422
782.44
782.446
782.464
782.469
782.487
782.492
782.509
782.516
782.529
778.259
778.286
778.338
778.397
778.446
778.485
778.521
778.555
778.588
778.618
778.644
778.669
778.694
778.72
778.744
778.768
778.792
778.816
778.842
778.868
778.895
778.921
778.947
778.973
778.999
779.025
779.052
779.078
779.105
779.133
779.16
779.188
779.216
779.244
779.272
779.3
779.328
779.355
779.383
779.41
779.438
779.466
779.493
779.52
779.547
779.575
779.603
779.631
779.659
779.687
779.715
779.743
779.773
779.804
779.835
779.865
779.897
779.929
779.961
779.99
780.013
780.025
780.026
780.022
780.004
779.99
779.984
779.983
779.985
779.996
780.017
780.041
780.067
780.095
780.124
780.153
780.182
780.209
780.236
780.262
780.287
780.311
780.334
780.356
780.377
780.398
780.418
780.439
780.461
780.484
780.508
780.533
780.557
780.582
780.607
780.631
780.656
780.68
780.705
780.729
780.753
780.777
780.801
780.825
780.849
780.873
780.897
780.921
780.944
780.968
780.991
781.014
781.037
781.06
781.083
781.105
781.128
781.15
781.173
781.195
781.217
781.239
781.26
781.282
781.303
781.325
781.346
781.367
781.388
781.409
781.429
781.45
781.47
781.491
781.511
781.531
781.551
781.571
781.59
781.61
781.629
781.648
781.668
781.687
781.706
781.724
781.743
781.762
781.78
781.798
781.817
781.835
781.853
781.871
781.888
781.906
781.923
781.941
781.958
781.975
781.992
782.008
782.025
782.042
782.058
782.074
782.09
782.106
782.121
782.137
782.152
782.167
782.182
782.197
782.212
782.226
782.241
782.255
782.268
782.283
782.296
782.31
782.323
782.337
782.349
782.362
782.375
782.388
782.4
782.414
782.423
782.439
782.448
782.46
782.473
782.484
782.494
782.507
782.517
782.53
778.134
778.172
778.189
778.193
778.238
778.288
778.303
778.311
778.344
778.385
778.402
778.417
778.446
778.478
778.504
778.528
778.55
778.573
778.597
778.622
778.648
778.674
778.701
778.729
778.756
778.784
778.812
778.841
778.869
778.897
778.925
778.952
778.98
779.007
779.035
779.062
779.089
779.116
779.144
779.171
779.198
779.226
779.253
779.281
779.309
779.337
779.365
779.392
779.42
779.449
779.479
779.506
779.531
779.557
779.584
779.611
779.638
779.664
779.691
779.717
779.744
779.771
779.798
779.825
779.851
779.879
779.908
779.937
779.966
779.993
780.019
780.046
780.074
780.103
780.131
780.163
780.201
780.242
780.275
780.293
780.304
780.326
780.387
780.506
780.611
780.671
780.686
780.676
780.623
780.563
780.533
780.524
780.527
780.551
780.587
780.617
780.646
780.673
780.7
780.725
780.751
780.776
780.8
780.825
780.849
780.873
780.897
780.92
780.944
780.967
780.991
781.014
781.037
781.06
781.083
781.105
781.128
781.15
781.173
781.195
781.217
781.239
781.26
781.282
781.303
781.325
781.346
781.367
781.388
781.409
781.429
781.45
781.47
781.491
781.511
781.531
781.551
781.571
781.59
781.61
781.629
781.648
781.668
781.687
781.706
781.724
781.743
781.762
781.78
781.798
781.817
781.835
781.853
781.871
781.888
781.906
781.923
781.941
781.958
781.975
781.992
782.008
782.025
782.042
782.058
782.074
782.09
782.106
782.121
782.137
782.152
782.167
782.182
782.197
782.212
782.226
782.241
782.254
782.269
782.282
782.297
782.308
782.325
782.334
782.351
782.36
782.377
782.385
782.403
782.41
782.428
782.434
782.452
782.458
782.475
782.481
782.497
782.506
782.514
782.533
778.128
778.155
778.178
778.174
778.193
778.246
778.274
778.285
778.305
778.337
778.365
778.389
778.415
778.442
778.469
778.496
778.522
778.549
778.576
778.603
778.63
778.658
778.685
778.713
778.741
778.768
778.796
778.825
778.853
778.881
778.909
778.937
778.965
778.992
779.02
779.047
779.075
779.102
779.129
779.157
779.184
779.211
779.239
779.266
779.294
779.321
779.349
779.376
779.404
779.431
779.459
779.487
779.513
779.54
779.567
779.594
779.621
779.647
779.674
779.701
779.729
779.755
779.782
779.81
779.837
779.863
779.89
779.917
779.945
779.974
780.002
780.029
780.055
780.083
780.111
780.136
780.162
780.192
780.233
780.274
780.303
780.317
780.329
780.359
780.46
780.607
780.695