/*--------------------------------*- C++ -*----------------------------------*\
| =========                 |                                                 |
| \\      /  F ield         | OpenFOAM: The Open Source CFD Toolbox           |
|  \\    /   O peration     | Version:  3.0.x                                 |
|   \\  /    A nd           | Web:      www.OpenFOAM.org                      |
|    \\/     M anipulation  |                                                 |
\*---------------------------------------------------------------------------*/
FoamFile
{
    version     2.0;
    format      ascii;
    class       volVectorField;
    location    "0.4";
    object      U;
}
// * * * * * * * * * * * * * * * * * * * * * * * * * * * * * * * * * * * * * //

dimensions      [0 1 -1 0 0 0 0];

internalField   nonuniform List<vector> 
6900
(
(42.6978 0.000101118 0)
(42.6949 9.25387e-05 0)
(42.6919 8.99482e-05 0)
(42.6891 9.08442e-05 0)
(42.6863 9.15651e-05 0)
(42.6836 9.19622e-05 0)
(42.681 9.22858e-05 0)
(42.6785 9.2516e-05 0)
(42.6761 9.27068e-05 0)
(42.6739 9.28474e-05 0)
(42.6718 9.29552e-05 0)
(42.6699 9.30443e-05 0)
(42.6681 9.3098e-05 0)
(42.6664 9.31589e-05 0)
(42.6648 9.32015e-05 0)
(42.6634 9.32269e-05 0)
(42.662 9.32547e-05 0)
(42.6606 9.32827e-05 0)
(42.6593 9.33016e-05 0)
(42.6581 9.33218e-05 0)
(42.6568 9.33411e-05 0)
(42.6554 9.33702e-05 0)
(42.654 9.33836e-05 0)
(42.6526 9.34048e-05 0)
(42.651 9.34645e-05 0)
(42.6493 9.34647e-05 0)
(42.6474 9.34981e-05 0)
(42.6454 9.35332e-05 0)
(42.6433 9.35684e-05 0)
(42.6409 9.36031e-05 0)
(42.6384 9.36385e-05 0)
(42.6358 9.36748e-05 0)
(42.633 9.37124e-05 0)
(42.6301 9.37565e-05 0)
(42.627 9.38209e-05 0)
(42.6239 9.37944e-05 0)
(42.6207 9.38666e-05 0)
(42.6174 9.39121e-05 0)
(42.6141 9.39544e-05 0)
(42.6109 9.39954e-05 0)
(42.6077 9.40337e-05 0)
(42.6045 9.40675e-05 0)
(42.6015 9.40937e-05 0)
(42.5985 9.41083e-05 0)
(42.5958 9.41055e-05 0)
(42.5931 9.40778e-05 0)
(42.5906 9.40155e-05 0)
(42.5883 9.39068e-05 0)
(42.5862 9.37362e-05 0)
(42.5843 9.34864e-05 0)
(42.5825 9.31286e-05 0)
(42.5808 9.26516e-05 0)
(42.5793 9.20152e-05 0)
(42.578 9.11942e-05 0)
(42.5767 9.0156e-05 0)
(42.5754 8.88696e-05 0)
(42.5743 8.73054e-05 0)
(42.5731 8.54379e-05 0)
(42.5719 8.32468e-05 0)
(42.5707 8.07194e-05 0)
(42.5695 7.78523e-05 0)
(42.5682 7.46521e-05 0)
(42.5667 7.11372e-05 0)
(42.5652 6.73229e-05 0)
(42.5636 6.32941e-05 0)
(42.5619 5.90204e-05 0)
(42.56 5.4627e-05 0)
(42.558 5.01415e-05 0)
(42.556 4.56352e-05 0)
(42.5538 4.1168e-05 0)
(42.5516 3.68022e-05 0)
(42.5493 3.25922e-05 0)
(42.5471 2.85866e-05 0)
(42.5448 2.48255e-05 0)
(42.5426 2.13394e-05 0)
(42.5405 1.81489e-05 0)
(42.5384 1.52662e-05 0)
(42.5366 1.26935e-05 0)
(42.5348 1.04254e-05 0)
(42.5333 8.45006e-06 0)
(42.532 6.75016e-06 0)
(42.5309 5.30393e-06 0)
(42.5301 4.08879e-06 0)
(42.5295 3.07791e-06 0)
(42.5291 2.24808e-06 0)
(42.5289 1.57256e-06 0)
(42.5289 1.03104e-06 0)
(42.5292 5.99151e-07 0)
(42.5296 2.61757e-07 0)
(42.5301 -5.20963e-09 0)
(42.5307 -2.06318e-07 0)
(42.5314 -3.59517e-07 0)
(42.5321 -4.74594e-07 0)
(42.5327 -5.59427e-07 0)
(42.5333 -6.21296e-07 0)
(42.5338 -6.65762e-07 0)
(42.5341 -6.97169e-07 0)
(42.5343 -7.18745e-07 0)
(42.5342 -7.34175e-07 0)
(42.5339 -7.43161e-07 0)
(42.5334 -7.48734e-07 0)
(42.5326 -7.51641e-07 0)
(42.5316 -7.53051e-07 0)
(42.5303 -7.53193e-07 0)
(42.5287 -7.52881e-07 0)
(42.5269 -7.52033e-07 0)
(42.525 -7.51239e-07 0)
(42.5229 -7.50731e-07 0)
(42.5207 -7.50155e-07 0)
(42.5185 -7.50276e-07 0)
(42.5162 -7.5076e-07 0)
(42.514 -7.51832e-07 0)
(42.512 -7.53198e-07 0)
(42.51 -7.55105e-07 0)
(42.5083 -7.57421e-07 0)
(42.5069 -7.60088e-07 0)
(42.5056 -7.6303e-07 0)
(42.5047 -7.6584e-07 0)
(42.5041 -7.68184e-07 0)
(42.5038 -7.7241e-07 0)
(42.5038 -7.75187e-07 0)
(42.504 -7.78655e-07 0)
(42.5046 -7.80964e-07 0)
(42.5053 -7.83608e-07 0)
(42.5063 -7.8545e-07 0)
(42.5074 -7.87083e-07 0)
(42.5086 -7.8812e-07 0)
(42.5099 -7.88607e-07 0)
(42.5111 -7.88561e-07 0)
(42.5123 -7.87887e-07 0)
(42.5134 -7.8656e-07 0)
(42.5143 -7.84783e-07 0)
(42.5149 -7.82375e-07 0)
(42.5153 -7.79353e-07 0)
(42.5154 -7.7604e-07 0)
(42.5152 -7.7307e-07 0)
(42.5146 -7.71936e-07 0)
(42.5136 -7.63567e-07 0)
(42.5122 -7.60679e-07 0)
(42.5105 -7.57063e-07 0)
(42.5084 -7.53456e-07 0)
(42.5061 -7.50271e-07 0)
(42.5034 -7.47519e-07 0)
(42.5006 -7.45405e-07 0)
(42.4977 -7.43929e-07 0)
(42.4947 -7.43596e-07 0)
(42.4918 -7.43743e-07 0)
(42.489 -7.45022e-07 0)
(42.4865 -7.47058e-07 0)
(42.4842 -7.49865e-07 0)
(42.4823 -7.53314e-07 0)
(42.4808 -7.57113e-07 0)
(42.4797 -7.61459e-07 0)
(42.479 -7.65374e-07 0)
(42.4788 -7.67872e-07 0)
(42.479 -7.75631e-07 0)
(42.4796 -7.7819e-07 0)
(42.4806 -7.82648e-07 0)
(42.4819 -7.86142e-07 0)
(42.4835 -7.8888e-07 0)
(42.4853 -7.9179e-07 0)
(42.4873 -7.9359e-07 0)
(42.4894 -7.94884e-07 0)
(42.4915 -7.95504e-07 0)
(42.4936 -7.95638e-07 0)
(42.4955 -7.94832e-07 0)
(42.4973 -7.93287e-07 0)
(42.4989 -7.91148e-07 0)
(42.5001 -7.87896e-07 0)
(42.501 -7.83867e-07 0)
(42.5013 -7.79114e-07 0)
(42.5012 -7.76248e-07 0)
(42.5004 -7.67592e-07 0)
(42.4991 -7.62414e-07 0)
(42.4972 -7.5541e-07 0)
(42.4946 -7.4855e-07 0)
(42.4915 -7.42375e-07 0)
(42.4878 -7.3615e-07 0)
(42.4836 -7.31708e-07 0)
(42.4792 -7.26532e-07 0)
(42.4745 -7.24641e-07 0)
(42.4697 -7.22161e-07 0)
(42.4651 -7.23326e-07 0)
(42.4607 -7.24434e-07 0)
(42.4567 -7.28664e-07 0)
(42.4533 -7.3322e-07 0)
(42.4504 -7.39602e-07 0)
(42.4482 -7.45259e-07 0)
(42.4468 -7.53555e-07 0)
(42.4459 -7.63702e-07 0)
(42.4456 -7.39568e-07 0)
(42.4458 -8.25275e-07 0)
(42.4463 -6.16019e-07 0)
(42.447 -5.96867e-08 0)
(42.4478 4.69869e-06 0)
(42.4479 3.75511e-05 0)
(42.4429 0.000268445 0)
(42.4037 0.00189474 0)
(42.2224 0.0167481 0)
(39.6619 0.0870633 0)
(42.6995 0.000128274 0)
(42.6985 9.89881e-05 0)
(42.6973 8.59931e-05 0)
(42.6962 8.53568e-05 0)
(42.6952 8.53317e-05 0)
(42.6943 8.49143e-05 0)
(42.6935 8.46426e-05 0)
(42.6928 8.44392e-05 0)
(42.6922 8.43099e-05 0)
(42.6918 8.42025e-05 0)
(42.6915 8.41189e-05 0)
(42.6913 8.40655e-05 0)
(42.6913 8.39974e-05 0)
(42.6914 8.39771e-05 0)
(42.6916 8.39516e-05 0)
(42.692 8.39224e-05 0)
(42.6924 8.39069e-05 0)
(42.6928 8.39102e-05 0)
(42.6933 8.39035e-05 0)
(42.6938 8.39066e-05 0)
(42.6943 8.39117e-05 0)
(42.6947 8.39339e-05 0)
(42.6951 8.3935e-05 0)
(42.6955 8.39497e-05 0)
(42.6956 8.40232e-05 0)
(42.6957 8.40008e-05 0)
(42.6957 8.40424e-05 0)
(42.6955 8.40791e-05 0)
(42.6951 8.41152e-05 0)
(42.6946 8.41514e-05 0)
(42.6939 8.41889e-05 0)
(42.693 8.42277e-05 0)
(42.692 8.42681e-05 0)
(42.6909 8.43185e-05 0)
(42.6896 8.43963e-05 0)
(42.6883 8.43391e-05 0)
(42.6869 8.44336e-05 0)
(42.6854 8.44827e-05 0)
(42.684 8.4527e-05 0)
(42.6825 8.45706e-05 0)
(42.6811 8.46117e-05 0)
(42.6797 8.46488e-05 0)
(42.6785 8.46793e-05 0)
(42.6774 8.46992e-05 0)
(42.6764 8.47032e-05 0)
(42.6755 8.46843e-05 0)
(42.6749 8.46339e-05 0)
(42.6744 8.45409e-05 0)
(42.674 8.43911e-05 0)
(42.6739 8.41695e-05 0)
(42.6739 8.38485e-05 0)
(42.674 8.34232e-05 0)
(42.6743 8.28478e-05 0)
(42.6747 8.21055e-05 0)
(42.6751 8.1166e-05 0)
(42.6756 8.00007e-05 0)
(42.6761 7.85831e-05 0)
(42.6766 7.689e-05 0)
(42.677 7.49032e-05 0)
(42.6774 7.26116e-05 0)
(42.6777 7.00131e-05 0)
(42.6778 6.71137e-05 0)
(42.6778 6.39309e-05 0)
(42.6776 6.04706e-05 0)
(42.6772 5.68429e-05 0)
(42.6767 5.29653e-05 0)
(42.6759 4.90015e-05 0)
(42.6749 4.49523e-05 0)
(42.6738 4.08884e-05 0)
(42.6725 3.68629e-05 0)
(42.671 3.29329e-05 0)
(42.6694 2.91457e-05 0)
(42.6677 2.55457e-05 0)
(42.666 2.21686e-05 0)
(42.6642 1.90413e-05 0)
(42.6624 1.61813e-05 0)
(42.6607 1.35999e-05 0)
(42.6591 1.12978e-05 0)
(42.6576 9.27004e-06 0)
(42.6563 7.5053e-06 0)
(42.6551 5.98793e-06 0)
(42.6541 4.6977e-06 0)
(42.6534 3.61504e-06 0)
(42.6528 2.71441e-06 0)
(42.6525 1.97595e-06 0)
(42.6524 1.3744e-06 0)
(42.6524 8.93662e-07 0)
(42.6527 5.09617e-07 0)
(42.6531 2.08551e-07 0)
(42.6536 -2.80877e-08 0)
(42.6542 -2.04504e-07 0)
(42.6549 -3.38958e-07 0)
(42.6556 -4.40279e-07 0)
(42.6562 -5.14655e-07 0)
(42.6568 -5.68562e-07 0)
(42.6573 -6.06795e-07 0)
(42.6576 -6.33143e-07 0)
(42.6577 -6.50389e-07 0)
(42.6576 -6.62672e-07 0)
(42.6573 -6.68311e-07 0)
(42.6568 -6.70531e-07 0)
(42.656 -6.70507e-07 0)
(42.6549 -6.69491e-07 0)
(42.6536 -6.67318e-07 0)
(42.652 -6.65097e-07 0)
(42.6502 -6.62518e-07 0)
(42.6483 -6.60364e-07 0)
(42.6461 -6.59032e-07 0)
(42.6439 -6.57844e-07 0)
(42.6417 -6.58036e-07 0)
(42.6394 -6.58912e-07 0)
(42.6372 -6.60894e-07 0)
(42.6351 -6.63537e-07 0)
(42.6332 -6.67236e-07 0)
(42.6315 -6.71677e-07 0)
(42.63 -6.76755e-07 0)
(42.6287 -6.82319e-07 0)
(42.6278 -6.87655e-07 0)
(42.6272 -6.92237e-07 0)
(42.6268 -7.00021e-07 0)
(42.6268 -7.05531e-07 0)
(42.6271 -7.11736e-07 0)
(42.6276 -7.15975e-07 0)
(42.6283 -7.20702e-07 0)
(42.6293 -7.23951e-07 0)
(42.6304 -7.26745e-07 0)
(42.6316 -7.2837e-07 0)
(42.6328 -7.29002e-07 0)
(42.634 -7.28623e-07 0)
(42.6352 -7.27067e-07 0)
(42.6362 -7.24337e-07 0)
(42.6371 -7.20768e-07 0)
(42.6378 -7.1611e-07 0)
(42.6382 -7.10336e-07 0)
(42.6382 -7.04085e-07 0)
(42.638 -6.98577e-07 0)
(42.6373 -6.94876e-07 0)
(42.6364 -6.81197e-07 0)
(42.635 -6.75236e-07 0)
(42.6332 -6.68194e-07 0)
(42.6312 -6.61779e-07 0)
(42.6288 -6.55829e-07 0)
(42.6261 -6.51069e-07 0)
(42.6233 -6.47455e-07 0)
(42.6203 -6.44993e-07 0)
(42.6174 -6.44653e-07 0)
(42.6144 -6.45345e-07 0)
(42.6116 -6.48051e-07 0)
(42.6091 -6.52136e-07 0)
(42.6068 -6.5749e-07 0)
(42.6048 -6.64339e-07 0)
(42.6033 -6.71558e-07 0)
(42.6022 -6.79987e-07 0)
(42.6015 -6.87026e-07 0)
(42.6013 -6.94401e-07 0)
(42.6015 -7.0549e-07 0)
(42.6021 -7.10785e-07 0)
(42.6031 -7.19703e-07 0)
(42.6044 -7.26029e-07 0)
(42.6059 -7.30497e-07 0)
(42.6077 -7.35735e-07 0)
(42.6097 -7.3842e-07 0)
(42.6117 -7.4074e-07 0)
(42.6138 -7.41036e-07 0)
(42.6159 -7.41018e-07 0)
(42.6178 -7.3892e-07 0)
(42.6196 -7.35616e-07 0)
(42.6212 -7.31026e-07 0)
(42.6224 -7.24476e-07 0)
(42.6232 -7.16881e-07 0)
(42.6235 -7.07984e-07 0)
(42.6234 -7.02263e-07 0)
(42.6226 -6.83482e-07 0)
(42.6213 -6.77711e-07 0)
(42.6193 -6.64478e-07 0)
(42.6167 -6.50507e-07 0)
(42.6136 -6.40028e-07 0)
(42.6099 -6.28251e-07 0)
(42.6057 -6.22328e-07 0)
(42.6012 -6.11313e-07 0)
(42.5965 -6.10815e-07 0)
(42.5918 -6.05716e-07 0)
(42.5871 -6.10007e-07 0)
(42.5827 -6.11679e-07 0)
(42.5787 -6.20768e-07 0)
(42.5752 -6.27251e-07 0)
(42.5724 -6.42833e-07 0)
(42.5702 -6.51896e-07 0)
(42.5687 -6.68938e-07 0)
(42.5678 -6.9453e-07 0)
(42.5675 -5.78814e-07 0)
(42.5677 -8.94858e-07 0)
(42.5682 2.1462e-07 0)
(42.5689 3.91168e-06 0)
(42.5696 3.25952e-05 0)
(42.5697 0.000229886 0)
(42.5649 0.00160755 0)
(42.5268 0.0111395 0)
(42.3505 0.0790553 0)
(40.3607 0.375708 0)
(42.6995 -6.93333e-13 0)
(42.6984 -9.34596e-13 0)
(42.6972 -1.5505e-12 0)
(42.6962 -1.13473e-12 0)
(42.6952 -1.48537e-12 0)
(42.6942 -4.91417e-12 0)
(42.6934 -9.17301e-12 0)
(42.6927 -1.20088e-11 0)
(42.6922 -9.49766e-12 0)
(42.6918 -6.10772e-12 0)
(42.6915 -4.39752e-12 0)
(42.6913 -5.79104e-12 0)
(42.6913 -6.85141e-12 0)
(42.6914 -8.74918e-12 0)
(42.6916 -1.15843e-11 0)
(42.6919 -1.34556e-11 0)
(42.6923 -1.47209e-11 0)
(42.6928 -1.52878e-11 0)
(42.6933 -1.53442e-11 0)
(42.6938 -1.57662e-11 0)
(42.6943 -1.65001e-11 0)
(42.6947 -1.74068e-11 0)
(42.6951 -1.90829e-11 0)
(42.6954 -1.88233e-11 0)
(42.6956 -1.80356e-11 0)
(42.6957 -1.7936e-11 0)
(42.6957 -1.68417e-11 0)
(42.6955 -1.57302e-11 0)
(42.6951 -1.44137e-11 0)
(42.6946 -1.32697e-11 0)
(42.6939 -1.13775e-11 0)
(42.693 -9.86859e-12 0)
(42.692 -8.66227e-12 0)
(42.6909 -6.38697e-12 0)
(42.6896 -5.7803e-12 0)
(42.6883 -5.89536e-12 0)
(42.6869 -6.45004e-12 0)
(42.6854 -7.21273e-12 0)
(42.684 -8.5462e-12 0)
(42.6825 -9.95115e-12 0)
(42.6811 -1.13355e-11 0)
(42.6797 -1.19465e-11 0)
(42.6785 -1.41234e-11 0)
(42.6774 -1.70742e-11 0)
(42.6764 -1.77921e-11 0)
(42.6755 -1.86413e-11 0)
(42.6749 -1.87063e-11 0)
(42.6744 -1.81699e-11 0)
(42.6741 -1.87833e-11 0)
(42.6739 -1.72883e-11 0)
(42.6739 -1.43476e-11 0)
(42.674 -1.27163e-11 0)
(42.6743 -1.09928e-11 0)
(42.6747 -9.2723e-12 0)
(42.6751 -8.82831e-12 0)
(42.6756 -1.07269e-11 0)
(42.6761 -1.30831e-11 0)
(42.6766 -1.5728e-11 0)
(42.6771 -1.85514e-11 0)
(42.6775 -1.93558e-11 0)
(42.6777 -2.09271e-11 0)
(42.6779 -2.09322e-11 0)
(42.6779 -2.03022e-11 0)
(42.6777 -1.79168e-11 0)
(42.6773 -1.69762e-11 0)
(42.6767 -1.52054e-11 0)
(42.676 -1.48691e-11 0)
(42.675 -1.53488e-11 0)
(42.6738 -1.6157e-11 0)
(42.6725 -1.53281e-11 0)
(42.671 -1.46667e-11 0)
(42.6694 -1.4467e-11 0)
(42.6678 -1.46189e-11 0)
(42.666 -1.50215e-11 0)
(42.6642 -1.48506e-11 0)
(42.6625 -1.38169e-11 0)
(42.6608 -1.27736e-11 0)
(42.6591 -1.13822e-11 0)
(42.6577 -8.9338e-12 0)
(42.6563 -6.85934e-12 0)
(42.6551 -6.20585e-12 0)
(42.6542 -8.15363e-12 0)
(42.6534 -9.88249e-12 0)
(42.6529 -1.10075e-11 0)
(42.6525 -1.16204e-11 0)
(42.6524 -1.17311e-11 0)
(42.6525 -1.19801e-11 0)
(42.6527 -1.13327e-11 0)
(42.6531 -1.0125e-11 0)
(42.6536 -9.6851e-12 0)
(42.6542 -8.26264e-12 0)
(42.6549 -7.55032e-12 0)
(42.6556 -9.85538e-12 0)
(42.6562 -1.27028e-11 0)
(42.6568 -1.4158e-11 0)
(42.6573 -1.56723e-11 0)
(42.6576 -1.79381e-11 0)
(42.6577 -1.84105e-11 0)
(42.6577 -1.77125e-11 0)
(42.6573 -1.81815e-11 0)
(42.6568 -1.72368e-11 0)
(42.656 -1.59992e-11 0)
(42.6549 -1.55908e-11 0)
(42.6536 -1.40693e-11 0)
(42.652 -1.08511e-11 0)
(42.6502 -9.57067e-12 0)
(42.6483 -8.41936e-12 0)
(42.6462 -5.06455e-12 0)
(42.644 -3.90035e-12 0)
(42.6417 -2.90251e-12 0)
(42.6394 -3.24157e-12 0)
(42.6372 -1.82138e-12 0)
(42.6352 8.70897e-13 0)
(42.6332 1.77174e-12 0)
(42.6315 2.26049e-12 0)
(42.63 2.6517e-12 0)
(42.6288 1.66531e-12 0)
(42.6279 1.15747e-12 0)
(42.6272 5.82129e-12 0)
(42.6269 -5.59775e-12 0)
(42.6268 4.12662e-12 0)
(42.6271 3.77748e-12 0)
(42.6276 1.2939e-13 0)
(42.6284 3.11511e-12 0)
(42.6293 -5.0323e-12 0)
(42.6304 2.73584e-12 0)
(42.6316 -1.59398e-11 0)
(42.6328 8.79321e-12 0)
(42.6341 -3.64757e-11 0)
(42.6352 1.25021e-11 0)
(42.6363 -5.94595e-11 0)
(42.6372 3.29002e-11 0)
(42.6378 -6.22042e-11 0)
(42.6382 4.55284e-11 0)
(42.6383 -1.08603e-10 0)
(42.638 -3.85072e-10 0)
(42.6374 2.47471e-09 0)
(42.6364 -1.23296e-09 0)
(42.635 -9.50238e-10 0)
(42.6333 2.81688e-10 0)
(42.6312 -2.82633e-10 0)
(42.6288 8.10343e-10 0)
(42.6261 -6.36014e-10 0)
(42.6233 8.72545e-11 0)
(42.6204 -3.43197e-11 0)
(42.6174 -5.66415e-11 0)
(42.6145 2.36147e-11 0)
(42.6117 6.27508e-12 0)
(42.6091 -2.41442e-10 0)
(42.6068 3.07347e-10 0)
(42.6049 -3.69003e-10 0)
(42.6033 3.91341e-10 0)
(42.6022 -8.79937e-10 0)
(42.6015 5.81291e-10 0)
(42.6013 -4.55909e-09 0)
(42.6015 1.27168e-09 0)
(42.6021 2.9446e-09 0)
(42.6031 8.07646e-11 0)
(42.6044 -6.69526e-10 0)
(42.606 1.6057e-09 0)
(42.6078 -8.30937e-10 0)
(42.6097 1.44027e-09 0)
(42.6118 -1.08038e-09 0)
(42.6139 2.28417e-10 0)
(42.6159 -2.23903e-10 0)
(42.6179 9.25223e-11 0)
(42.6197 -7.54526e-10 0)
(42.6212 6.3182e-10 0)
(42.6224 1.38396e-10 0)
(42.6232 3.26774e-10 0)
(42.6236 -9.65931e-10 0)
(42.6234 -2.06926e-09 0)
(42.6227 1.11997e-08 0)
(42.6213 -5.97071e-09 0)
(42.6194 -3.30469e-09 0)
(42.6168 7.82361e-10 0)
(42.6136 -2.52048e-09 0)
(42.6099 2.4824e-09 0)
(42.6058 -4.94968e-09 0)
(42.6013 3.51605e-09 0)
(42.5966 -6.73685e-09 0)
(42.5918 3.70744e-09 0)
(42.5872 -5.97183e-09 0)
(42.5828 9.26803e-10 0)
(42.5787 -6.90533e-09 0)
(42.5753 3.00792e-09 0)
(42.5724 -8.11878e-09 0)
(42.5702 1.79242e-09 0)
(42.5687 -1.29818e-08 0)
(42.5679 -1.27736e-09 0)
(42.5676 1.93532e-07 0)
(42.5677 -1.89686e-07 0)
(42.5682 1.72766e-06 0)
(42.5689 9.12219e-06 0)
(42.5698 6.66332e-05 0)
(42.5706 0.000467778 0)
(42.5713 0.00330848 0)
(42.57 0.0232243 0)
(42.5537 0.162886 0)
(42.4009 0.746916 0)
(42.6995 -0.000128274 0)
(42.6985 -9.89881e-05 0)
(42.6973 -8.59931e-05 0)
(42.6962 -8.53568e-05 0)
(42.6952 -8.53317e-05 0)
(42.6943 -8.49143e-05 0)
(42.6935 -8.46426e-05 0)
(42.6928 -8.44392e-05 0)
(42.6922 -8.43099e-05 0)
(42.6918 -8.42025e-05 0)
(42.6915 -8.41189e-05 0)
(42.6913 -8.40655e-05 0)
(42.6913 -8.39973e-05 0)
(42.6914 -8.39771e-05 0)
(42.6916 -8.39516e-05 0)
(42.692 -8.39224e-05 0)
(42.6924 -8.39069e-05 0)
(42.6928 -8.39102e-05 0)
(42.6933 -8.39035e-05 0)
(42.6938 -8.39066e-05 0)
(42.6943 -8.39117e-05 0)
(42.6947 -8.39339e-05 0)
(42.6951 -8.3935e-05 0)
(42.6955 -8.39497e-05 0)
(42.6956 -8.40232e-05 0)
(42.6957 -8.40008e-05 0)
(42.6957 -8.40424e-05 0)
(42.6955 -8.40791e-05 0)
(42.6951 -8.41152e-05 0)
(42.6946 -8.41514e-05 0)
(42.6939 -8.41889e-05 0)
(42.693 -8.42277e-05 0)
(42.692 -8.42681e-05 0)
(42.6909 -8.43185e-05 0)
(42.6896 -8.43963e-05 0)
(42.6883 -8.43391e-05 0)
(42.6869 -8.44336e-05 0)
(42.6854 -8.44827e-05 0)
(42.684 -8.4527e-05 0)
(42.6825 -8.45706e-05 0)
(42.6811 -8.46117e-05 0)
(42.6797 -8.46488e-05 0)
(42.6785 -8.46793e-05 0)
(42.6774 -8.46992e-05 0)
(42.6764 -8.47032e-05 0)
(42.6755 -8.46843e-05 0)
(42.6749 -8.46339e-05 0)
(42.6744 -8.45409e-05 0)
(42.674 -8.43911e-05 0)
(42.6739 -8.41695e-05 0)
(42.6739 -8.38485e-05 0)
(42.674 -8.34232e-05 0)
(42.6743 -8.28478e-05 0)
(42.6747 -8.21055e-05 0)
(42.6751 -8.1166e-05 0)
(42.6756 -8.00007e-05 0)
(42.6761 -7.85831e-05 0)
(42.6766 -7.689e-05 0)
(42.677 -7.49032e-05 0)
(42.6774 -7.26116e-05 0)
(42.6777 -7.00131e-05 0)
(42.6778 -6.71137e-05 0)
(42.6778 -6.39309e-05 0)
(42.6776 -6.04706e-05 0)
(42.6772 -5.68429e-05 0)
(42.6767 -5.29653e-05 0)
(42.6759 -4.90015e-05 0)
(42.6749 -4.49523e-05 0)
(42.6738 -4.08884e-05 0)
(42.6725 -3.68629e-05 0)
(42.671 -3.29329e-05 0)
(42.6694 -2.91457e-05 0)
(42.6677 -2.55457e-05 0)
(42.666 -2.21686e-05 0)
(42.6642 -1.90413e-05 0)
(42.6624 -1.61813e-05 0)
(42.6607 -1.35999e-05 0)
(42.6591 -1.12978e-05 0)
(42.6576 -9.27003e-06 0)
(42.6563 -7.50529e-06 0)
(42.6551 -5.98792e-06 0)
(42.6541 -4.6977e-06 0)
(42.6534 -3.61504e-06 0)
(42.6528 -2.71441e-06 0)
(42.6525 -1.97595e-06 0)
(42.6524 -1.37439e-06 0)
(42.6524 -8.9366e-07 0)
(42.6527 -5.09616e-07 0)
(42.6531 -2.08551e-07 0)
(42.6536 2.80908e-08 0)
(42.6542 2.04509e-07 0)
(42.6549 3.38958e-07 0)
(42.6556 4.40283e-07 0)
(42.6562 5.14658e-07 0)
(42.6568 5.68564e-07 0)
(42.6573 6.06803e-07 0)
(42.6576 6.33148e-07 0)
(42.6577 6.5039e-07 0)
(42.6576 6.62675e-07 0)
(42.6573 6.68313e-07 0)
(42.6568 6.70534e-07 0)
(42.656 6.7051e-07 0)
(42.6549 6.69493e-07 0)
(42.6536 6.6732e-07 0)
(42.652 6.65099e-07 0)
(42.6502 6.62519e-07 0)
(42.6483 6.60362e-07 0)
(42.6461 6.5903e-07 0)
(42.6439 6.57842e-07 0)
(42.6417 6.58034e-07 0)
(42.6394 6.58905e-07 0)
(42.6372 6.60889e-07 0)
(42.6351 6.63537e-07 0)
(42.6332 6.67234e-07 0)
(42.6315 6.71678e-07 0)
(42.63 6.76755e-07 0)
(42.6287 6.82316e-07 0)
(42.6278 6.8765e-07 0)
(42.6272 6.92242e-07 0)
(42.6268 6.99998e-07 0)
(42.6268 7.05535e-07 0)
(42.6271 7.11738e-07 0)
(42.6276 7.15969e-07 0)
(42.6283 7.20705e-07 0)
(42.6293 7.23941e-07 0)
(42.6304 7.26758e-07 0)
(42.6316 7.28352e-07 0)
(42.6328 7.29038e-07 0)
(42.634 7.28577e-07 0)
(42.6352 7.27133e-07 0)
(42.6362 7.24258e-07 0)
(42.6371 7.20854e-07 0)
(42.6378 7.16029e-07 0)
(42.6382 7.10425e-07 0)
(42.6382 7.03944e-07 0)
(42.638 6.98523e-07 0)
(42.6373 6.96309e-07 0)
(42.6364 6.80602e-07 0)
(42.635 6.74494e-07 0)
(42.6332 6.68377e-07 0)
(42.6312 6.6144e-07 0)
(42.6288 6.57473e-07 0)
(42.6261 6.49653e-07 0)
(42.6233 6.47551e-07 0)
(42.6203 6.44931e-07 0)
(42.6174 6.44575e-07 0)
(42.6144 6.45382e-07 0)
(42.6116 6.48122e-07 0)
(42.6091 6.51899e-07 0)
(42.6068 6.57823e-07 0)
(42.6048 6.6387e-07 0)
(42.6033 6.72106e-07 0)
(42.6022 6.7887e-07 0)
(42.6015 6.87631e-07 0)
(42.6013 6.8953e-07 0)
(42.6015 7.06798e-07 0)
(42.6021 7.14179e-07 0)
(42.6031 7.19704e-07 0)
(42.6044 7.2516e-07 0)
(42.6059 7.324e-07 0)
(42.6077 7.34669e-07 0)
(42.6097 7.39978e-07 0)
(42.6117 7.39403e-07 0)
(42.6138 7.41363e-07 0)
(42.6159 7.40758e-07 0)
(42.6178 7.39247e-07 0)
(42.6196 7.34848e-07 0)
(42.6212 7.31739e-07 0)
(42.6224 7.24392e-07 0)
(42.6232 7.17596e-07 0)
(42.6235 7.06696e-07 0)
(42.6234 6.994e-07 0)
(42.6226 6.98419e-07 0)
(42.6213 6.69682e-07 0)
(42.6193 6.60213e-07 0)
(42.6167 6.51702e-07 0)
(42.6136 6.36915e-07 0)
(42.6099 6.31667e-07 0)
(42.6057 6.16042e-07 0)
(42.6012 6.16664e-07 0)
(42.5965 6.02562e-07 0)
(42.5918 6.11441e-07 0)
(42.5871 6.02551e-07 0)
(42.5827 6.15415e-07 0)
(42.5787 6.12947e-07 0)
(42.5752 6.32677e-07 0)
(42.5724 6.33527e-07 0)
(42.5702 6.58478e-07 0)
(42.5687 6.54844e-07 0)
(42.5678 6.98998e-07 0)
(42.5675 8.40896e-07 0)
(42.5677 6.37313e-07 0)
(42.5682 1.90453e-06 0)
(42.5689 6.93168e-06 0)
(42.5699 4.6805e-05 0)
(42.572 0.000327486 0)
(42.5809 0.00234381 0)
(42.6387 0.0169021 0)
(42.8506 0.137853 0)
(46.0603 0.581322 0)
(42.6978 -0.000101118 0)
(42.6949 -9.25387e-05 0)
(42.6919 -8.99482e-05 0)
(42.6891 -9.08442e-05 0)
(42.6863 -9.15652e-05 0)
(42.6836 -9.19622e-05 0)
(42.681 -9.22858e-05 0)
(42.6785 -9.25159e-05 0)
(42.6761 -9.27068e-05 0)
(42.6739 -9.28474e-05 0)
(42.6718 -9.29552e-05 0)
(42.6699 -9.30443e-05 0)
(42.6681 -9.3098e-05 0)
(42.6664 -9.31589e-05 0)
(42.6648 -9.32015e-05 0)
(42.6634 -9.32269e-05 0)
(42.662 -9.32547e-05 0)
(42.6606 -9.32827e-05 0)
(42.6593 -9.33016e-05 0)
(42.6581 -9.33218e-05 0)
(42.6568 -9.33411e-05 0)
(42.6554 -9.33702e-05 0)
(42.654 -9.33836e-05 0)
(42.6526 -9.34048e-05 0)
(42.651 -9.34645e-05 0)
(42.6493 -9.34647e-05 0)
(42.6474 -9.34981e-05 0)
(42.6454 -9.35332e-05 0)
(42.6433 -9.35684e-05 0)
(42.6409 -9.36031e-05 0)
(42.6384 -9.36385e-05 0)
(42.6358 -9.36748e-05 0)
(42.633 -9.37124e-05 0)
(42.6301 -9.37565e-05 0)
(42.627 -9.38209e-05 0)
(42.6239 -9.37944e-05 0)
(42.6207 -9.38666e-05 0)
(42.6174 -9.39121e-05 0)
(42.6141 -9.39544e-05 0)
(42.6109 -9.39954e-05 0)
(42.6077 -9.40337e-05 0)
(42.6045 -9.40675e-05 0)
(42.6015 -9.40937e-05 0)
(42.5985 -9.41083e-05 0)
(42.5958 -9.41055e-05 0)
(42.5931 -9.40778e-05 0)
(42.5906 -9.40156e-05 0)
(42.5883 -9.39068e-05 0)
(42.5862 -9.37362e-05 0)
(42.5843 -9.34864e-05 0)
(42.5825 -9.31286e-05 0)
(42.5808 -9.26516e-05 0)
(42.5793 -9.20152e-05 0)
(42.578 -9.11942e-05 0)
(42.5767 -9.0156e-05 0)
(42.5754 -8.88696e-05 0)
(42.5743 -8.73054e-05 0)
(42.5731 -8.54379e-05 0)
(42.5719 -8.32468e-05 0)
(42.5707 -8.07194e-05 0)
(42.5695 -7.78523e-05 0)
(42.5682 -7.46521e-05 0)
(42.5667 -7.11372e-05 0)
(42.5652 -6.73229e-05 0)
(42.5636 -6.32941e-05 0)
(42.5619 -5.90204e-05 0)
(42.56 -5.4627e-05 0)
(42.558 -5.01416e-05 0)
(42.556 -4.56352e-05 0)
(42.5538 -4.1168e-05 0)
(42.5516 -3.68022e-05 0)
(42.5493 -3.25922e-05 0)
(42.5471 -2.85866e-05 0)
(42.5448 -2.48255e-05 0)
(42.5426 -2.13394e-05 0)
(42.5405 -1.81489e-05 0)
(42.5384 -1.52662e-05 0)
(42.5366 -1.26935e-05 0)
(42.5348 -1.04255e-05 0)
(42.5333 -8.45007e-06 0)
(42.532 -6.75017e-06 0)
(42.5309 -5.30394e-06 0)
(42.5301 -4.08879e-06 0)
(42.5295 -3.07791e-06 0)
(42.5291 -2.24808e-06 0)
(42.5289 -1.57256e-06 0)
(42.5289 -1.03104e-06 0)
(42.5292 -5.99151e-07 0)
(42.5296 -2.61757e-07 0)
(42.5301 5.2063e-09 0)
(42.5307 2.06314e-07 0)
(42.5314 3.59518e-07 0)
(42.5321 4.74594e-07 0)
(42.5327 5.59425e-07 0)
(42.5333 6.21292e-07 0)
(42.5338 6.65757e-07 0)
(42.5341 6.97166e-07 0)
(42.5343 7.18744e-07 0)
(42.5342 7.34173e-07 0)
(42.5339 7.43162e-07 0)
(42.5334 7.48736e-07 0)
(42.5326 7.51642e-07 0)
(42.5316 7.53049e-07 0)
(42.5303 7.53193e-07 0)
(42.5287 7.52882e-07 0)
(42.5269 7.52035e-07 0)
(42.525 7.51242e-07 0)
(42.5229 7.50739e-07 0)
(42.5207 7.50159e-07 0)
(42.5185 7.50297e-07 0)
(42.5162 7.50774e-07 0)
(42.514 7.51838e-07 0)
(42.512 7.532e-07 0)
(42.51 7.55112e-07 0)
(42.5083 7.5742e-07 0)
(42.5069 7.60085e-07 0)
(42.5056 7.63032e-07 0)
(42.5047 7.65839e-07 0)
(42.5041 7.68193e-07 0)
(42.5038 7.72404e-07 0)
(42.5038 7.75196e-07 0)
(42.504 7.7866e-07 0)
(42.5046 7.80964e-07 0)
(42.5053 7.83614e-07 0)
(42.5063 7.85451e-07 0)
(42.5074 7.87092e-07 0)
(42.5086 7.88108e-07 0)
(42.5099 7.88617e-07 0)
(42.5111 7.88534e-07 0)
(42.5123 7.8792e-07 0)
(42.5134 7.86516e-07 0)
(42.5143 7.84821e-07 0)
(42.5149 7.82347e-07 0)
(42.5153 7.79385e-07 0)
(42.5154 7.75998e-07 0)
(42.5152 7.73393e-07 0)
(42.5146 7.70885e-07 0)
(42.5136 7.64205e-07 0)
(42.5122 7.60887e-07 0)
(42.5105 7.5696e-07 0)
(42.5084 7.53392e-07 0)
(42.5061 7.51091e-07 0)
(42.5034 7.4674e-07 0)
(42.5006 7.45414e-07 0)
(42.4977 7.43902e-07 0)
(42.4947 7.43569e-07 0)
(42.4918 7.43756e-07 0)
(42.489 7.45088e-07 0)
(42.4865 7.4706e-07 0)
(42.4842 7.49895e-07 0)
(42.4823 7.53227e-07 0)
(42.4808 7.57279e-07 0)
(42.4797 7.61237e-07 0)
(42.479 7.65409e-07 0)
(42.4788 7.67575e-07 0)
(42.479 7.75679e-07 0)
(42.4796 7.7865e-07 0)
(42.4806 7.82577e-07 0)
(42.4819 7.85953e-07 0)
(42.4835 7.89173e-07 0)
(42.4853 7.91558e-07 0)
(42.4873 7.93716e-07 0)
(42.4894 7.9464e-07 0)
(42.4915 7.95616e-07 0)
(42.4936 7.95611e-07 0)
(42.4955 7.95074e-07 0)
(42.4973 7.93277e-07 0)
(42.4989 7.91229e-07 0)
(42.5001 7.87673e-07 0)
(42.501 7.84258e-07 0)
(42.5013 7.7879e-07 0)
(42.5012 7.75459e-07 0)
(42.5004 7.7133e-07 0)
(42.4991 7.60359e-07 0)
(42.4972 7.54456e-07 0)
(42.4946 7.4896e-07 0)
(42.4915 7.41784e-07 0)
(42.4878 7.37073e-07 0)
(42.4836 7.30376e-07 0)
(42.4792 7.28365e-07 0)
(42.4745 7.23147e-07 0)
(42.4697 7.24194e-07 0)
(42.4651 7.2185e-07 0)
(42.4607 7.27258e-07 0)
(42.4567 7.27755e-07 0)
(42.4533 7.35647e-07 0)
(42.4504 7.38417e-07 0)
(42.4482 7.50058e-07 0)
(42.4468 7.52444e-07 0)
(42.4459 7.6947e-07 0)
(42.4456 8.08153e-07 0)
(42.4458 7.57511e-07 0)
(42.4463 1.00837e-06 0)
(42.4471 1.78563e-06 0)
(42.4481 8.10396e-06 0)
(42.4502 5.22994e-05 0)
(42.4594 0.00037665 0)
(42.5208 0.00296162 0)
(42.7524 0.0403203 0)
(48.1197 0.164891 0)
(38.229 1.29719 -3.15975e-15)
(37.1343 3.72142 6.33851e-15)
(36.7025 6.48297 -1.18834e-14)
(36.2713 9.27623 2.45567e-14)
(35.5842 12.0359 -2.53381e-14)
(34.6693 14.7509 -1.58262e-15)
(33.7016 17.4808 3.73553e-20)
(32.8562 20.3826 -2.20449e-14)
(31.9732 23.4272 -1.02031e-13)
(30.5603 26.201 1.00407e-13)
(28.4251 28.3575 -2.51e-14)
(25.7798 29.8933 -5.18483e-14)
(22.8631 30.9623 2.67863e-14)
(19.9787 32.0111 0)
(17.7076 34.2138 2.51379e-14)
(16.0444 38.3747 2.47924e-14)
(14.266 43.9026 -2.44029e-14)
(11.6798 49.2253 2.41157e-14)
(8.30096 52.5977 1.87517e-16)
(4.65745 54.4999 -1.86251e-16)
(39.4674 2.05572 0)
(38.8123 5.00871 0)
(38.3829 8.26506 -1.60858e-15)
(37.8355 11.5042 -3.21423e-15)
(37.0029 14.6838 8.02699e-15)
(35.9038 17.7867 1.60347e-14)
(34.7744 20.7577 0)
(33.7849 23.8135 9.54777e-15)
(32.6116 27.2352 1.58576e-14)
(30.6224 30.7402 -3.80456e-14)
(27.7928 33.5658 2.5349e-14)
(24.4 35.6058 1.26755e-14)
(20.799 36.8478 -1.26977e-14)
(17.7115 37.3116 1.27568e-14)
(16.2416 37.9783 0)
(15.3846 40.5607 -1.56449e-15)
(13.6974 45.1249 1.53995e-15)
(10.2271 50.5887 -5.32777e-15)
(4.94254 55.1316 -7.58239e-16)
(0.322889 57.2796 0)
(42.3511 1.64413 -4.09765e-17)
(42.3508 2.71396 -2.0825e-14)
(42.4529 3.8021 2.11501e-14)
(42.6403 4.88523 -2.03282e-14)
(42.863 6.03761 -2.22969e-14)
(43.0786 7.33846 8.29903e-14)
(43.235 8.83415 -4.20101e-14)
(43.2961 10.4953 4.07227e-14)
(43.3011 12.2403 -8.2847e-14)
(43.3164 14.0924 1.32316e-15)
(43.2567 16.2065 4.08311e-14)
(42.9513 18.6486 0)
(42.2617 21.3931 -4.08227e-14)
(41.0347 24.3692 4.08354e-14)
(39.0399 27.3962 -3.29285e-16)
(36.5568 30.0787 0)
(34.2904 32.202 3.30469e-16)
(32.8507 33.9295 0)
(32.22 35.7194 0)
(31.7468 37.8819 0)
(46.6119 2.64097 6.26006e-16)
(46.3401 6.06263 -6.28073e-15)
(45.3093 10.1328 -1.25882e-15)
(44.0867 14.3135 2.5154e-15)
(42.9726 18.4383 -2.50467e-15)
(41.9076 22.4985 -4.90941e-19)
(40.72 26.4881 -9.90162e-15)
(39.2505 30.3625 0)
(37.4594 34.1072 0)
(35.3466 37.7154 -4.87039e-15)
(32.8876 41.1336 4.8463e-15)
(30.1018 44.3507 0)
(26.9913 47.3151 -4.80079e-15)
(23.5855 49.9926 4.78456e-15)
(19.9252 52.3578 -4.7678e-15)
(16.043 54.3943 9.50291e-15)
(11.9618 56.0813 -4.7402e-15)
(7.71397 57.3825 0)
(3.37842 58.2821 -2.35888e-15)
(-0.595211 58.7006 0)
(49.5996 1.81852 -9.54821e-16)
(50.5783 4.6595 7.31928e-15)
(50.2743 8.07406 5.09202e-15)
(49.442 11.6535 1.01774e-14)
(48.5954 15.3661 0)
(47.7601 19.2136 0)
(46.7953 23.1442 1.00762e-14)
(45.5691 27.0754 2.50752e-15)
(44.0144 30.9849 -4.99196e-15)
(42.1341 34.8028 2.48553e-15)
(39.8879 38.4885 1.98001e-14)
(37.293 41.9885 -1.23289e-14)
(34.3481 45.2555 1.22917e-14)
(31.0695 48.2528 -2.45061e-15)
(27.4871 50.949 -9.77926e-15)
(23.6409 53.3002 -1.70854e-14)
(19.5828 55.2342 -8.5334e-15)
(15.369 56.6395 -1.21917e-15)
(11.0719 57.3499 7.01569e-15)
(6.95202 57.0167 3.05971e-16)
(1.69122 55.5917 0)
(1.15157 55.5831 0)
(0.959937 57.7506 0)
(1.03568 59.3596 0)
(1.08636 59.381 0)
(1.09772 58.9827 0)
(1.08462 58.921 0)
(1.07582 59.1087 0)
(1.08424 59.2294 0)
(1.08929 59.2187 0)
(1.0902 59.1801 0)
(1.08843 59.1707 0)
(1.08728 59.1835 0)
(1.08777 59.1878 0)
(1.08796 59.1737 0)
(1.08759 59.152 0)
(1.08671 59.1284 0)
(1.0855 59.1033 0)
(1.0841 59.0767 0)
(1.0826 59.0487 0)
(1.08107 59.02 0)
(1.07956 58.9914 0)
(1.07808 58.9639 0)
(1.07666 58.9384 0)
(1.07528 58.9153 0)
(1.0739 58.8948 0)
(1.0725 58.8769 0)
(1.07102 58.8611 0)
(1.06944 58.8468 0)
(1.06773 58.8332 0)
(1.06588 58.8195 0)
(1.0639 58.8048 0)
(1.06178 58.7885 0)
(1.05956 58.7699 0)
(1.05725 58.7487 0)
(1.05488 58.7247 0)
(1.0525 58.6978 0)
(1.05015 58.6683 0)
(1.04786 58.6364 0)
(1.04566 58.6026 0)
(1.04358 58.5671 0)
(1.04163 58.5306 0)
(1.03983 58.4935 0)
(1.03816 58.4563 0)
(1.03661 58.4192 0)
(1.03517 58.3827 0)
(1.03382 58.347 0)
(1.03252 58.3123 0)
(1.03124 58.2785 0)
(1.02997 58.2458 0)
(1.02866 58.2141 0)
(1.0273 58.1831 0)
(1.02586 58.1526 0)
(1.02433 58.1224 0)
(1.02268 58.0921 0)
(1.02089 58.0616 0)
(1.01893 58.0304 0)
(1.01675 57.9982 0)
(1.01427 57.9647 0)
(1.01139 57.9296 0)
(1.00797 57.8928 0)
(1.00374 57.8551 0)
(0.998007 57.821 0)
(0.988776 57.8094 0)
(0.975495 57.8509 0)
(0.964046 57.9378 0)
(0.956995 58.0162 0)
(0.952271 58.043 0)
(0.944475 58.0132 0)
(0.931641 57.9541 0)
(0.914359 57.8893 0)
(0.893237 57.8217 0)
(0.868612 57.7491 0)
(0.840698 57.6689 0)
(0.809694 57.5782 0)
(0.775837 57.4738 0)
(0.739434 57.3531 0)
(0.700868 57.2133 0)
(0.660588 57.0527 0)
(0.619095 56.8699 0)
(0.57692 56.6642 0)
(0.534593 56.4351 0)
(0.492616 56.1821 0)
(0.451447 55.9037 0)
(0.411471 55.5973 0)
(0.372989 55.2581 0)
(0.336204 54.8796 0)
(0.301231 54.4534 0)
(0.268107 53.9702 0)
(0.236784 53.4205 0)
(0.20724 52.7962 0)
(0.179506 52.0923 0)
(0.153517 51.3084 0)
(0.129487 50.4503 0)
(0.107612 49.5311 0)
(0.0881576 48.5712 0)
(0.0712167 47.5972 0)
(0.0569111 46.6385 0)
(0.0452413 45.7239 0)