/*--------------------------------*- C++ -*----------------------------------*\
| =========                 |                                                 |
| \\      /  F ield         | OpenFOAM: The Open Source CFD Toolbox           |
|  \\    /   O peration     | Version:  3.0.x                                 |
|   \\  /    A nd           | Web:      www.OpenFOAM.org                      |
|    \\/     M anipulation  |                                                 |
\*---------------------------------------------------------------------------*/
FoamFile
{
    version     2.0;
    format      ascii;
    class       surfaceScalarField;
    location    "0.05005";
    object      phi;
}
// * * * * * * * * * * * * * * * * * * * * * * * * * * * * * * * * * * * * * //

dimensions      [1 0 -1 0 0 0 0];

internalField   nonuniform List<scalar> 
26210
(
5.29527
0.000503931
5.29492
0.000346426
5.29458
0.000339327
5.29424
0.000339351
5.2939
0.000335531
5.29357
0.000327591
5.29326
0.000313928
5.29297
0.000293162
5.2927
0.000265074
5.29247
0.000230862
5.29227
0.00019294
5.29212
0.000154359
5.292
0.000118073
5.29191
8.63413e-05
5.29185
6.03779e-05
5.29181
4.04526e-05
5.29178
2.60157e-05
5.29177
1.61182e-05
5.29176
9.6761e-06
5.29175
5.69222e-06
5.29174
3.32868e-06
5.29174
1.99319e-06
5.29174
1.26867e-06
5.29174
8.91057e-07
5.29174
7.01659e-07
5.29173
6.10087e-07
5.29173
5.67352e-07
5.29173
5.48071e-07
5.29173
5.39652e-07
5.29173
5.36093e-07
5.29173
5.34636e-07
5.29173
5.34055e-07
5.29172
5.33835e-07
5.29172
5.33757e-07
5.29172
5.33733e-07
5.29172
5.33728e-07
5.29172
5.33735e-07
5.29172
5.33746e-07
5.29172
5.33761e-07
5.29171
5.33779e-07
5.29171
5.33808e-07
5.29171
5.33848e-07
5.29171
5.33881e-07
5.2917
5.33946e-07
5.2917
5.34077e-07
5.29169
5.34272e-07
5.29169
5.34519e-07
5.29168
5.34883e-07
5.29166
5.35407e-07
5.29164
5.36149e-07
5.29161
5.37195e-07
5.29156
5.38643e-07
5.2915
5.40624e-07
5.29142
5.43301e-07
5.2913
5.46872e-07
5.29114
5.51569e-07
5.29093
5.57646e-07
5.29065
5.65395e-07
5.29027
5.75114e-07
5.28979
5.8709e-07
5.28918
6.01583e-07
5.28841
6.18762e-07
5.28745
6.38696e-07
5.28628
6.61266e-07
5.28486
6.86148e-07
5.28318
7.12722e-07
5.28122
7.40065e-07
5.27897
7.66882e-07
5.27643
7.9155e-07
5.27363
8.12124e-07
5.27059
8.26418e-07
5.26738
8.32124e-07
5.26406
8.26989e-07
5.26072
8.08999e-07
5.25747
7.76607e-07
5.25441
7.28945e-07
5.25167
6.66041e-07
5.24935
5.88934e-07
5.24757
4.99744e-07
5.24638
4.01636e-07
5.24587
2.98915e-07
5.24603
2.29831e-07
5.24677
1.30192e-07
5.24812
2.09711e-08
5.25005
-6.19984e-08
5.25247
-1.18929e-07
5.25526
-1.60309e-07
5.25829
-1.81795e-07
5.26141
-1.76316e-07
5.2645
-1.57297e-07
5.26746
-1.17479e-07
5.27017
-6.28734e-08
5.27258
-2.55568e-09
5.27463
6.75864e-08
5.27632
1.36881e-07
5.27764
2.03228e-07
5.27862
2.66989e-07
5.2793
3.20244e-07
5.27972
3.66535e-07
5.27993
4.04034e-07
5.27998
4.30375e-07
5.27993
4.44321e-07
5.27981
4.62745e-07
5.27963
4.70285e-07
5.27944
4.74609e-07
5.27924
4.73789e-07
5.27905
4.70845e-07
5.27888
4.675e-07
5.27874
4.61676e-07
5.27863
4.56968e-07
5.27854
4.51742e-07
5.27848
4.46564e-07
5.27844
4.42877e-07
5.27842
4.38587e-07
5.27842
4.36366e-07
5.27844
4.3358e-07
5.27847
4.30482e-07
5.27852
4.28876e-07
5.27857
4.27357e-07
5.27864
4.26242e-07
5.27871
4.25885e-07
5.27879
4.25251e-07
5.27886
4.25496e-07
5.27895
4.25671e-07
5.27903
4.26102e-07
5.27911
4.2688e-07
5.27919
4.27603e-07
5.27927
4.2861e-07
5.27934
4.29691e-07
5.27941
4.30759e-07
5.27948
4.31892e-07
5.27954
4.33012e-07
5.2796
4.34104e-07
5.27965
4.35241e-07
5.2797
4.36243e-07
5.27975
4.3724e-07
5.27979
4.38225e-07
5.27982
4.39091e-07
5.27986
4.39928e-07
5.27989
4.40634e-07
5.27992
4.41281e-07
5.27995
4.4188e-07
5.27997
4.42375e-07
5.27999
4.42809e-07
5.28002
4.43217e-07
5.28004
4.43562e-07
5.28006
4.43873e-07
5.28008
4.44152e-07
5.28009
4.4437e-07
5.28011
4.44612e-07
5.28013
4.44485e-07
5.28015
4.45312e-07
5.28016
4.45189e-07
5.28018
4.45089e-07
5.2802
4.45834e-07
5.28021
4.45731e-07
5.28023
4.45803e-07
5.28024
4.46142e-07
5.28026
4.4622e-07
5.28027
4.46285e-07
5.28029
4.46529e-07
5.2803
4.46627e-07
5.28032
4.47017e-07
5.28033
4.4664e-07
5.28035
4.47044e-07
5.28036
4.47166e-07
5.28037
4.47328e-07
5.28038
4.47519e-07
5.2804
4.47546e-07
5.28041
4.47739e-07
5.28042
4.47897e-07
5.28043
4.47961e-07
5.28044
4.48139e-07
5.28045
4.4819e-07
5.28046
4.48406e-07
5.28046
4.48483e-07
5.28047
4.48588e-07
5.28048
4.48475e-07
5.28049
4.48912e-07
5.2805
4.48792e-07
5.2805
4.48856e-07
5.28051
4.46342e-07
5.28052
4.51644e-07
5.28052
4.4944e-07
5.28053
4.67557e-07
5.28053
4.01631e-07
5.28054
4.79016e-07
5.28054
4.56082e-07
5.28054
4.82682e-07
5.28055
5.74462e-07
5.28055
1.10732e-06
5.28055
3.62224e-06
5.28054
1.58013e-05
5.28047
7.50774e-05
5.28011
0.000357148
5.27846
0.00165313
5.27081
0.00765657
5.23545
0.035354
5.05682
0.17864
0.680578
4.37625
7.4894
0.000460202
7.48942
0.00032909
7.48944
0.000314778
7.48946
0.000316717
7.48948
0.000313328
7.4895
0.000305898
7.48952
0.00029324
7.48954
0.000273969
7.48955
0.000247852
7.48957
0.000215995
7.48958
0.00018064
7.48958
0.000144628
7.48959
0.000110717
7.48959
8.10409e-05
7.48959
5.67229e-05
7.48959
3.80411e-05
7.48959
2.44896e-05
7.48959
1.51882e-05
7.48959
9.12625e-06
7.48959
5.37241e-06
7.48959
3.14271e-06
7.48959
1.88094e-06
7.48958
1.19547e-06
7.48958
8.37681e-07
7.48958
6.5795e-07
7.48958
5.70917e-07
7.48958
5.30243e-07
7.48957
5.11855e-07
7.48957
5.03816e-07
7.48957
5.00411e-07
7.48957
4.99011e-07
7.48957
4.98458e-07
7.48956
4.98241e-07
7.48956
4.98165e-07
7.48956
4.98141e-07
7.48956
4.98138e-07
7.48955
4.98147e-07
7.48955
4.98154e-07
7.48955
4.98172e-07
7.48955
4.9819e-07
7.48955
4.9821e-07
7.48954
4.9825e-07
7.48954
4.98285e-07
7.48953
4.98341e-07
7.48953
4.98467e-07
7.48952
4.9865e-07
7.48951
4.9888e-07
7.48949
4.99218e-07
7.48947
4.99711e-07
7.48944
5.00402e-07
7.4894
5.01379e-07
7.48933
5.02734e-07
7.48925
5.04586e-07
7.48913
5.07089e-07
7.48896
5.10427e-07
7.48874
5.14814e-07
7.48844
5.20497e-07
7.48804
5.27734e-07
7.48751
5.36817e-07
7.48683
5.48e-07
7.48597
5.61547e-07
7.48488
5.7758e-07
7.48352
5.9619e-07
7.48186
6.17261e-07
7.47986
6.40475e-07
7.47748
6.65272e-07
7.47471
6.9077e-07
7.47152
7.15771e-07
7.46794
7.38757e-07
7.46397
7.57913e-07
7.45968
7.71195e-07
7.45514
7.76459e-07
7.45044
7.71593e-07
7.44572
7.54744e-07
7.44112
7.24447e-07
7.4368
6.79916e-07
7.43292
6.21169e-07
7.42965
5.49198e-07
7.42712
4.65969e-07
7.42545
3.7447e-07
7.42472
2.79006e-07
7.42494
2.13351e-07
7.42599
1.22633e-07
7.42789
1.93759e-08
7.43063
-5.73636e-08
7.43406
-1.10556e-07
7.438
-1.48966e-07
7.44227
-1.68917e-07
7.44669
-1.63835e-07
7.45107
-1.45896e-07
7.45524
-1.08881e-07
7.45908
-5.79603e-08
7.46248
-1.51158e-09
7.46539
6.35428e-08
7.46777
1.28295e-07
7.46964
1.90043e-07
7.47103
2.49393e-07
7.47199
2.99078e-07
7.47258
3.42088e-07
7.47288
3.77004e-07
7.47295
4.01524e-07
7.47287
4.14626e-07
7.4727
4.31573e-07
7.47245
4.38717e-07
7.47218
4.42675e-07
7.4719
4.41989e-07
7.47163
4.3923e-07
7.4714
4.36106e-07
7.47119
4.30755e-07
7.47103
4.26324e-07
7.4709
4.21505e-07
7.47082
4.16701e-07
7.47076
4.13229e-07
7.47074
4.0932e-07
7.47074
4.07174e-07
7.47077
4.04643e-07
7.47081
4.01784e-07
7.47087
4.0023e-07
7.47095
3.98872e-07
7.47104
3.97815e-07
7.47114
3.97482e-07
7.47125
3.96933e-07
7.47137
3.97116e-07
7.47148
3.97309e-07
7.4716
3.97702e-07
7.47171
3.98415e-07
7.47182
3.99108e-07
7.47193
4.00038e-07
7.47204
4.01051e-07
7.47214
4.02051e-07
7.47223
4.03099e-07
7.47232
4.04152e-07
7.4724
4.05165e-07
7.47248
4.0622e-07
7.47255
4.07161e-07
7.47261
4.08088e-07
7.47267
4.09013e-07
7.47272
4.09822e-07
7.47277
4.10595e-07
7.47281
4.11255e-07
7.47285
4.11861e-07
7.47289
4.12418e-07
7.47293
4.1288e-07
7.47296
4.13285e-07
7.47299
4.13665e-07
7.47302
4.13993e-07
7.47305
4.14278e-07
7.47307
4.14535e-07
7.4731
4.14742e-07
7.47313
4.14964e-07
7.47315
4.14859e-07
7.47317
4.1561e-07
7.4732
4.15512e-07
7.47322
4.15423e-07
7.47325
4.16099e-07
7.47327
4.16017e-07
7.47329
4.16083e-07
7.47331
4.16396e-07
7.47333
4.16465e-07
7.47335
4.1653e-07
7.47337
4.16763e-07
7.47339
4.16849e-07
7.47341
4.17203e-07
7.47343
4.16872e-07
7.47345
4.17236e-07
7.47347
4.17353e-07
7.47349
4.17502e-07
7.47351
4.17664e-07
7.47352
4.17724e-07
7.47354
4.17891e-07
7.47355
4.18029e-07
7.47357
4.18098e-07
7.47358
4.18258e-07
7.4736
4.18311e-07
7.47361
4.18508e-07
7.47362
4.18582e-07
7.47363
4.18691e-07
7.47364
4.18708e-07
7.47365
4.18853e-07
7.47366
4.18846e-07
7.47367
4.1891e-07
7.47368
4.16745e-07
7.47369
4.21393e-07
7.4737
4.19819e-07
7.47371
4.35597e-07
7.47371
3.72895e-07
7.47372
4.50493e-07
7.47373
4.3545e-07
7.47373
4.91262e-07
7.47374
7.35057e-07
7.47374
2.00303e-06
7.47374
8.04686e-06
7.47372
3.73791e-05
7.47362
0.000180043
7.47312
0.000859202
7.4708
0.00397981
7.46
0.0184515
7.41018
0.0851759
7.16427
0.424556
1.57359
6.27127
10.5916
0.000402072
10.5916
0.00030182
10.5917
0.000280757
10.5917
0.000284377
10.5917
0.000281616
10.5918
0.000274912
10.5918
0.00026366
10.5918
0.000246507
10.5918
0.000223203
10.5918
0.00019472
10.5919
0.00016305
10.5919
0.000130725
10.5919
0.000100221
10.5919
7.34879e-05
10.5919
5.15233e-05
10.5919
3.46163e-05
10.5919
2.2326e-05
10.5919
1.38718e-05
10.5919
8.34917e-06
10.5919
4.92108e-06
10.5919
2.88043e-06
10.5919
1.7226e-06
10.5919
1.09209e-06
10.5919
7.62128e-07
10.5919
5.95945e-07
10.5919
5.15257e-07
10.5919
4.77445e-07
10.5919
4.60303e-07
10.5919
4.5279e-07
10.5919
4.49598e-07
10.5918
4.4828e-07
10.5918
4.47759e-07
10.5918
4.47553e-07
10.5918
4.47482e-07
10.5918
4.47457e-07
10.5918
4.47455e-07
10.5918
4.47462e-07
10.5918
4.47467e-07
10.5918
4.47484e-07
10.5918
4.47504e-07
10.5918
4.4752e-07
10.5918
4.47553e-07
10.5918
4.47586e-07
10.5918
4.47638e-07
10.5918
4.4775e-07
10.5918
4.47913e-07
10.5918
4.4812e-07
10.5917
4.48426e-07
10.5917
4.48868e-07
10.5917
4.49491e-07
10.5916
4.50372e-07
10.5915
4.51589e-07
10.5914
4.53254e-07
10.5912
4.55502e-07
10.591
4.58504e-07
10.5907
4.62449e-07
10.5902
4.67555e-07
10.5897
4.74063e-07
10.5889
4.82226e-07
10.588
4.92271e-07
10.5868
5.04462e-07
10.5852
5.18857e-07
10.5833
5.35576e-07
10.5809
5.54507e-07
10.5781
5.7536e-07
10.5748
5.97629e-07
10.5708
6.20524e-07
10.5663
6.42971e-07
10.5613
6.63599e-07
10.5557
6.80783e-07
10.5496
6.92685e-07
10.5432
6.97379e-07
10.5365
6.9297e-07
10.5298
6.778e-07
10.5233
6.50549e-07
10.5172
6.10517e-07
10.5117
5.57729e-07
10.5071
4.93063e-07
10.5035
4.1831e-07
10.5012
3.36151e-07
10.5001
2.50788e-07
10.5005
1.90345e-07
10.5019
1.11313e-07
10.5046
1.68047e-08
10.5085
-5.11382e-08
10.5133
-9.92136e-08
10.5189
-1.33557e-07
10.525
-1.5138e-07
10.5312
-1.46921e-07
10.5374
-1.30591e-07
10.5433
-9.75183e-08
10.5487
-5.18362e-08
10.5535
-5.97538e-10
10.5577
5.70003e-08
10.561
1.15501e-07
10.5637
1.70858e-07
10.5656
2.24067e-07
10.567
2.68747e-07
10.5678
3.07247e-07
10.5682
3.38556e-07
10.5684
3.60573e-07
10.5682
3.72476e-07
10.568
3.87434e-07
10.5676
3.93994e-07
10.5673
3.97454e-07
10.5669
3.96924e-07
10.5665
3.94418e-07
10.5661
3.91592e-07
10.5659
3.86864e-07
10.5656
3.82837e-07
10.5655
3.7855e-07
10.5653
3.74269e-07
10.5653
3.71091e-07
10.5652
3.67678e-07
10.5652
3.65658e-07
10.5653
3.63451e-07
10.5653
3.6091e-07
10.5654
3.5946e-07
10.5655
3.58291e-07
10.5657
3.57325e-07
10.5658
3.57012e-07
10.5659
3.56568e-07
10.5661
3.56682e-07
10.5663
3.56888e-07
10.5664
3.5724e-07
10.5666
3.57861e-07
10.5668
3.58513e-07
10.5669
3.59326e-07
10.5671
3.60242e-07
10.5672
3.61149e-07
10.5673
3.62077e-07
10.5675
3.63026e-07
10.5676
3.63944e-07
10.5677
3.64879e-07
10.5678
3.65736e-07
10.5679
3.66562e-07
10.5679
3.67391e-07
10.568
3.68126e-07
10.5681
3.68812e-07
10.5682
3.69409e-07
10.5682
3.69952e-07
10.5683
3.70449e-07
10.5683
3.70867e-07
10.5684
3.71229e-07
10.5684
3.71573e-07
10.5684
3.71868e-07
10.5685
3.72123e-07
10.5685
3.72353e-07
10.5686
3.72541e-07
10.5686
3.72733e-07
10.5686
3.72662e-07
10.5687
3.73308e-07
10.5687
3.73235e-07
10.5687
3.73167e-07
10.5688
3.73747e-07
10.5688
3.73692e-07
10.5688
3.7375e-07
10.5689
3.74027e-07
10.5689
3.74087e-07
10.5689
3.74148e-07
10.5689
3.7436e-07
10.569
3.74434e-07
10.569
3.74743e-07
10.569
3.74469e-07
10.5691
3.74776e-07
10.5691
3.7489e-07
10.5691
3.75022e-07
10.5691
3.75151e-07
10.5692
3.75239e-07
10.5692
3.75373e-07
10.5692
3.75494e-07
10.5692
3.75564e-07
10.5692
3.75698e-07
10.5693
3.75755e-07
10.5693
3.75926e-07
10.5693
3.75995e-07
10.5693
3.76113e-07
10.5693
3.76252e-07
10.5693
3.76097e-07
10.5694
3.76195e-07
10.5694
3.76266e-07
10.5694
3.74525e-07
10.5694
3.78382e-07
10.5694
3.77502e-07
10.5694
3.90437e-07
10.5694
3.3253e-07
10.5694
4.09284e-07
10.5694
4.05391e-07
10.5695
5.02125e-07
10.5695
9.56206e-07
10.5695
3.24261e-06
10.5695
1.4169e-05
10.5694
6.72503e-05
10.5693
0.000325239
10.5686
0.00155455
10.5654
0.00720342
10.5504
0.0334159
10.4815
0.154101
10.1473
0.758816
2.75108
8.96976
46.7536
0.000185456
46.7537
0.000157931
46.7539
0.000139216
46.754
0.000141837
46.7541
0.000141329
46.7542
0.000137924
46.7544
0.0001324
46.7545
0.000124013
46.7546
0.00011253
46.7547
9.84059e-05
46.7547
8.26138e-05
46.7548
6.64122e-05
46.7548
5.10529e-05
46.7548
3.75391e-05
46.7548
2.63898e-05
46.7548
1.77755e-05
46.7548
1.14923e-05
46.7548
7.1566e-06
46.7548
4.3148e-06
46.7548
2.54555e-06
46.7548
1.48977e-06
46.7548
8.88847e-07
46.7548
5.60787e-07
46.7548
3.88652e-07
46.7548
3.01738e-07
46.7547
2.59434e-07
46.7547
2.39557e-07
46.7547
2.30525e-07
46.7547
2.26557e-07
46.7547
2.24869e-07
46.7547
2.24168e-07
46.7547
2.23892e-07
46.7547
2.23781e-07
46.7546
2.2374e-07
46.7546
2.23728e-07
46.7546
2.23727e-07
46.7546
2.23732e-07
46.7546
2.23734e-07
46.7546
2.23741e-07
46.7546
2.2375e-07
46.7545
2.23759e-07
46.7545
2.23775e-07
46.7545
2.23793e-07
46.7545
2.23819e-07
46.7544
2.23873e-07
46.7544
2.23956e-07
46.7543
2.2406e-07
46.7542
2.24213e-07
46.7541
2.24434e-07
46.7539
2.24745e-07
46.7536
2.25185e-07
46.7532
2.25794e-07
46.7527
2.26625e-07
46.7519
2.27749e-07
46.7509
2.2925e-07
46.7495
2.31225e-07
46.7476
2.33777e-07
46.7451
2.3703e-07
46.7419
2.41111e-07
46.7376
2.46125e-07
46.7322
2.52236e-07
46.7254
2.59429e-07
46.7169
2.67781e-07
46.7066
2.77248e-07
46.6941
2.87673e-07
46.6792
2.98805e-07
46.6619
3.1025e-07
46.642
3.2147e-07
46.6196
3.31781e-07
46.5949
3.40371e-07
46.5681
3.46321e-07
46.5397
3.48666e-07
46.5104
3.46461e-07
46.481
3.38875e-07
46.4522
3.25253e-07
46.4253
3.05239e-07
46.4011
2.78848e-07
46.3806
2.4652e-07
46.3648
2.0915e-07
46.3544
1.68105e-07
46.3498
1.25805e-07
46.3513
9.37634e-08
46.3578
5.68084e-08
46.3697
8.07381e-09
46.3868
-2.58399e-08
46.4081
-4.97796e-08
46.4328
-6.66682e-08
46.4594
-7.56243e-08
46.487
-7.34287e-08
46.5143
-6.51662e-08
46.5404
-4.86084e-08
46.5643
-2.568e-08
46.5856
-1.07821e-09
46.6037
2.82698e-08
46.6186
5.79125e-08
46.6303
8.55403e-08
46.639
1.11933e-07
46.6449
1.3448e-07
46.6486
1.53559e-07
46.6505
1.69233e-07
46.651
1.80248e-07
46.6504
1.8644e-07
46.6494
1.93556e-07
46.6479
1.97052e-07
46.6461
1.98683e-07
46.6444
1.98469e-07
46.6427
1.97223e-07
46.6412
1.95732e-07
46.64
1.9348e-07
46.639
1.91377e-07
46.6382
1.89288e-07
46.6376
1.87157e-07
46.6373
1.85499e-07
46.6371
1.83891e-07
46.6372
1.82766e-07
46.6373
1.81759e-07
46.6376
1.80468e-07
46.638
1.79702e-07
46.6385
1.79157e-07
46.639
1.78664e-07
46.6397
1.78484e-07
46.6403
1.78319e-07
46.6411
1.78318e-07
46.6418
1.78452e-07
46.6425
1.78623e-07
46.6432
1.78921e-07
46.6439
1.79268e-07
46.6446
1.79659e-07
46.6453
1.80118e-07
46.6459
1.80579e-07
46.6465
1.81034e-07
46.647
1.81513e-07
46.6475
1.81975e-07
46.648
1.82437e-07
46.6484
1.82873e-07
46.6488
1.83281e-07
46.6492
1.83692e-07
46.6495
1.84067e-07
46.6498
1.84403e-07
46.6501
1.84705e-07
46.6503
1.84976e-07
46.6506
1.85225e-07
46.6508
1.85434e-07
46.651
1.85616e-07
46.6512
1.85786e-07
46.6514
1.85935e-07
46.6515
1.8606e-07
46.6517
1.86174e-07
46.6519
1.86271e-07
46.652
1.86361e-07
46.6522
1.86349e-07
46.6524
1.86635e-07
46.6525
1.8662e-07
46.6526
1.86599e-07
46.6528
1.86857e-07
46.6529
1.8685e-07
46.6531
1.86877e-07
46.6532
1.87012e-07
46.6533
1.8704e-07
46.6535
1.87077e-07
46.6536
1.87183e-07
46.6537
1.87218e-07
46.6538
1.87357e-07
46.654
1.87251e-07
46.6541
1.87382e-07
46.6542
1.87444e-07
46.6543
1.87509e-07
46.6544
1.87558e-07
46.6545
1.87636e-07
46.6546
1.8769e-07
46.6547
1.87743e-07
46.6548
1.87786e-07
46.6549
1.87847e-07
46.655
1.87885e-07
46.6551
1.8796e-07
46.6551
1.88012e-07
46.6552
1.88163e-07
46.6553
1.88855e-07
46.6553
1.87357e-07
46.6554
1.87951e-07
46.6555
1.88163e-07
46.6555
1.87742e-07
46.6556
1.88958e-07
46.6556
1.89339e-07
46.6557
1.97177e-07
46.6557
1.41399e-07
46.6557
2.3732e-07
46.6558
2.62945e-07
46.6558
5.23568e-07
46.6559
1.80334e-06
46.6559
8.05217e-06
46.6559
3.81275e-05
46.6558
0.000183861
46.6553
0.000890144
46.6525
0.00427419
46.6399
0.0198346
46.5815
0.0918174
46.3178
0.417861
45.2109
1.86572
6.5773
41.3847
46.7536
-1.59162e-12
46.7537
-1.59162e-12
46.7538
1.36424e-12
46.754
-9.09495e-13
46.7541
-2.27374e-13
46.7542
-2.27374e-13
46.7543
-1.81899e-12
46.7545
2.27374e-13
46.7546
9.09495e-13
46.7546
2.27374e-13
46.7547
-1.36424e-12
46.7548
-2.72848e-12
46.7548
-4.54747e-13
46.7548
-6.82121e-13
46.7548
4.54747e-13
46.7548
6.82121e-13
46.7548
6.82121e-13
46.7548
1.36424e-12
46.7548
1.13687e-12
46.7548
2.04636e-12
46.7548
1.59162e-12
46.7548
1.13687e-12
46.7548
1.59162e-12
46.7548
3.63798e-12
46.7548
1.59162e-12
46.7547
0
46.7547
2.27374e-13
46.7547
-1.59162e-12
46.7547
0
46.7547
2.27374e-12
46.7547
2.27374e-13
46.7547
2.72848e-12
46.7547
0
46.7546
-2.27374e-12
46.7546
-9.09495e-13
46.7546
4.54747e-13
46.7546
2.04636e-12
46.7546
9.09495e-13
46.7546
1.36424e-12
46.7546
-1.13687e-12
46.7545
-1.36424e-12
46.7545
-6.82121e-13
46.7545
2.27374e-13
46.7545
9.09495e-13
46.7544
-4.54747e-13
46.7544
0
46.7543
6.82121e-13
46.7542
-2.27374e-13
46.7541
-2.27374e-13
46.7539
0
46.7536
4.54747e-13
46.7532
-2.27374e-13
46.7527
-1.59162e-12
46.7519
-2.27374e-12
46.7509
-2.27374e-12
46.7495
0
46.7476
-1.13687e-12
46.7451
-2.95586e-12
46.7419
-1.59162e-12
46.7376
-1.13687e-11
46.7322
1.00044e-11
46.7254
3.86535e-12
46.7169
-3.18323e-12
46.7066
-2.27374e-13
46.6941
6.82121e-13
46.6792
-2.27374e-13
46.6619
-1.59162e-12
46.642
-6.82121e-13
46.6196
-2.04636e-12
46.5949
-4.54747e-13
46.5681
-6.82121e-13
46.5397
1.81899e-12
46.5104
-2.27374e-12
46.481
0
46.4522
6.82121e-13
46.4253
-9.09495e-13
46.4011
-6.82121e-13
46.3806
-4.54747e-13
46.3648
0
46.3544
0
46.3498
0
46.3513
2.27374e-13
46.3578
9.09495e-13
46.3697
1.59162e-12
46.3868
2.27374e-13
46.4081
-1.59162e-12
46.4328
-1.36424e-12
46.4594
2.27374e-13
46.487
-2.04636e-12
46.5143
-4.54747e-13
46.5404
2.27374e-13
46.5643
-1.13687e-12
46.5856
-1.81899e-12
46.6037
-1.13687e-12
46.6186
-1.81899e-12
46.6303
-2.50111e-12
46.639
1.36424e-12
46.6449
-1.59162e-12
46.6486
-9.09495e-13
46.6505
-2.27374e-13
46.651
0
46.6504
4.54747e-13
46.6494
0
46.6479
1.59162e-12
46.6461
-2.27374e-13
46.6444
0
46.6427
-1.36424e-12
46.6412
-4.54747e-13
46.64
2.27374e-13
46.639
0
46.6382
4.54747e-13
46.6376
-2.27374e-13
46.6373
6.82121e-13
46.6371
0
46.6372
4.54747e-13
46.6373
4.54747e-13
46.6376
4.54747e-13
46.638
-4.54747e-13
46.6385
-2.27374e-13
46.639
6.82121e-13
46.6397
1.13687e-12
46.6403
3.63798e-12
46.6411
9.09495e-13
46.6418
4.54747e-13
46.6425
-1.13687e-12
46.6432
-9.09495e-13
46.6439
-9.09495e-13
46.6446
0
46.6453
1.36424e-12
46.6459
1.13687e-12
46.6465
-1.36424e-12
46.647
-1.36424e-12
46.6475
0
46.648
0
46.6484
2.27374e-13
46.6488
6.82121e-13
46.6492
4.54747e-13
46.6495
2.27374e-12
46.6498
-6.82121e-13
46.6501
-2.27374e-13
46.6503
0
46.6506
1.59162e-12
46.6508
-2.27374e-13
46.651
6.82121e-13
46.6512
-2.27374e-13
46.6514
-1.59162e-12
46.6515
-1.13687e-12
46.6517
-1.36424e-12
46.6519
-1.59162e-12
46.652
1.36424e-12
46.6522
-9.09495e-13
46.6524
4.54747e-13
46.6525
6.82121e-13
46.6526
0
46.6528
4.54747e-13
46.6529
-2.27374e-13
46.6531
-1.13687e-12
46.6532
-2.27374e-13
46.6533
-1.13687e-12
46.6535
6.82121e-13
46.6536
6.82121e-13
46.6537
9.09495e-13
46.6538
-6.82121e-13
46.654
-2.27374e-13
46.6541
2.27374e-13
46.6542
-1.13687e-12
46.6543
-6.82121e-13
46.6544
9.09495e-13
46.6545
-1.13687e-12
46.6546
6.82121e-13
46.6547
-9.09495e-13
46.6548
2.27374e-13
46.6549
1.13687e-12
46.655
5.22959e-12
46.6551
-2.50111e-12
46.6551
2.27374e-11
46.6552
1.42791e-10
46.6553
7.56472e-10
46.6553
-7.0122e-10
46.6554
-2.01453e-10
46.6555
7.45786e-11
46.6555
3.31738e-10
46.6556
2.72848e-12
46.6556
4.49973e-10
46.6557
3.67254e-09
46.6557
-2.19638e-08
46.6557
3.54312e-08
46.6558
8.98406e-08
46.6558
4.14551e-07
46.6559
2.01412e-06
46.6559
9.74158e-06
46.6559
4.715e-05
46.6559
0.000227677
46.6557
0.00110002
46.6547
0.00529135
46.6496
0.0249042
46.6252
0.116298
46.5049
0.538105
45.9193
2.4514
8.77179
43.7248
46.7536
-0.000185456
46.7537
-0.000157931
46.7538
-0.000139216
46.754
-0.000141837
46.7541
-0.000141329
46.7542
-0.000137924
46.7543
-0.0001324
46.7545
-0.000124013
46.7546
-0.00011253
46.7546
-9.84059e-05
46.7547
-8.26138e-05
46.7548
-6.64123e-05
46.7548
-5.10529e-05
46.7548
-3.75391e-05
46.7548
-2.63898e-05
46.7548
-1.77755e-05
46.7548
-1.14923e-05
46.7548
-7.1566e-06
46.7548
-4.3148e-06
46.7548
-2.54555e-06
46.7548
-1.48977e-06
46.7548
-8.88845e-07
46.7548
-5.60784e-07
46.7548
-3.88645e-07
46.7548
-3.01735e-07
46.7547
-2.59435e-07
46.7547
-2.39557e-07
46.7547
-2.30528e-07
46.7547
-2.26558e-07
46.7547
-2.24866e-07
46.7547
-2.24168e-07
46.7547
-2.23888e-07
46.7547
-2.23782e-07
46.7546
-2.23745e-07
46.7546
-2.23731e-07
46.7546
-2.23728e-07
46.7546
-2.23728e-07
46.7546
-2.23734e-07
46.7546
-2.23739e-07
46.7546
-2.23751e-07
46.7545
-2.23761e-07
46.7545
-2.23777e-07
46.7545
-2.23793e-07
46.7545
-2.23816e-07
46.7544
-2.23873e-07
46.7544
-2.23956e-07
46.7543
-2.24059e-07
46.7542
-2.24214e-07
46.7541
-2.24434e-07
46.7539
-2.24746e-07
46.7536
-2.25185e-07
46.7532
-2.25795e-07
46.7527
-2.26627e-07
46.7519
-2.27754e-07
46.7509
-2.29254e-07
46.7495
-2.31224e-07
46.7476
-2.33779e-07
46.7451
-2.37034e-07
46.7419
-2.41114e-07
46.7376
-2.46147e-07
46.7322
-2.52214e-07
46.7254
-2.59423e-07
46.7169
-2.67786e-07
46.7066
-2.77249e-07
46.6941
-2.87671e-07
46.6792
-2.98807e-07
46.6619
-3.10252e-07
46.642
-3.21472e-07
46.6196
-3.31784e-07
46.5949
-3.40371e-07
46.5681
-3.46322e-07
46.5397
-3.48663e-07
46.5104
-3.46465e-07
46.481
-3.38875e-07
46.4522
-3.25252e-07
46.4253
-3.05239e-07
46.4011
-2.78849e-07
46.3806
-2.46521e-07
46.3648
-2.09149e-07
46.3544
-1.68105e-07
46.3498
-1.25806e-07
46.3513
-9.37634e-08
46.3578
-5.68077e-08
46.3697
-8.07177e-09
46.3868
2.58422e-08
46.4081
4.97766e-08
46.4328
6.66664e-08
46.4594
7.56249e-08
46.487
7.34258e-08
46.5143
6.51664e-08
46.5404
4.86091e-08
46.5643
2.56773e-08
46.5856
1.07548e-09
46.6037
-2.82714e-08
46.6186
-5.79187e-08
46.6303
-8.55455e-08
46.639
-1.1193e-07
46.6449
-1.34482e-07
46.6486
-1.53559e-07
46.6505
-1.69234e-07
46.651
-1.80248e-07
46.6504
-1.8644e-07
46.6494
-1.93557e-07
46.6479
-1.97049e-07
46.6461
-1.98684e-07
46.6444
-1.98471e-07
46.6427
-1.97224e-07
46.6412
-1.95732e-07
46.64
-1.93478e-07
46.639
-1.91378e-07
46.6382
-1.89287e-07
46.6376
-1.87158e-07
46.6373
-1.85497e-07
46.6371
-1.8389e-07
46.6372
-1.82766e-07
46.6373
-1.81759e-07
46.6376
-1.80468e-07
46.638
-1.79702e-07
46.6385
-1.79158e-07
46.639
-1.78661e-07
46.6397
-1.78482e-07
46.6403
-1.78313e-07
46.6411
-1.78316e-07
46.6418
-1.78451e-07
46.6425
-1.78626e-07
46.6432
-1.78924e-07
46.6439
-1.79269e-07
46.6446
-1.79658e-07
46.6453
-1.80117e-07
46.6459
-1.80578e-07
46.6465
-1.81035e-07
46.647
-1.81515e-07
46.6475
-1.81974e-07
46.648
-1.82436e-07
46.6484
-1.82872e-07
46.6488
-1.8328e-07
46.6492
-1.83691e-07
46.6495
-1.84065e-07
46.6498
-1.84405e-07
46.6501
-1.84708e-07
46.6503
-1.84974e-07
46.6506
-1.85222e-07
46.6508
-1.85436e-07
46.651
-1.85616e-07
46.6512
-1.85786e-07
46.6514
-1.85938e-07
46.6515
-1.86062e-07
46.6517
-1.86179e-07
46.6519
-1.86274e-07
46.652
-1.8636e-07
46.6522
-1.86351e-07
46.6524
-1.86634e-07
46.6525
-1.86618e-07
46.6526
-1.86598e-07
46.6528
-1.86856e-07
46.6529
-1.8685e-07
46.6531
-1.86878e-07
46.6532
-1.87012e-07
46.6533
-1.87043e-07
46.6535
-1.87076e-07
46.6536
-1.87182e-07
46.6537
-1.87216e-07
46.6538
-1.8736e-07
46.654
-1.87251e-07
46.6541
-1.87383e-07
46.6542
-1.87447e-07
46.6543
-1.8751e-07
46.6544
-1.87556e-07
46.6545
-1.87637e-07
46.6546
-1.87691e-07
46.6547
-1.87744e-07
46.6548
-1.87786e-07
46.6549
-1.87845e-07
46.655
-1.87875e-07
46.6551
-1.87964e-07
46.6551
-1.87974e-07
46.6552
-1.8793e-07
46.6553
-1.87604e-07
46.6553
-1.88522e-07
46.6554
-1.88277e-07
46.6555
-1.88058e-07
46.6555
-1.87448e-07
46.6556
-1.88716e-07
46.6556
-1.88417e-07
46.6557
-1.89136e-07
46.6557
-1.91453e-07
46.6557
-1.68521e-07
46.6558
-1.17198e-07
46.6558
1.43044e-07
46.6559
1.44076e-06
46.6559
7.65523e-06
46.6559
3.77761e-05
46.656
0.000183299
46.6562
0.000887853
46.6572
0.00429769
46.6618
0.0203924
46.681
0.0971115
46.7524
0.466703
46.8599
2.34391
7.99191
47.6398
46.7536
-0.000402072
46.7537
-0.00030182
46.7539
-0.000280757
46.754
-0.000284377
46.7541
-0.000281616
46.7542
-0.000274912
46.7544
-0.00026366
46.7545
-0.000246507
46.7546
-0.000223203
46.7547
-0.00019472
46.7547
-0.00016305
46.7548
-0.000130725
46.7548
-0.000100221
46.7548
-7.34879e-05
46.7548
-5.15233e-05
46.7548
-3.46163e-05
46.7548
-2.2326e-05
46.7548
-1.38718e-05
46.7548
-8.34917e-06
46.7548
-4.92107e-06
46.7548
-2.88042e-06
46.7548
-1.7226e-06
46.7548
-1.09209e-06
46.7548
-7.62119e-07
46.7548
-5.95944e-07
46.7547
-5.15263e-07
46.7547
-4.77443e-07
46.7547
-4.60305e-07
46.7547
-4.52789e-07
46.7547
-4.49596e-07
46.7547
-4.48283e-07
46.7547
-4.47757e-07
46.7547
-4.47556e-07
46.7546
-4.47484e-07
46.7546
-4.4746e-07
46.7546
-4.47455e-07
46.7546
-4.47459e-07
46.7546
-4.47469e-07
46.7546
-4.4748e-07
46.7546
-4.47503e-07
46.7545
-4.47521e-07
46.7545
-4.47555e-07
46.7545
-4.47586e-07
46.7545
-4.47634e-07
46.7544
-4.47751e-07
46.7544
-4.47912e-07
46.7543
-4.48119e-07
46.7542
-4.48429e-07
46.7541
-4.48868e-07
46.7539
-4.49493e-07
46.7536
-4.50369e-07
46.7532
-4.5159e-07
46.7527
-4.53255e-07
46.7519
-4.5551e-07
46.7509
-4.58507e-07
46.7495
-4.62449e-07
46.7476
-4.67558e-07
46.7451
-4.74067e-07
46.7419
-4.8223e-07
46.7376
-4.92287e-07
46.7322
-5.04441e-07
46.7254
-5.18859e-07
46.7169
-5.35579e-07
46.7066
-5.54509e-07
46.6941
-5.75358e-07
46.6792
-5.97632e-07
46.6619
-6.20527e-07
46.642
-6.42973e-07
46.6196
-6.636e-07
46.5949
-6.80781e-07
46.5681
-6.92686e-07
46.5397
-6.97376e-07
46.5104
-6.92976e-07
46.481
-6.77798e-07
46.4522
-6.5055e-07
46.4253
-6.10517e-07
46.4011
-5.57729e-07
46.3806
-4.93063e-07
46.3648
-4.18306e-07
46.3544
-3.36152e-07
46.3498
-2.5079e-07
46.3513
-1.90342e-07
46.3578
-1.11314e-07
46.3697
-1.68025e-08
46.3868
5.11418e-08
46.4081
9.92113e-08
46.4328
1.33556e-07
46.4594
1.51383e-07
46.487
1.46918e-07
46.5143
1.30592e-07
46.5404
9.75206e-08
46.5643
5.18344e-08
46.5856
5.97083e-10
46.6037
-5.70003e-08
46.6186
-1.1551e-07
46.6303
-1.70864e-07
46.639
-2.24064e-07
46.6449
-2.68751e-07
46.6486
-3.07248e-07
46.6505
-3.38553e-07
46.651
-3.60569e-07
46.6504
-3.72473e-07
46.6494
-3.87435e-07
46.6479
-3.93991e-07
46.6461
-3.97456e-07
46.6444
-3.96927e-07
46.6427
-3.94419e-07
46.6412
-3.91591e-07
46.64
-3.86862e-07
46.639
-3.8284e-07
46.6382
-3.78552e-07
46.6376
-3.74271e-07
46.6373
-3.71087e-07
46.6371
-3.67679e-07
46.6372
-3.65658e-07
46.6373
-3.63448e-07
46.6376
-3.6091e-07
46.638
-3.59463e-07
46.6385
-3.58291e-07
46.639
-3.57324e-07
46.6397
-3.57009e-07
46.6403
-3.56563e-07
46.6411
-3.5668e-07
46.6418
-3.56886e-07
46.6425
-3.57245e-07
46.6432
-3.57861e-07
46.6439
-3.58511e-07
46.6446
-3.59325e-07
46.6453
-3.6024e-07
46.6459
-3.61145e-07
46.6465
-3.62076e-07
46.647
-3.63029e-07
46.6475
-3.63942e-07
46.648
-3.6488e-07
46.6484
-3.65738e-07
46.6488
-3.66562e-07
46.6492
-3.67388e-07
46.6495
-3.68124e-07
46.6498
-3.68815e-07
46.6501
-3.69411e-07
46.6503
-3.6995e-07
46.6506
-3.70447e-07
46.6508
-3.70869e-07
46.651
-3.7123e-07
46.6512
-3.71571e-07
46.6514
-3.7187e-07
46.6515
-3.72124e-07
46.6517
-3.72358e-07
46.6519
-3.72545e-07
46.652
-3.72731e-07
46.6522
-3.72667e-07
46.6524
-3.73306e-07
46.6525
-3.73229e-07
46.6526
-3.73167e-07
46.6528
-3.73746e-07
46.6529
-3.73693e-07
46.6531
-3.73749e-07
46.6532
-3.74027e-07
46.6533
-3.74091e-07
46.6535
-3.74147e-07
46.6536
-3.74358e-07
46.6537
-3.74433e-07
46.6538
-3.74745e-07
46.654
-3.74468e-07
46.6541
-3.74779e-07
46.6542
-3.74891e-07
46.6543
-3.75022e-07
46.6544
-3.75149e-07
46.6545
-3.75243e-07
46.6546
-3.75372e-07
46.6547
-3.75494e-07
46.6548
-3.75564e-07
46.6549
-3.75696e-07
46.655
-3.75748e-07
46.6551
-3.75926e-07
46.6551
-3.75978e-07
46.6552
-3.76027e-07
46.6553
-3.75864e-07
46.6553
-3.76459e-07
46.6554
-3.76316e-07
46.6555
-3.7625e-07
46.6555
-3.74971e-07
46.6556
-3.77752e-07
46.6556
-3.76957e-07
46.6557
-3.83724e-07
46.6557
-3.63395e-07
46.6557
-3.76202e-07
46.6558
-3.51658e-07
46.6558
-2.60323e-07
46.6559
2.24117e-07
46.6559
2.47773e-06
46.656
1.34188e-05
46.6561
6.63907e-05
46.6567
0.000322875
46.6594
0.00156791
46.6724
0.00746485
46.7333
0.0362122
47.0152
0.184771
48.0875
1.27163
4.1103
51.9692
10.5916
-0.000460202
10.5916
-0.00032909
10.5917
-0.000314778
10.5917
-0.000316717
10.5917
-0.000313328
10.5918
-0.000305898
10.5918
-0.00029324
10.5918
-0.000273969
10.5918
-0.000247852
10.5918
-0.000215995
10.5919
-0.00018064
10.5919
-0.000144628
10.5919
-0.000110717
10.5919
-8.10409e-05
10.5919
-5.67229e-05
10.5919
-3.80411e-05
10.5919
-2.44896e-05
10.5919
-1.51882e-05
10.5919
-9.12625e-06
10.5919
-5.3724e-06
10.5919
-3.14271e-06
10.5919
-1.88093e-06
10.5919
-1.19547e-06
10.5919
-8.37674e-07
10.5919
-6.5795e-07
10.5919
-5.70923e-07
10.5919
-5.30241e-07
10.5919
-5.11856e-07
10.5919
-5.03816e-07
10.5919
-5.00411e-07
10.5918
-4.99012e-07
10.5918
-4.98456e-07
10.5918
-4.98245e-07
10.5918
-4.98167e-07
10.5918
-4.98141e-07
10.5918
-4.98138e-07
10.5918
-4.98143e-07
10.5918
-4.98156e-07
10.5918
-4.98168e-07
10.5918
-4.98192e-07
10.5918
-4.98214e-07
10.5918
-4.9825e-07
10.5918
-4.98283e-07
10.5918
-4.98339e-07
10.5918
-4.98467e-07
10.5918
-4.98649e-07
10.5918
-4.98876e-07
10.5917
-4.99223e-07
10.5917
-4.99709e-07
10.5917
-5.00406e-07
10.5916
-5.01381e-07
10.5915
-5.02736e-07
10.5914
-5.04586e-07
10.5912
-5.07092e-07
10.591
-5.10428e-07
10.5907
-5.14814e-07
10.5902
-5.20498e-07
10.5897
-5.2774e-07