/*--------------------------------*- C++ -*----------------------------------*\
| =========                 |                                                 |
| \\      /  F ield         | OpenFOAM: The Open Source CFD Toolbox           |
|  \\    /   O peration     | Version:  3.0.x                                 |
|   \\  /    A nd           | Web:      www.OpenFOAM.org                      |
|    \\/     M anipulation  |                                                 |
\*---------------------------------------------------------------------------*/
FoamFile
{
    version     2.0;
    format      ascii;
    class       volScalarField;
    location    "0.499975";
    object      p;
}
// * * * * * * * * * * * * * * * * * * * * * * * * * * * * * * * * * * * * * //

dimensions      [1 -1 -2 0 0 0 0];

internalField   nonuniform List<scalar> 
13800
(
1.80424e+07
1.80424e+07
1.80425e+07
1.80427e+07
1.80428e+07
1.8043e+07
1.80432e+07
1.80434e+07
1.80437e+07
1.80439e+07
1.80442e+07
1.80446e+07
1.80449e+07
1.80453e+07
1.80458e+07
1.80462e+07
1.80467e+07
1.80472e+07
1.80478e+07
1.80483e+07
1.80489e+07
1.80496e+07
1.80503e+07
1.8051e+07
1.80517e+07
1.80525e+07
1.80533e+07
1.80541e+07
1.8055e+07
1.80559e+07
1.80569e+07
1.80579e+07
1.80589e+07
1.80599e+07
1.8061e+07
1.80622e+07
1.80633e+07
1.80646e+07
1.80658e+07
1.80671e+07
1.80684e+07
1.80698e+07
1.80712e+07
1.80727e+07
1.80741e+07
1.80757e+07
1.80772e+07
1.80789e+07
1.80805e+07
1.80822e+07
1.8084e+07
1.80858e+07
1.80876e+07
1.80895e+07
1.80914e+07
1.80933e+07
1.80954e+07
1.80974e+07
1.80995e+07
1.81017e+07
1.81039e+07
1.81061e+07
1.81084e+07
1.81107e+07
1.81131e+07
1.81155e+07
1.8118e+07
1.81206e+07
1.81231e+07
1.81258e+07
1.81284e+07
1.81312e+07
1.8134e+07
1.81368e+07
1.81397e+07
1.81426e+07
1.81456e+07
1.81486e+07
1.81517e+07
1.81549e+07
1.81581e+07
1.81613e+07
1.81646e+07
1.8168e+07
1.81714e+07
1.81749e+07
1.81784e+07
1.8182e+07
1.81856e+07
1.81893e+07
1.8193e+07
1.81968e+07
1.82007e+07
1.82046e+07
1.82086e+07
1.82126e+07
1.82167e+07
1.82209e+07
1.82251e+07
1.82294e+07
1.82337e+07
1.82381e+07
1.82425e+07
1.8247e+07
1.82516e+07
1.82562e+07
1.82609e+07
1.82657e+07
1.82705e+07
1.82753e+07
1.82803e+07
1.82853e+07
1.82903e+07
1.82954e+07
1.83006e+07
1.83059e+07
1.83112e+07
1.83165e+07
1.83219e+07
1.83274e+07
1.8333e+07
1.83386e+07
1.83443e+07
1.835e+07
1.83558e+07
1.83617e+07
1.83676e+07
1.83736e+07
1.83796e+07
1.83857e+07
1.83919e+07
1.83981e+07
1.84044e+07
1.84108e+07
1.84172e+07
1.84237e+07
1.84302e+07
1.84368e+07
1.84435e+07
1.84502e+07
1.8457e+07
1.84638e+07
1.84707e+07
1.84777e+07
1.84847e+07
1.84918e+07
1.84989e+07
1.85061e+07
1.85134e+07
1.85207e+07
1.85281e+07
1.85355e+07
1.85429e+07
1.85505e+07
1.85581e+07
1.85657e+07
1.85734e+07
1.85811e+07
1.85889e+07
1.85968e+07
1.86047e+07
1.86126e+07
1.86206e+07
1.86286e+07
1.86367e+07
1.86449e+07
1.86531e+07
1.86613e+07
1.86696e+07
1.86779e+07
1.86862e+07
1.86946e+07
1.87031e+07
1.87115e+07
1.87201e+07
1.87286e+07
1.87372e+07
1.87458e+07
1.87545e+07
1.87632e+07
1.87719e+07
1.87807e+07
1.87895e+07
1.87983e+07
1.88071e+07
1.8816e+07
1.88249e+07
1.88338e+07
1.88428e+07
1.88518e+07
1.88607e+07
1.88698e+07
1.88788e+07
1.88878e+07
1.88969e+07
1.8906e+07
1.89151e+07
1.89243e+07
1.89337e+07
1.89433e+07
1.80424e+07
1.80424e+07
1.80425e+07
1.80427e+07
1.80428e+07
1.8043e+07
1.80432e+07
1.80434e+07
1.80437e+07
1.80439e+07
1.80442e+07
1.80446e+07
1.80449e+07
1.80453e+07
1.80458e+07
1.80462e+07
1.80467e+07
1.80472e+07
1.80478e+07
1.80483e+07
1.80489e+07
1.80496e+07
1.80503e+07
1.8051e+07
1.80517e+07
1.80525e+07
1.80533e+07
1.80541e+07
1.8055e+07
1.80559e+07
1.80569e+07
1.80579e+07
1.80589e+07
1.80599e+07
1.8061e+07
1.80622e+07
1.80633e+07
1.80646e+07
1.80658e+07
1.80671e+07
1.80684e+07
1.80698e+07
1.80712e+07
1.80727e+07
1.80741e+07
1.80757e+07
1.80772e+07
1.80789e+07
1.80805e+07
1.80822e+07
1.8084e+07
1.80858e+07
1.80876e+07
1.80895e+07
1.80914e+07
1.80933e+07
1.80954e+07
1.80974e+07
1.80995e+07
1.81017e+07
1.81039e+07
1.81061e+07
1.81084e+07
1.81107e+07
1.81131e+07
1.81155e+07
1.8118e+07
1.81206e+07
1.81231e+07
1.81258e+07
1.81284e+07
1.81312e+07
1.8134e+07
1.81368e+07
1.81397e+07
1.81426e+07
1.81456e+07
1.81486e+07
1.81517e+07
1.81549e+07
1.81581e+07
1.81613e+07
1.81646e+07
1.8168e+07
1.81714e+07
1.81749e+07
1.81784e+07
1.8182e+07
1.81856e+07
1.81893e+07
1.8193e+07
1.81968e+07
1.82007e+07
1.82046e+07
1.82086e+07
1.82126e+07
1.82167e+07
1.82209e+07
1.82251e+07
1.82294e+07
1.82337e+07
1.82381e+07
1.82425e+07
1.8247e+07
1.82516e+07
1.82562e+07
1.82609e+07
1.82657e+07
1.82705e+07
1.82753e+07
1.82803e+07
1.82853e+07
1.82903e+07
1.82954e+07
1.83006e+07
1.83059e+07
1.83112e+07
1.83165e+07
1.83219e+07
1.83274e+07
1.8333e+07
1.83386e+07
1.83443e+07
1.835e+07
1.83558e+07
1.83617e+07
1.83676e+07
1.83736e+07
1.83796e+07
1.83857e+07
1.83919e+07
1.83981e+07
1.84044e+07
1.84108e+07
1.84172e+07
1.84237e+07
1.84302e+07
1.84368e+07
1.84435e+07
1.84502e+07
1.8457e+07
1.84638e+07
1.84707e+07
1.84777e+07
1.84847e+07
1.84918e+07
1.84989e+07
1.85061e+07
1.85134e+07
1.85207e+07
1.85281e+07
1.85355e+07
1.85429e+07
1.85505e+07
1.85581e+07
1.85657e+07
1.85734e+07
1.85811e+07
1.85889e+07
1.85968e+07
1.86047e+07
1.86126e+07
1.86206e+07
1.86286e+07
1.86367e+07
1.86449e+07
1.86531e+07
1.86613e+07
1.86696e+07
1.86779e+07
1.86862e+07
1.86946e+07
1.87031e+07
1.87115e+07
1.87201e+07
1.87286e+07
1.87372e+07
1.87458e+07
1.87545e+07
1.87632e+07
1.87719e+07
1.87807e+07
1.87895e+07
1.87983e+07
1.88071e+07
1.8816e+07
1.88249e+07
1.88338e+07
1.88428e+07
1.88518e+07
1.88607e+07
1.88698e+07
1.88788e+07
1.88878e+07
1.88969e+07
1.8906e+07
1.89151e+07
1.89243e+07
1.89337e+07
1.89432e+07
1.80424e+07
1.80424e+07
1.80425e+07
1.80427e+07
1.80428e+07
1.8043e+07
1.80432e+07
1.80434e+07
1.80437e+07
1.80439e+07
1.80442e+07
1.80446e+07
1.80449e+07
1.80453e+07
1.80458e+07
1.80462e+07
1.80467e+07
1.80472e+07
1.80478e+07
1.80483e+07
1.80489e+07
1.80496e+07
1.80503e+07
1.8051e+07
1.80517e+07
1.80525e+07
1.80533e+07
1.80541e+07
1.8055e+07
1.80559e+07
1.80569e+07
1.80579e+07
1.80589e+07
1.80599e+07
1.8061e+07
1.80622e+07
1.80633e+07
1.80646e+07
1.80658e+07
1.80671e+07
1.80684e+07
1.80698e+07
1.80712e+07
1.80727e+07
1.80741e+07
1.80757e+07
1.80772e+07
1.80789e+07
1.80805e+07
1.80822e+07
1.8084e+07
1.80858e+07
1.80876e+07
1.80895e+07
1.80914e+07
1.80933e+07
1.80954e+07
1.80974e+07
1.80995e+07
1.81017e+07
1.81039e+07
1.81061e+07
1.81084e+07
1.81107e+07
1.81131e+07
1.81155e+07
1.8118e+07
1.81206e+07
1.81231e+07
1.81258e+07
1.81284e+07
1.81312e+07
1.8134e+07
1.81368e+07
1.81397e+07
1.81426e+07
1.81456e+07
1.81486e+07
1.81517e+07
1.81549e+07
1.81581e+07
1.81613e+07
1.81646e+07
1.8168e+07
1.81714e+07
1.81749e+07
1.81784e+07
1.8182e+07
1.81856e+07
1.81893e+07
1.8193e+07
1.81968e+07
1.82007e+07
1.82046e+07
1.82086e+07
1.82126e+07
1.82167e+07
1.82209e+07
1.82251e+07
1.82294e+07
1.82337e+07
1.82381e+07
1.82425e+07
1.8247e+07
1.82516e+07
1.82562e+07
1.82609e+07
1.82657e+07
1.82705e+07
1.82753e+07
1.82803e+07
1.82853e+07
1.82903e+07
1.82954e+07
1.83006e+07
1.83059e+07
1.83112e+07
1.83165e+07
1.83219e+07
1.83274e+07
1.8333e+07
1.83386e+07
1.83443e+07
1.835e+07
1.83558e+07
1.83617e+07
1.83676e+07
1.83736e+07
1.83796e+07
1.83857e+07
1.83919e+07
1.83981e+07
1.84044e+07
1.84108e+07
1.84172e+07
1.84237e+07
1.84302e+07
1.84368e+07
1.84435e+07
1.84502e+07
1.8457e+07
1.84638e+07
1.84707e+07
1.84777e+07
1.84847e+07
1.84918e+07
1.84989e+07
1.85061e+07
1.85134e+07
1.85207e+07
1.85281e+07
1.85355e+07
1.85429e+07
1.85505e+07
1.85581e+07
1.85657e+07
1.85734e+07
1.85811e+07
1.85889e+07
1.85968e+07
1.86047e+07
1.86126e+07
1.86206e+07
1.86286e+07
1.86367e+07
1.86449e+07
1.86531e+07
1.86613e+07
1.86696e+07
1.86779e+07
1.86862e+07
1.86946e+07
1.87031e+07
1.87115e+07
1.87201e+07
1.87286e+07
1.87372e+07
1.87458e+07
1.87545e+07
1.87632e+07
1.87719e+07
1.87807e+07
1.87895e+07
1.87983e+07
1.88071e+07
1.8816e+07
1.88249e+07
1.88338e+07
1.88428e+07
1.88518e+07
1.88607e+07
1.88698e+07
1.88788e+07
1.88878e+07
1.88969e+07
1.8906e+07
1.89151e+07
1.89243e+07
1.89336e+07
1.89432e+07
1.80424e+07
1.80424e+07
1.80425e+07
1.80427e+07
1.80428e+07
1.8043e+07
1.80432e+07
1.80434e+07
1.80437e+07
1.80439e+07
1.80442e+07
1.80446e+07
1.80449e+07
1.80453e+07
1.80458e+07
1.80462e+07
1.80467e+07
1.80472e+07
1.80478e+07
1.80483e+07
1.80489e+07
1.80496e+07
1.80503e+07
1.8051e+07
1.80517e+07
1.80525e+07
1.80533e+07
1.80541e+07
1.8055e+07
1.80559e+07
1.80569e+07
1.80579e+07
1.80589e+07
1.80599e+07
1.8061e+07
1.80622e+07
1.80633e+07
1.80646e+07
1.80658e+07
1.80671e+07
1.80684e+07
1.80698e+07
1.80712e+07
1.80727e+07
1.80741e+07
1.80757e+07
1.80772e+07
1.80789e+07
1.80805e+07
1.80822e+07
1.8084e+07
1.80858e+07
1.80876e+07
1.80895e+07
1.80914e+07
1.80933e+07
1.80954e+07
1.80974e+07
1.80995e+07
1.81017e+07
1.81039e+07
1.81061e+07
1.81084e+07
1.81107e+07
1.81131e+07
1.81155e+07
1.8118e+07
1.81206e+07
1.81231e+07
1.81258e+07
1.81284e+07
1.81312e+07
1.8134e+07
1.81368e+07
1.81397e+07
1.81426e+07
1.81456e+07
1.81486e+07
1.81517e+07
1.81549e+07
1.81581e+07
1.81613e+07
1.81646e+07
1.8168e+07
1.81714e+07
1.81749e+07
1.81784e+07
1.8182e+07
1.81856e+07
1.81893e+07
1.8193e+07
1.81968e+07
1.82007e+07
1.82046e+07
1.82086e+07
1.82126e+07
1.82167e+07
1.82209e+07
1.82251e+07
1.82294e+07
1.82337e+07
1.82381e+07
1.82425e+07
1.8247e+07
1.82516e+07
1.82562e+07
1.82609e+07
1.82657e+07
1.82705e+07
1.82753e+07
1.82803e+07
1.82853e+07
1.82903e+07
1.82954e+07
1.83006e+07
1.83059e+07
1.83112e+07
1.83165e+07
1.83219e+07
1.83274e+07
1.8333e+07
1.83386e+07
1.83443e+07
1.835e+07
1.83558e+07
1.83617e+07
1.83676e+07
1.83736e+07
1.83796e+07
1.83857e+07
1.83919e+07
1.83981e+07
1.84044e+07
1.84108e+07
1.84172e+07
1.84237e+07
1.84302e+07
1.84368e+07
1.84435e+07
1.84502e+07
1.8457e+07
1.84638e+07
1.84707e+07
1.84777e+07
1.84847e+07
1.84918e+07
1.84989e+07
1.85061e+07
1.85134e+07
1.85207e+07
1.85281e+07
1.85355e+07
1.85429e+07
1.85505e+07
1.85581e+07
1.85657e+07
1.85734e+07
1.85811e+07
1.85889e+07
1.85968e+07
1.86047e+07
1.86126e+07
1.86206e+07
1.86286e+07
1.86367e+07
1.86449e+07
1.86531e+07
1.86613e+07
1.86696e+07
1.86779e+07
1.86862e+07
1.86946e+07
1.87031e+07
1.87115e+07
1.87201e+07
1.87286e+07
1.87372e+07
1.87458e+07
1.87545e+07
1.87632e+07
1.87719e+07
1.87807e+07
1.87895e+07
1.87983e+07
1.88071e+07
1.8816e+07
1.88249e+07
1.88338e+07
1.88428e+07
1.88518e+07
1.88607e+07
1.88698e+07
1.88788e+07
1.88878e+07
1.88969e+07
1.8906e+07
1.89151e+07
1.89243e+07
1.89336e+07
1.89431e+07
1.80424e+07
1.80424e+07
1.80425e+07
1.80427e+07
1.80428e+07
1.8043e+07
1.80432e+07
1.80434e+07
1.80437e+07
1.80439e+07
1.80442e+07
1.80446e+07
1.80449e+07
1.80453e+07
1.80458e+07
1.80462e+07
1.80467e+07
1.80472e+07
1.80478e+07
1.80483e+07
1.80489e+07
1.80496e+07
1.80503e+07
1.8051e+07
1.80517e+07
1.80525e+07
1.80533e+07
1.80541e+07
1.8055e+07
1.80559e+07
1.80569e+07
1.80579e+07
1.80589e+07
1.80599e+07
1.8061e+07
1.80622e+07
1.80633e+07
1.80646e+07
1.80658e+07
1.80671e+07
1.80684e+07
1.80698e+07
1.80712e+07
1.80727e+07
1.80741e+07
1.80757e+07
1.80772e+07
1.80789e+07
1.80805e+07
1.80822e+07
1.8084e+07
1.80858e+07
1.80876e+07
1.80895e+07
1.80914e+07
1.80933e+07
1.80954e+07
1.80974e+07
1.80995e+07
1.81017e+07
1.81039e+07
1.81061e+07
1.81084e+07
1.81107e+07
1.81131e+07
1.81155e+07
1.8118e+07
1.81206e+07
1.81231e+07
1.81258e+07
1.81284e+07
1.81312e+07
1.8134e+07
1.81368e+07
1.81397e+07
1.81426e+07
1.81456e+07
1.81486e+07
1.81517e+07
1.81549e+07
1.81581e+07
1.81613e+07
1.81646e+07
1.8168e+07
1.81714e+07
1.81749e+07
1.81784e+07
1.8182e+07
1.81856e+07
1.81893e+07
1.8193e+07
1.81968e+07
1.82007e+07
1.82046e+07
1.82086e+07
1.82126e+07
1.82167e+07
1.82209e+07
1.82251e+07
1.82294e+07
1.82337e+07
1.82381e+07
1.82425e+07
1.8247e+07
1.82516e+07
1.82562e+07
1.82609e+07
1.82657e+07
1.82705e+07
1.82753e+07
1.82803e+07
1.82853e+07
1.82903e+07
1.82954e+07
1.83006e+07
1.83059e+07
1.83112e+07
1.83165e+07
1.83219e+07
1.83274e+07
1.8333e+07
1.83386e+07
1.83443e+07
1.835e+07
1.83558e+07
1.83617e+07
1.83676e+07
1.83736e+07
1.83796e+07
1.83857e+07
1.83919e+07
1.83981e+07
1.84044e+07
1.84108e+07
1.84172e+07
1.84237e+07
1.84302e+07
1.84368e+07
1.84435e+07
1.84502e+07
1.8457e+07
1.84638e+07
1.84707e+07
1.84777e+07
1.84847e+07
1.84918e+07
1.84989e+07
1.85061e+07
1.85134e+07
1.85207e+07
1.85281e+07
1.85355e+07
1.85429e+07
1.85505e+07
1.85581e+07
1.85657e+07
1.85734e+07
1.85811e+07
1.85889e+07
1.85968e+07
1.86047e+07
1.86126e+07
1.86206e+07
1.86286e+07
1.86367e+07
1.86449e+07
1.86531e+07
1.86613e+07
1.86696e+07
1.86779e+07
1.86862e+07
1.86946e+07
1.87031e+07
1.87115e+07
1.87201e+07
1.87286e+07
1.87372e+07
1.87458e+07
1.87545e+07
1.87632e+07
1.87719e+07
1.87807e+07
1.87895e+07
1.87983e+07
1.88071e+07
1.8816e+07
1.88249e+07
1.88338e+07
1.88428e+07
1.88518e+07
1.88607e+07
1.88698e+07
1.88788e+07
1.88878e+07
1.88969e+07
1.8906e+07
1.89151e+07
1.89242e+07
1.89334e+07
1.89427e+07
1.80424e+07
1.80424e+07
1.80425e+07
1.80427e+07
1.80428e+07
1.8043e+07
1.80432e+07
1.80434e+07
1.80437e+07
1.80439e+07
1.80442e+07
1.80446e+07
1.80449e+07
1.80453e+07
1.80458e+07
1.80462e+07
1.80467e+07
1.80472e+07
1.80478e+07
1.80483e+07
1.80489e+07
1.80496e+07
1.80503e+07
1.8051e+07
1.80517e+07
1.80525e+07
1.80533e+07
1.80541e+07
1.8055e+07
1.80559e+07
1.80569e+07
1.80579e+07
1.80589e+07
1.80599e+07
1.8061e+07
1.80622e+07
1.80633e+07
1.80646e+07
1.80658e+07
1.80671e+07
1.80684e+07
1.80698e+07
1.80712e+07
1.80727e+07
1.80741e+07
1.80757e+07
1.80772e+07
1.80789e+07
1.80805e+07
1.80822e+07
1.8084e+07
1.80858e+07
1.80876e+07
1.80895e+07
1.80914e+07
1.80933e+07
1.80954e+07
1.80974e+07
1.80995e+07
1.81017e+07
1.81039e+07
1.81061e+07
1.81084e+07
1.81107e+07
1.81131e+07
1.81155e+07
1.8118e+07
1.81206e+07
1.81231e+07
1.81258e+07
1.81284e+07
1.81312e+07
1.8134e+07
1.81368e+07
1.81397e+07
1.81426e+07
1.81456e+07
1.81486e+07
1.81517e+07
1.81549e+07
1.81581e+07
1.81613e+07
1.81646e+07
1.8168e+07
1.81714e+07
1.81749e+07
1.81784e+07
1.8182e+07
1.81856e+07
1.81893e+07
1.8193e+07
1.81968e+07
1.82007e+07
1.82046e+07
1.82086e+07
1.82126e+07
1.82167e+07
1.82209e+07
1.82251e+07
1.82294e+07
1.82337e+07
1.82381e+07
1.82425e+07
1.8247e+07
1.82516e+07
1.82562e+07
1.82609e+07
1.82657e+07
1.82705e+07
1.82753e+07
1.82803e+07
1.82853e+07
1.82903e+07
1.82954e+07
1.83006e+07
1.83059e+07
1.83112e+07
1.83165e+07
1.83219e+07
1.83274e+07
1.8333e+07
1.83386e+07
1.83443e+07
1.835e+07
1.83558e+07
1.83617e+07
1.83676e+07
1.83736e+07
1.83796e+07
1.83857e+07
1.83919e+07
1.83981e+07
1.84044e+07
1.84108e+07
1.84172e+07
1.84237e+07
1.84302e+07
1.84368e+07
1.84435e+07
1.84502e+07
1.8457e+07
1.84638e+07
1.84707e+07
1.84777e+07
1.84847e+07
1.84918e+07
1.84989e+07
1.85061e+07
1.85134e+07
1.85207e+07
1.85281e+07
1.85355e+07
1.85429e+07
1.85505e+07
1.85581e+07
1.85657e+07
1.85734e+07
1.85811e+07
1.85889e+07
1.85968e+07
1.86047e+07
1.86126e+07
1.86206e+07
1.86286e+07
1.86367e+07
1.86449e+07
1.86531e+07
1.86613e+07
1.86696e+07
1.86779e+07
1.86862e+07
1.86946e+07
1.87031e+07
1.87115e+07
1.87201e+07
1.87286e+07
1.87372e+07
1.87458e+07
1.87545e+07
1.87632e+07
1.87719e+07
1.87807e+07
1.87895e+07
1.87983e+07
1.88071e+07
1.8816e+07
1.88249e+07
1.88338e+07
1.88428e+07
1.88518e+07
1.88607e+07
1.88698e+07
1.88788e+07
1.88878e+07
1.88969e+07
1.8906e+07
1.89151e+07
1.89242e+07
1.89332e+07
1.89421e+07
1.80424e+07
1.80424e+07
1.80425e+07
1.80427e+07
1.80428e+07
1.8043e+07
1.80432e+07
1.80434e+07
1.80437e+07
1.80439e+07
1.80442e+07
1.80446e+07
1.80449e+07
1.80453e+07
1.80458e+07
1.80462e+07
1.80467e+07
1.80472e+07
1.80478e+07
1.80483e+07
1.80489e+07
1.80496e+07
1.80503e+07
1.8051e+07
1.80517e+07
1.80525e+07
1.80533e+07
1.80541e+07
1.8055e+07
1.80559e+07
1.80569e+07
1.80579e+07
1.80589e+07
1.80599e+07
1.8061e+07
1.80622e+07
1.80633e+07
1.80646e+07
1.80658e+07
1.80671e+07
1.80684e+07
1.80698e+07
1.80712e+07
1.80727e+07
1.80741e+07
1.80757e+07
1.80772e+07
1.80789e+07
1.80805e+07
1.80822e+07
1.8084e+07
1.80858e+07
1.80876e+07
1.80895e+07
1.80914e+07
1.80933e+07
1.80954e+07
1.80974e+07
1.80995e+07
1.81017e+07
1.81039e+07
1.81061e+07
1.81084e+07
1.81107e+07
1.81131e+07
1.81155e+07
1.8118e+07
1.81206e+07
1.81231e+07
1.81258e+07
1.81284e+07
1.81312e+07
1.8134e+07
1.81368e+07
1.81397e+07
1.81426e+07
1.81456e+07
1.81486e+07
1.81517e+07
1.81549e+07
1.81581e+07
1.81613e+07
1.81646e+07
1.8168e+07
1.81714e+07
1.81749e+07
1.81784e+07
1.8182e+07
1.81856e+07
1.81893e+07
1.8193e+07
1.81968e+07
1.82007e+07
1.82046e+07
1.82086e+07
1.82126e+07
1.82167e+07
1.82209e+07
1.82251e+07
1.82294e+07
1.82337e+07
1.82381e+07
1.82425e+07
1.8247e+07
1.82516e+07
1.82562e+07
1.82609e+07
1.82657e+07
1.82705e+07
1.82753e+07
1.82803e+07
1.82853e+07
1.82903e+07
1.82954e+07
1.83006e+07
1.83059e+07
1.83112e+07
1.83165e+07
1.83219e+07
1.83274e+07
1.8333e+07
1.83386e+07
1.83443e+07
1.835e+07
1.83558e+07
1.83617e+07
1.83676e+07
1.83736e+07
1.83796e+07
1.83857e+07
1.83919e+07
1.83981e+07
1.84044e+07
1.84108e+07
1.84172e+07
1.84237e+07
1.84302e+07
1.84368e+07
1.84435e+07
1.84502e+07
1.8457e+07
1.84638e+07
1.84707e+07
1.84777e+07
1.84847e+07
1.84918e+07
1.84989e+07
1.85061e+07
1.85134e+07
1.85207e+07
1.85281e+07
1.85355e+07
1.85429e+07
1.85505e+07
1.85581e+07
1.85657e+07
1.85734e+07
1.85811e+07
1.85889e+07
1.85968e+07
1.86047e+07
1.86126e+07
1.86206e+07
1.86286e+07
1.86367e+07
1.86449e+07
1.86531e+07
1.86613e+07
1.86696e+07
1.86779e+07
1.86862e+07
1.86946e+07
1.87031e+07
1.87115e+07
1.87201e+07
1.87286e+07
1.87372e+07
1.87458e+07
1.87545e+07
1.87632e+07
1.87719e+07
1.87807e+07
1.87895e+07
1.87983e+07
1.88071e+07
1.8816e+07
1.88249e+07
1.88338e+07
1.88428e+07
1.88518e+07
1.88607e+07
1.88698e+07
1.88788e+07
1.88878e+07
1.88969e+07
1.8906e+07
1.89151e+07
1.89241e+07
1.8933e+07
1.89416e+07
1.80424e+07
1.80424e+07
1.80425e+07
1.80427e+07
1.80428e+07
1.8043e+07
1.80432e+07
1.80434e+07
1.80437e+07
1.80439e+07
1.80442e+07
1.80446e+07
1.80449e+07
1.80453e+07
1.80458e+07
1.80462e+07
1.80467e+07
1.80472e+07
1.80478e+07
1.80483e+07
1.80489e+07
1.80496e+07
1.80503e+07
1.8051e+07
1.80517e+07
1.80525e+07
1.80533e+07
1.80541e+07
1.8055e+07
1.80559e+07
1.80569e+07
1.80579e+07
1.80589e+07
1.80599e+07
1.8061e+07
1.80622e+07
1.80633e+07
1.80646e+07
1.80658e+07
1.80671e+07
1.80684e+07
1.80698e+07
1.80712e+07
1.80727e+07
1.80741e+07
1.80757e+07
1.80772e+07
1.80789e+07
1.80805e+07
1.80822e+07
1.8084e+07
1.80858e+07
1.80876e+07
1.80895e+07
1.80914e+07
1.80933e+07
1.80954e+07
1.80974e+07
1.80995e+07
1.81017e+07
1.81039e+07
1.81061e+07
1.81084e+07
1.81107e+07
1.81131e+07
1.81155e+07
1.8118e+07
1.81206e+07
1.81231e+07
1.81258e+07
1.81284e+07
1.81312e+07
1.8134e+07
1.81368e+07
1.81397e+07
1.81426e+07
1.81456e+07
1.81486e+07
1.81517e+07
1.81549e+07
1.81581e+07
1.81613e+07
1.81646e+07
1.8168e+07
1.81714e+07
1.81749e+07
1.81784e+07
1.8182e+07
1.81856e+07
1.81893e+07
1.8193e+07
1.81968e+07
1.82007e+07
1.82046e+07
1.82086e+07
1.82126e+07
1.82167e+07
1.82209e+07
1.82251e+07
1.82294e+07
1.82337e+07
1.82381e+07
1.82425e+07
1.8247e+07
1.82516e+07
1.82562e+07
1.82609e+07
1.82657e+07
1.82705e+07
1.82753e+07
1.82803e+07
1.82853e+07
1.82903e+07
1.82954e+07
1.83006e+07
1.83059e+07
1.83112e+07
1.83165e+07
1.83219e+07
1.83274e+07
1.8333e+07
1.83386e+07
1.83443e+07
1.835e+07
1.83558e+07
1.83617e+07
1.83676e+07
1.83736e+07
1.83796e+07
1.83857e+07
1.83919e+07
1.83981e+07
1.84044e+07
1.84108e+07
1.84172e+07
1.84237e+07
1.84302e+07
1.84368e+07
1.84435e+07
1.84502e+07
1.8457e+07
1.84638e+07
1.84707e+07
1.84777e+07
1.84847e+07
1.84918e+07
1.84989e+07
1.85061e+07
1.85134e+07
1.85207e+07
1.85281e+07
1.85355e+07
1.85429e+07
1.85505e+07
1.85581e+07
1.85657e+07
1.85734e+07
1.85811e+07
1.85889e+07
1.85968e+07
1.86047e+07
1.86126e+07
1.86206e+07
1.86286e+07
1.86367e+07
1.86449e+07
1.86531e+07
1.86613e+07
1.86696e+07
1.86779e+07
1.86862e+07
1.86946e+07
1.87031e+07
1.87115e+07
1.87201e+07
1.87286e+07
1.87372e+07
1.87458e+07
1.87545e+07
1.87632e+07
1.87719e+07
1.87807e+07
1.87895e+07
1.87983e+07
1.88071e+07
1.8816e+07
1.88249e+07
1.88338e+07
1.88428e+07
1.88518e+07
1.88607e+07
1.88698e+07
1.88788e+07
1.88878e+07
1.88969e+07
1.8906e+07
1.89151e+07
1.89241e+07
1.89329e+07
1.89415e+07
1.80424e+07
1.80424e+07
1.80425e+07
1.80427e+07
1.80428e+07
1.8043e+07
1.80432e+07
1.80434e+07
1.80437e+07
1.80439e+07
1.80442e+07
1.80446e+07
1.80449e+07
1.80453e+07
1.80458e+07
1.80462e+07
1.80467e+07
1.80472e+07
1.80478e+07
1.80483e+07
1.80489e+07
1.80496e+07
1.80503e+07
1.8051e+07
1.80517e+07
1.80525e+07
1.80533e+07
1.80541e+07
1.8055e+07
1.80559e+07
1.80569e+07
1.80579e+07
1.80589e+07
1.80599e+07
1.8061e+07
1.80622e+07
1.80633e+07
1.80646e+07
1.80658e+07
1.80671e+07
1.80684e+07
1.80698e+07
1.80712e+07
1.80727e+07
1.80741e+07
1.80757e+07
1.80772e+07
1.80789e+07
1.80805e+07
1.80822e+07
1.8084e+07
1.80858e+07
1.80876e+07
1.80895e+07
1.80914e+07
1.80933e+07
1.80954e+07
1.80974e+07
1.80995e+07
1.81017e+07
1.81039e+07
1.81061e+07
1.81084e+07
1.81107e+07
1.81131e+07
1.81155e+07
1.8118e+07
1.81206e+07
1.81231e+07
1.81258e+07
1.81284e+07
1.81312e+07
1.8134e+07
1.81368e+07
1.81397e+07
1.81426e+07
1.81456e+07
1.81486e+07
1.81517e+07
1.81549e+07
1.81581e+07
1.81613e+07
1.81646e+07
1.8168e+07
1.81714e+07
1.81749e+07
1.81784e+07
1.8182e+07
1.81856e+07
1.81893e+07
1.8193e+07
1.81968e+07
1.82007e+07
1.82046e+07
1.82086e+07
1.82126e+07
1.82167e+07
1.82209e+07
1.82251e+07
1.82294e+07
1.82337e+07
1.82381e+07
1.82425e+07
1.8247e+07
1.82516e+07
1.82562e+07
1.82609e+07
1.82657e+07
1.82705e+07
1.82753e+07
1.82803e+07
1.82853e+07
1.82903e+07
1.82954e+07
1.83006e+07
1.83059e+07
1.83112e+07
1.83165e+07
1.83219e+07
1.83274e+07
1.8333e+07
1.83386e+07
1.83443e+07
1.835e+07
1.83558e+07
1.83617e+07
1.83676e+07
1.83736e+07
1.83796e+07
1.83857e+07
1.83919e+07
1.83981e+07
1.84044e+07
1.84108e+07
1.84172e+07
1.84237e+07
1.84302e+07
1.84368e+07
1.84435e+07
1.84502e+07
1.8457e+07
1.84638e+07
1.84707e+07
1.84777e+07
1.84847e+07
1.84918e+07
1.84989e+07
1.85061e+07
1.85134e+07
1.85207e+07
1.85281e+07
1.85355e+07
1.85429e+07
1.85505e+07
1.85581e+07
1.85657e+07
1.85734e+07
1.85811e+07
1.85889e+07
1.85968e+07
1.86047e+07
1.86126e+07
1.86206e+07
1.86286e+07
1.86367e+07
1.86449e+07
1.86531e+07
1.86613e+07
1.86696e+07
1.86779e+07
1.86862e+07
1.86946e+07
1.87031e+07
1.87115e+07
1.87201e+07
1.87286e+07
1.87372e+07
1.87458e+07
1.87545e+07
1.87632e+07
1.87719e+07
1.87807e+07
1.87895e+07
1.87983e+07
1.88071e+07
1.8816e+07
1.88249e+07
1.88338e+07
1.88428e+07
1.88518e+07
1.88607e+07
1.88698e+07
1.88788e+07
1.88878e+07
1.88969e+07
1.8906e+07
1.89151e+07
1.89241e+07
1.89329e+07
1.89415e+07
1.80424e+07
1.80424e+07
1.80425e+07
1.80427e+07
1.80428e+07
1.8043e+07
1.80432e+07
1.80434e+07
1.80437e+07
1.80439e+07
1.80442e+07
1.80446e+07
1.80449e+07
1.80453e+07
1.80458e+07
1.80462e+07
1.80467e+07
1.80472e+07
1.80478e+07
1.80483e+07
1.80489e+07
1.80496e+07
1.80503e+07
1.8051e+07
1.80517e+07
1.80525e+07
1.80533e+07
1.80541e+07
1.8055e+07
1.80559e+07
1.80569e+07
1.80579e+07
1.80589e+07
1.80599e+07
1.8061e+07
1.80622e+07
1.80633e+07
1.80646e+07
1.80658e+07
1.80671e+07
1.80684e+07
1.80698e+07
1.80712e+07
1.80727e+07
1.80741e+07
1.80757e+07
1.80772e+07
1.80789e+07
1.80805e+07
1.80822e+07
1.8084e+07
1.80858e+07
1.80876e+07
1.80895e+07
1.80914e+07
1.80933e+07
1.80954e+07
1.80974e+07
1.80995e+07
1.81017e+07
1.81039e+07
1.81061e+07
1.81084e+07
1.81107e+07
1.81131e+07
1.81155e+07
1.8118e+07
1.81206e+07
1.81231e+07
1.81258e+07
1.81284e+07
1.81312e+07
1.8134e+07
1.81368e+07
1.81397e+07
1.81426e+07
1.81456e+07
1.81486e+07
1.81517e+07
1.81549e+07
1.81581e+07
1.81613e+07
1.81646e+07
1.8168e+07
1.81714e+07
1.81749e+07
1.81784e+07
1.8182e+07
1.81856e+07
1.81893e+07
1.8193e+07
1.81968e+07
1.82007e+07
1.82046e+07
1.82086e+07
1.82126e+07
1.82167e+07
1.82209e+07
1.82251e+07
1.82294e+07
1.82337e+07
1.82381e+07
1.82425e+07
1.8247e+07
1.82516e+07
1.82562e+07
1.82609e+07
1.82657e+07
1.82705e+07
1.82753e+07
1.82803e+07
1.82853e+07
1.82903e+07
1.82954e+07
1.83006e+07
1.83059e+07
1.83112e+07
1.83165e+07
1.83219e+07
1.83274e+07
1.8333e+07
1.83386e+07
1.83443e+07
1.835e+07
1.83558e+07
1.83617e+07
1.83676e+07
1.83736e+07
1.83796e+07
1.83857e+07
1.83919e+07
1.83981e+07
1.84044e+07
1.84108e+07
1.84172e+07
1.84237e+07
1.84302e+07
1.84368e+07
1.84435e+07
1.84502e+07
1.8457e+07
1.84638e+07
1.84707e+07
1.84777e+07
1.84847e+07
1.84918e+07
1.84989e+07
1.85061e+07
1.85134e+07
1.85207e+07
1.85281e+07
1.85355e+07
1.85429e+07
1.85505e+07
1.85581e+07
1.85657e+07
1.85734e+07
1.85811e+07
1.85889e+07
1.85968e+07
1.86047e+07
1.86126e+07
1.86206e+07
1.86286e+07
1.86367e+07
1.86449e+07
1.86531e+07
1.86613e+07
1.86696e+07
1.86779e+07
1.86862e+07
1.86946e+07
1.87031e+07
1.87115e+07
1.87201e+07
1.87286e+07
1.87372e+07
1.87458e+07
1.87545e+07
1.87632e+07
1.87719e+07
1.87807e+07
1.87895e+07
1.87983e+07
1.88071e+07
1.8816e+07
1.88249e+07
1.88338e+07
1.88428e+07
1.88518e+07
1.88607e+07
1.88698e+07
1.88788e+07
1.88878e+07
1.88969e+07
1.8906e+07
1.89151e+07
1.89241e+07
1.89329e+07
1.89415e+07
1.89542e+07
1.89586e+07
1.89613e+07
1.89631e+07
1.89648e+07
1.89665e+07
1.89682e+07
1.89699e+07
1.89715e+07
1.89731e+07
1.89748e+07
1.89764e+07
1.89779e+07
1.89794e+07
1.89809e+07
1.89823e+07
1.89836e+07
1.89848e+07
1.89859e+07
1.89865e+07
1.89538e+07
1.89578e+07
1.89605e+07
1.89624e+07
1.89641e+07
1.89658e+07
1.89675e+07
1.89691e+07
1.89707e+07
1.89724e+07
1.89741e+07
1.89757e+07
1.89772e+07
1.89787e+07
1.89802e+07
1.89816e+07
1.89829e+07
1.89841e+07
1.89851e+07
1.89858e+07
1.89535e+07
1.89576e+07
1.89604e+07
1.89623e+07
1.8964e+07
1.89658e+07
1.89675e+07
1.89691e+07
1.89707e+07
1.89723e+07
1.8974e+07
1.89756e+07
1.89771e+07
1.89786e+07
1.89801e+07
1.89814e+07
1.89827e+07
1.89839e+07
1.89849e+07
1.89855e+07
1.89519e+07
1.89548e+07
1.89568e+07
1.89585e+07
1.89602e+07
1.8962e+07
1.89637e+07
1.89653e+07
1.89669e+07
1.89685e+07
1.89704e+07
1.8972e+07
1.89735e+07
1.8975e+07
1.89765e+07
1.89779e+07
1.89792e+07
1.89804e+07
1.89814e+07
1.89823e+07
1.89506e+07
1.89534e+07
1.8956e+07
1.89582e+07
1.89602e+07
1.89621e+07
1.89638e+07
1.89654e+07
1.89671e+07
1.89685e+07
1.89701e+07
1.89715e+07
1.8973e+07
1.89744e+07
1.89757e+07
1.8977e+07
1.89783e+07
1.89794e+07
1.89806e+07
1.89816e+07
1.89459e+07
1.89466e+07
1.89473e+07
1.8948e+07
1.8949e+07
1.89503e+07
1.89517e+07
1.89533e+07
1.89551e+07
1.89566e+07
1.89583e+07
1.89601e+07
1.89617e+07
1.89637e+07
1.89653e+07
1.89671e+07
1.89688e+07
1.89706e+07
1.89725e+07
1.89745e+07
1.8943e+07
1.89438e+07
1.89453e+07
1.89473e+07
1.8949e+07
1.89506e+07
1.89521e+07
1.89537e+07
1.89551e+07
1.89568e+07
1.8958e+07
1.89595e+07
1.89611e+07
1.89624e+07
1.8964e+07
1.89656e+07
1.89673e+07
1.89691e+07
1.89713e+07
1.89736e+07
1.89368e+07
1.89345e+07
1.89328e+07
1.89322e+07
1.89325e+07
1.89333e+07
1.89344e+07
1.89357e+07
1.89372e+07
1.89389e+07
1.89407e+07
1.89426e+07
1.89451e+07
1.89473e+07
1.89497e+07
1.89525e+07
1.89554e+07
1.89585e+07
1.89619e+07
1.89657e+07
1.89351e+07
1.89329e+07
1.89319e+07
1.89318e+07
1.89322e+07
1.89331e+07
1.89342e+07
1.89356e+07
1.89371e+07
1.89388e+07
1.89405e+07
1.89424e+07
1.89447e+07
1.89469e+07
1.89492e+07
1.89518e+07
1.89546e+07
1.89577e+07
1.89611e+07
1.89649e+07
1.89334e+07
1.89294e+07
1.89274e+07
1.89269e+07
1.89272e+07
1.89279e+07
1.8929e+07
1.89303e+07
1.89318e+07
1.89335e+07
1.89354e+07
1.89374e+07
1.89397e+07
1.89421e+07
1.89446e+07
1.89474e+07
1.89504e+07
1.89538e+07
1.89576e+07
1.89618e+07
1.89857e+07
1.89901e+07
1.89966e+07
1.90035e+07
1.90105e+07
1.90176e+07
1.90247e+07
1.90319e+07
1.9039e+07
1.90461e+07
1.90533e+07
1.90604e+07
1.90676e+07
1.90747e+07
1.90819e+07
1.9089e+07
1.90962e+07
1.91033e+07
1.91104e+07
1.91176e+07
1.91247e+07
1.91318e+07
1.91389e+07
1.9146e+07
1.91531e+07
1.91601e+07
1.91672e+07
1.91742e+07
1.91813e+07
1.91883e+07
1.91953e+07
1.92023e+07
1.92093e+07
1.92162e+07
1.92232e+07
1.92301e+07
1.9237e+07
1.92439e+07
1.92508e+07
1.92577e+07
1.92645e+07
1.92713e+07
1.92781e+07
1.92849e+07
1.92916e+07
1.92984e+07
1.93051e+07
1.93118e+07
1.93185e+07
1.93251e+07
1.93317e+07
1.93383e+07
1.93449e+07
1.93515e+07
1.9358e+07
1.93645e+07
1.9371e+07
1.93774e+07
1.93839e+07
1.93903e+07
1.93967e+07
1.9403e+07
1.94093e+07
1.94156e+07
1.94219e+07
1.94281e+07
1.94344e+07
1.94405e+07
1.94467e+07
1.94528e+07
1.94589e+07
1.9465e+07
1.9471e+07
1.9477e+07
1.9483e+07
1.9489e+07
1.94949e+07
1.95008e+07
1.95066e+07
1.95124e+07
1.95182e+07
1.9524e+07
1.95297e+07
1.95354e+07
1.95411e+07
1.95467e+07
1.95523e+07
1.95579e+07
1.95634e+07
1.95689e+07
1.95743e+07
1.95798e+07
1.95852e+07
1.95905e+07
1.95959e+07
1.96012e+07
1.96064e+07
1.96117e+07
1.96169e+07
1.9622e+07
1.96272e+07
1.96323e+07
1.96373e+07
1.96424e+07
1.96474e+07
1.96523e+07
1.96573e+07
1.96621e+07
1.9667e+07
1.96718e+07
1.96766e+07
1.96814e+07
1.96861e+07
1.96908e+07
1.96954e+07
1.97001e+07
1.97046e+07
1.97092e+07
1.97137e+07
1.97182e+07
1.97226e+07
1.97271e+07
1.97314e+07
1.97358e+07
1.97401e+07
1.97444e+07
1.97486e+07
1.97528e+07
1.9757e+07
1.97611e+07
1.97652e+07
1.97692e+07
1.97732e+07
1.97772e+07
1.97811e+07
1.9785e+07
1.97889e+07
1.97927e+07
1.97965e+07
1.98002e+07
1.98039e+07
1.98076e+07
1.98112e+07
1.98148e+07
1.98184e+07
1.98219e+07
1.98254e+07
1.98288e+07
1.98323e+07
1.98357e+07
1.9839e+07
1.98423e+07
1.98456e+07
1.98488e+07
1.9852e+07
1.98552e+07
1.98584e+07
1.98615e+07
1.98645e+07
1.98676e+07
1.98706e+07
1.98735e+07
1.98765e+07
1.98794e+07
1.98822e+07
1.98851e+07
1.98879e+07
1.98906e+07
1.98934e+07
1.9896e+07
1.98987e+07
1.99013e+07
1.99039e+07
1.99065e+07
1.9909e+07
1.99115e+07
1.9914e+07
1.99164e+07
1.99188e+07
1.99212e+07
1.99235e+07
1.99258e+07
1.99281e+07
1.99304e+07
1.99326e+07
1.99347e+07
1.99369e+07
1.9939e+07
1.99411e+07
1.99431e+07
1.99451e+07
1.99471e+07
1.99491e+07
1.9951e+07
1.99529e+07
1.99548e+07
1.99566e+07
1.99585e+07
1.99602e+07
1.99621e+07
1.89855e+07
1.89901e+07
1.89965e+07
1.90035e+07
1.90105e+07
1.90176e+07
1.90247e+07
1.90319e+07
1.9039e+07
1.90461e+07
1.90533e+07
1.90604e+07
1.90676e+07
1.90747e+07
1.90819e+07
1.9089e+07
1.90962e+07
1.91033e+07
1.91104e+07
1.91176e+07
1.91247e+07
1.91318e+07
1.91389e+07
1.9146e+07
1.91531e+07
1.91601e+07
1.91672e+07
1.91742e+07
1.91813e+07
1.91883e+07
1.91953e+07
1.92023e+07
1.92093e+07
1.92162e+07
1.92232e+07
1.92301e+07
1.9237e+07
1.92439e+07
1.92508e+07
1.92577e+07
1.92645e+07
1.92713e+07
1.92781e+07
1.92849e+07
1.92916e+07
1.92984e+07