/*--------------------------------*- C++ -*----------------------------------*\
| =========                 |                                                 |
| \\      /  F ield         | OpenFOAM: The Open Source CFD Toolbox           |
|  \\    /   O peration     | Version:  3.0.x                                 |
|   \\  /    A nd           | Web:      www.OpenFOAM.org                      |
|    \\/     M anipulation  |                                                 |
\*---------------------------------------------------------------------------*/
FoamFile
{
    version     2.0;
    format      ascii;
    class       volScalarField;
    location    "0.499975";
    object      rho;
}
// * * * * * * * * * * * * * * * * * * * * * * * * * * * * * * * * * * * * * //

dimensions      [1 -3 0 0 0 0 0];

internalField   nonuniform List<scalar> 
13800
(
50.5647
50.5649
50.5652
50.5655
50.5658
50.5662
50.5667
50.5672
50.5678
50.5685
50.5692
50.57
50.5708
50.5718
50.5728
50.5738
50.575
50.5762
50.5774
50.5788
50.5802
50.5817
50.5833
50.5849
50.5867
50.5885
50.5904
50.5923
50.5944
50.5965
50.5988
50.6011
50.6034
50.6059
50.6085
50.6111
50.6139
50.6167
50.6196
50.6226
50.6257
50.6289
50.6322
50.6356
50.6391
50.6427
50.6463
50.6501
50.654
50.658
50.662
50.6662
50.6705
50.6748
50.6793
50.6839
50.6885
50.6933
50.6982
50.7033
50.7084
50.7137
50.7191
50.7246
50.7302
50.7359
50.7417
50.7476
50.7536
50.7597
50.766
50.7723
50.7788
50.7854
50.7922
50.799
50.806
50.8131
50.8203
50.8277
50.8352
50.8428
50.8506
50.8585
50.8665
50.8746
50.8829
50.8913
50.8998
50.9084
50.9171
50.926
50.9349
50.9441
50.9533
50.9627
50.9723
50.982
50.9919
51.0019
51.012
51.0223
51.0327
51.0432
51.0539
51.0647
51.0756
51.0867
51.0979
51.1092
51.1207
51.1324
51.1441
51.1561
51.1681
51.1803
51.1927
51.2052
51.2178
51.2306
51.2435
51.2566
51.2698
51.2831
51.2966
51.3103
51.324
51.338
51.352
51.3663
51.3806
51.3951
51.4098
51.4246
51.4395
51.4546
51.4698
51.4852
51.5006
51.5163
51.5321
51.548
51.564
51.5802
51.5965
51.613
51.6296
51.6463
51.6631
51.6801
51.6972
51.7145
51.7319
51.7494
51.767
51.7847
51.8026
51.8206
51.8387
51.8569
51.8752
51.8937
51.9122
51.9309
51.9497
51.9686
51.9876
52.0067
52.0259
52.0452
52.0646
52.0841
52.1037
52.1233
52.1431
52.1629
52.1829
52.2029
52.223
52.2431
52.2634
52.2837
52.3041
52.3244
52.3452
52.3655
52.3864
52.4067
52.4279
52.4482
52.4697
52.4898
52.5116
52.5315
52.5537
52.5735
52.5959
52.6157
52.6386
52.6587
50.5656
50.5658
50.5661
50.5664
50.5668
50.5672
50.5677
50.5682
50.5688
50.5694
50.5701
50.5709
50.5718
50.5727
50.5737
50.5748
50.5759
50.5771
50.5784
50.5797
50.5811
50.5826
50.5842
50.5859
50.5876
50.5894
50.5913
50.5932
50.5953
50.5974
50.5996
50.6019
50.6043
50.6068
50.6094
50.612
50.6147
50.6176
50.6205
50.6235
50.6266
50.6298
50.6331
50.6365
50.6399
50.6435
50.6472
50.651
50.6548
50.6588
50.6629
50.667
50.6713
50.6756
50.6801
50.6847
50.6893
50.6941
50.699
50.7041
50.7092
50.7145
50.7199
50.7254
50.731
50.7367
50.7425
50.7484
50.7544
50.7605
50.7667
50.7731
50.7796
50.7862
50.7929
50.7998
50.8067
50.8138
50.821
50.8284
50.8359
50.8435
50.8513
50.8592
50.8672
50.8753
50.8836
50.892
50.9005
50.9091
50.9178
50.9267
50.9356
50.9448
50.954
50.9634
50.973
50.9827
50.9925
51.0025
51.0127
51.0229
51.0333
51.0438
51.0545
51.0653
51.0762
51.0873
51.0985
51.1099
51.1214
51.133
51.1448
51.1567
51.1687
51.1809
51.1933
51.2058
51.2184
51.2312
51.2441
51.2572
51.2704
51.2837
51.2972
51.3109
51.3247
51.3386
51.3527
51.3669
51.3812
51.3958
51.4104
51.4252
51.4401
51.4552
51.4704
51.4858
51.5013
51.5169
51.5327
51.5486
51.5646
51.5808
51.5971
51.6136
51.6302
51.6469
51.6638
51.6808
51.6979
51.7151
51.7325
51.75
51.7676
51.7853
51.8032
51.8212
51.8393
51.8575
51.8759
51.8943
51.9129
51.9315
51.9503
51.9692
51.9882
52.0073
52.0265
52.0458
52.0652
52.0847
52.1043
52.124
52.1437
52.1636
52.1835
52.2035
52.2236
52.2438
52.264
52.2843
52.3048
52.3251
52.3458
52.3661
52.3871
52.4073
52.4286
52.4488
52.4703
52.4904
52.5122
52.5321
52.5543
52.5741
52.5965
52.6162
52.6393
52.6573
50.5656
50.5658
50.5661
50.5664
50.5668
50.5672
50.5677
50.5682
50.5688
50.5694
50.5701
50.5709
50.5718
50.5727
50.5737
50.5748
50.5759
50.5771
50.5784
50.5797
50.5811
50.5826
50.5842
50.5859
50.5876
50.5894
50.5913
50.5932
50.5953
50.5974
50.5996
50.6019
50.6043
50.6068
50.6094
50.612
50.6147
50.6176
50.6205
50.6235
50.6266
50.6298
50.6331
50.6365
50.6399
50.6435
50.6472
50.651
50.6548
50.6588
50.6629
50.667
50.6713
50.6756
50.6801
50.6847
50.6893
50.6941
50.699
50.7041
50.7092
50.7145
50.7199
50.7254
50.731
50.7367
50.7425
50.7484
50.7544
50.7605
50.7667
50.7731
50.7796
50.7862
50.7929
50.7998
50.8067
50.8138
50.821
50.8284
50.8359
50.8435
50.8513
50.8592
50.8672
50.8753
50.8836
50.892
50.9005
50.9091
50.9178
50.9267
50.9356
50.9448
50.954
50.9634
50.973
50.9827
50.9925
51.0025
51.0127
51.0229
51.0333
51.0438
51.0545
51.0653
51.0762
51.0873
51.0985
51.1099
51.1214
51.133
51.1448
51.1567
51.1687
51.1809
51.1933
51.2058
51.2184
51.2312
51.2441
51.2572
51.2704
51.2837
51.2972
51.3109
51.3247
51.3386
51.3527
51.3669
51.3812
51.3958
51.4104
51.4252
51.4401
51.4552
51.4704
51.4858
51.5013
51.5169
51.5327
51.5486
51.5646
51.5808
51.5971
51.6136
51.6302
51.6469
51.6638
51.6808
51.6979
51.7151
51.7325
51.75
51.7676
51.7853
51.8032
51.8212
51.8393
51.8575
51.8759
51.8943
51.9129
51.9315
51.9503
51.9692
51.9882
52.0073
52.0265
52.0458
52.0652
52.0847
52.1043
52.124
52.1437
52.1636
52.1835
52.2035
52.2236
52.2438
52.264
52.2843
52.3048
52.3251
52.3458
52.3661
52.3871
52.4073
52.4286
52.4488
52.4703
52.4904
52.5122
52.5321
52.5543
52.5741
52.5965
52.6162
52.6393
52.6574
50.5656
50.5658
50.5661
50.5664
50.5668
50.5672
50.5677
50.5682
50.5688
50.5694
50.5701
50.5709
50.5718
50.5727
50.5737
50.5747
50.5759
50.5771
50.5784
50.5797
50.5811
50.5826
50.5842
50.5858
50.5876
50.5894
50.5913
50.5932
50.5953
50.5974
50.5996
50.6019
50.6043
50.6068
50.6094
50.612
50.6147
50.6176
50.6205
50.6235
50.6266
50.6298
50.6331
50.6365
50.6399
50.6435
50.6472
50.6509
50.6548
50.6588
50.6629
50.667
50.6713
50.6756
50.6801
50.6847
50.6893
50.6941
50.699
50.7041
50.7092
50.7145
50.7199
50.7254
50.731
50.7367
50.7425
50.7484
50.7544
50.7605
50.7667
50.7731
50.7796
50.7862
50.7929
50.7998
50.8067
50.8138
50.821
50.8284
50.8359
50.8435
50.8513
50.8592
50.8672
50.8753
50.8836
50.892
50.9005
50.9091
50.9178
50.9267
50.9356
50.9448
50.954
50.9634
50.973
50.9827
50.9925
51.0025
51.0127
51.0229
51.0333
51.0438
51.0545
51.0653
51.0762
51.0873
51.0985
51.1099
51.1214
51.133
51.1448
51.1567
51.1687
51.1809
51.1933
51.2058
51.2184
51.2312
51.2441
51.2572
51.2704
51.2837
51.2972
51.3109
51.3247
51.3386
51.3527
51.3669
51.3812
51.3958
51.4104
51.4252
51.4401
51.4552
51.4704
51.4858
51.5013
51.5169
51.5327
51.5486
51.5646
51.5808
51.5971
51.6136
51.6302
51.6469
51.6638
51.6808
51.6979
51.7151
51.7325
51.75
51.7676
51.7853
51.8032
51.8212
51.8393
51.8575
51.8759
51.8943
51.9129
51.9315
51.9503
51.9692
51.9882
52.0073
52.0265
52.0458
52.0652
52.0847
52.1043
52.124
52.1437
52.1636
52.1835
52.2035
52.2236
52.2438
52.264
52.2843
52.3048
52.3251
52.3458
52.3661
52.3871
52.4073
52.4286
52.4488
52.4703
52.4904
52.5122
52.5322
52.5543
52.5741
52.5965
52.6163
52.6392
52.6588
50.5656
50.5658
50.5661
50.5664
50.5668
50.5672
50.5676
50.5682
50.5688
50.5694
50.5701
50.5709
50.5718
50.5727
50.5737
50.5747
50.5759
50.5771
50.5783
50.5797
50.5811
50.5826
50.5842
50.5858
50.5876
50.5894
50.5913
50.5932
50.5953
50.5974
50.5996
50.6019
50.6043
50.6068
50.6094
50.612
50.6147
50.6176
50.6205
50.6235
50.6266
50.6298
50.6331
50.6365
50.6399
50.6435
50.6472
50.6509
50.6548
50.6588
50.6629
50.667
50.6713
50.6756
50.6801
50.6847
50.6893
50.6941
50.699
50.7041
50.7092
50.7145
50.7199
50.7254
50.731
50.7367
50.7425
50.7484
50.7544
50.7605
50.7667
50.7731
50.7796
50.7862
50.7929
50.7998
50.8067
50.8138
50.821
50.8284
50.8359
50.8435
50.8513
50.8592
50.8672
50.8753
50.8836
50.892
50.9005
50.9091
50.9178
50.9267
50.9356
50.9448
50.954
50.9634
50.973
50.9827
50.9925
51.0025
51.0127
51.0229
51.0333
51.0438
51.0545
51.0653
51.0762
51.0873
51.0985
51.1099
51.1214
51.133
51.1448
51.1567
51.1687
51.1809
51.1933
51.2058
51.2184
51.2312
51.2441
51.2572
51.2704
51.2837
51.2972
51.3109
51.3247
51.3386
51.3527
51.3669
51.3812
51.3958
51.4104
51.4252
51.4401
51.4552
51.4704
51.4858
51.5013
51.5169
51.5327
51.5486
51.5646
51.5808
51.5971
51.6136
51.6302
51.6469
51.6638
51.6808
51.6979
51.7151
51.7325
51.75
51.7676
51.7853
51.8032
51.8212
51.8393
51.8575
51.8759
51.8943
51.9129
51.9315
51.9503
51.9692
51.9882
52.0073
52.0265
52.0458
52.0652
52.0847
52.1043
52.124
52.1437
52.1636
52.1835
52.2035
52.2236
52.2437
52.264
52.2843
52.3048
52.3251
52.3458
52.3661
52.3871
52.4073
52.4286
52.4488
52.4703
52.4904
52.5122
52.5322
52.5543
52.5741
52.5964
52.6163
52.6389
52.658
50.5656
50.5658
50.5661
50.5664
50.5668
50.5672
50.5676
50.5682
50.5688
50.5694
50.5701
50.5709
50.5718
50.5727
50.5737
50.5747
50.5759
50.5771
50.5783
50.5797
50.5811
50.5826
50.5842
50.5858
50.5876
50.5894
50.5913
50.5932
50.5953
50.5974
50.5996
50.6019
50.6043
50.6068
50.6094
50.612
50.6147
50.6176
50.6205
50.6235
50.6266
50.6298
50.6331
50.6365
50.6399
50.6435
50.6472
50.6509
50.6548
50.6588
50.6629
50.667
50.6713
50.6756
50.6801
50.6847
50.6893
50.6941
50.699
50.7041
50.7092
50.7145
50.7199
50.7254
50.731
50.7367
50.7425
50.7484
50.7544
50.7605
50.7667
50.7731
50.7796
50.7862
50.7929
50.7998
50.8067
50.8138
50.821
50.8284
50.8359
50.8435
50.8513
50.8592
50.8672
50.8753
50.8836
50.892
50.9005
50.9091
50.9178
50.9267
50.9356
50.9448
50.954
50.9634
50.973
50.9827
50.9925
51.0025
51.0127
51.0229
51.0333
51.0438
51.0545
51.0653
51.0762
51.0873
51.0985
51.1099
51.1214
51.133
51.1448
51.1567
51.1687
51.1809
51.1933
51.2058
51.2184
51.2312
51.2441
51.2572
51.2704
51.2837
51.2972
51.3109
51.3247
51.3386
51.3527
51.3669
51.3812
51.3958
51.4104
51.4252
51.4401
51.4552
51.4704
51.4858
51.5013
51.5169
51.5327
51.5486
51.5646
51.5808
51.5971
51.6136
51.6302
51.6469
51.6638
51.6808
51.6979
51.7151
51.7325
51.75
51.7676
51.7853
51.8032
51.8212
51.8393
51.8575
51.8759
51.8943
51.9129
51.9315
51.9503
51.9692
51.9882
52.0073
52.0265
52.0458
52.0652
52.0847
52.1043
52.124
52.1437
52.1636
52.1835
52.2035
52.2236
52.2438
52.264
52.2843
52.3047
52.3251
52.3457
52.3662
52.3869
52.4076
52.4281
52.4494
52.4695
52.4912
52.5114
52.533
52.5535
52.5747
52.5961
52.6166
52.6379
52.6587
50.5656
50.5658
50.5661
50.5664
50.5668
50.5672
50.5677
50.5682
50.5688
50.5694
50.5701
50.5709
50.5718
50.5727
50.5737
50.5747
50.5759
50.5771
50.5784
50.5797
50.5811
50.5826
50.5842
50.5858
50.5876
50.5894
50.5913
50.5932
50.5953
50.5974
50.5996
50.6019
50.6043
50.6068
50.6094
50.612
50.6147
50.6176
50.6205
50.6235
50.6266
50.6298
50.6331
50.6365
50.6399
50.6435
50.6472
50.6509
50.6548
50.6588
50.6629
50.667
50.6713
50.6756
50.6801
50.6847
50.6893
50.6941
50.699
50.7041
50.7092
50.7145
50.7199
50.7254
50.731
50.7367
50.7425
50.7484
50.7544
50.7605
50.7667
50.7731
50.7796
50.7862
50.7929
50.7998
50.8067
50.8138
50.821
50.8284
50.8359
50.8435
50.8513
50.8592
50.8672
50.8753
50.8836
50.892
50.9005
50.9091
50.9178
50.9267
50.9356
50.9448
50.954
50.9634
50.973
50.9827
50.9925
51.0025
51.0127
51.0229
51.0333
51.0438
51.0545
51.0653
51.0762
51.0873
51.0985
51.1099
51.1214
51.133
51.1448
51.1567
51.1687
51.1809
51.1933
51.2058
51.2184
51.2312
51.2441
51.2572
51.2704
51.2837
51.2972
51.3109
51.3247
51.3386
51.3527
51.3669
51.3812
51.3958
51.4104
51.4252
51.4401
51.4552
51.4704
51.4858
51.5013
51.5169
51.5327
51.5486
51.5646
51.5808
51.5971
51.6136
51.6302
51.6469
51.6638
51.6808
51.6979
51.7151
51.7325
51.75
51.7676
51.7853
51.8032
51.8212
51.8393
51.8575
51.8759
51.8943
51.9129
51.9315
51.9503
51.9692
51.9882
52.0073
52.0265
52.0458
52.0652
52.0847
52.1043
52.124
52.1437
52.1636
52.1835
52.2035
52.2236
52.2438
52.264
52.2844
52.3046
52.3253
52.3455
52.3665
52.3866
52.4078
52.428
52.4494
52.4696
52.4912
52.5113
52.5332
52.5531
52.5754
52.5951
52.6176
52.6359
52.6586
50.5656
50.5658
50.5661
50.5664
50.5668
50.5672
50.5677
50.5682
50.5688
50.5694
50.5701
50.5709
50.5718
50.5727
50.5737
50.5748
50.5759
50.5771
50.5784
50.5797
50.5811
50.5826
50.5842
50.5859
50.5876
50.5894
50.5913
50.5932
50.5953
50.5974
50.5996
50.6019
50.6043
50.6068
50.6094
50.612
50.6147
50.6176
50.6205
50.6235
50.6266
50.6298
50.6331
50.6365
50.6399
50.6435
50.6472
50.651
50.6548
50.6588
50.6629
50.667
50.6713
50.6756
50.6801
50.6847
50.6893
50.6941
50.699
50.7041
50.7092
50.7145
50.7199
50.7254
50.731
50.7367
50.7425
50.7484
50.7544
50.7605
50.7667
50.7731
50.7796
50.7862
50.7929
50.7998
50.8067
50.8138
50.821
50.8284
50.8359
50.8435
50.8513
50.8592
50.8672
50.8753
50.8836
50.892
50.9005
50.9091
50.9178
50.9267
50.9356
50.9448
50.954
50.9634
50.973
50.9827
50.9925
51.0025
51.0127
51.0229
51.0333
51.0438
51.0545
51.0653
51.0762
51.0873
51.0985
51.1099
51.1214
51.133
51.1448
51.1567
51.1687
51.1809
51.1933
51.2058
51.2184
51.2312
51.2441
51.2572
51.2704
51.2837
51.2972
51.3109
51.3247
51.3386
51.3527
51.3669
51.3812
51.3958
51.4104
51.4252
51.4401
51.4552
51.4704
51.4858
51.5013
51.5169
51.5327
51.5486
51.5646
51.5808
51.5971
51.6136
51.6302
51.6469
51.6638
51.6808
51.6979
51.7151
51.7325
51.75
51.7676
51.7853
51.8032
51.8212
51.8393
51.8575
51.8759
51.8943
51.9129
51.9315
51.9503
51.9692
51.9882
52.0073
52.0265
52.0458
52.0652
52.0847
52.1043
52.124
52.1437
52.1636
52.1835
52.2035
52.2236
52.2438
52.264
52.2844
52.3046
52.3253
52.3455
52.3665
52.3866
52.4078
52.428
52.4495
52.4695
52.4913
52.5112
52.5332
52.5531
52.5754
52.595
52.6176
52.6348
52.6636
50.5656
50.5658
50.5661
50.5664
50.5668
50.5672
50.5677
50.5682
50.5688
50.5694
50.5701
50.5709
50.5718
50.5727
50.5737
50.5748
50.5759
50.5771
50.5784
50.5797
50.5811
50.5826
50.5842
50.5859
50.5876
50.5894
50.5913
50.5932
50.5953
50.5974
50.5996
50.6019
50.6043
50.6068
50.6094
50.612
50.6147
50.6176
50.6205
50.6235
50.6266
50.6298
50.6331
50.6365
50.6399
50.6435
50.6472
50.651
50.6548
50.6588
50.6629
50.667
50.6713
50.6756
50.6801
50.6847
50.6893
50.6941
50.699
50.7041
50.7092
50.7145
50.7199
50.7254
50.731
50.7367
50.7425
50.7484
50.7544
50.7605
50.7667
50.7731
50.7796
50.7862
50.7929
50.7998
50.8067
50.8138
50.821
50.8284
50.8359
50.8435
50.8513
50.8592
50.8672
50.8753
50.8836
50.892
50.9005
50.9091
50.9178
50.9267
50.9356
50.9448
50.954
50.9634
50.973
50.9827
50.9925
51.0025
51.0127
51.0229
51.0333
51.0438
51.0545
51.0653
51.0762
51.0873
51.0985
51.1099
51.1214
51.133
51.1448
51.1567
51.1687
51.1809
51.1933
51.2058
51.2184
51.2312
51.2441
51.2572
51.2704
51.2837
51.2972
51.3109
51.3247
51.3386
51.3527
51.3669
51.3812
51.3958
51.4104
51.4252
51.4401
51.4552
51.4704
51.4858
51.5013
51.5169
51.5327
51.5486
51.5646
51.5808
51.5971
51.6136
51.6302
51.6469
51.6638
51.6808
51.6979
51.7151
51.7325
51.75
51.7676
51.7853
51.8032
51.8212
51.8393
51.8575
51.8759
51.8943
51.9129
51.9315
51.9503
51.9692
51.9882
52.0073
52.0265
52.0458
52.0652
52.0847
52.1043
52.124
52.1437
52.1636
52.1835
52.2035
52.2236
52.2438
52.264
52.2844
52.3046
52.3253
52.3455
52.3665
52.3866
52.4078
52.428
52.4495
52.4695
52.4913
52.5112
52.5333
52.5531
52.5754
52.595
52.6176
52.6343
52.6674
50.5647
50.5649
50.5652
50.5655
50.5658
50.5662
50.5667
50.5672
50.5678
50.5685
50.5692
50.57
50.5708
50.5718
50.5728
50.5738
50.575
50.5762
50.5774
50.5788
50.5802
50.5817
50.5833
50.5849
50.5867
50.5885
50.5904
50.5923
50.5944
50.5965
50.5988
50.6011
50.6034
50.6059
50.6085
50.6111
50.6139
50.6167
50.6196
50.6226
50.6257
50.6289
50.6322
50.6356
50.6391
50.6427
50.6463
50.6501
50.654
50.658
50.662
50.6662
50.6705
50.6748
50.6793
50.6839
50.6885
50.6933
50.6982
50.7033
50.7084
50.7137
50.7191
50.7246
50.7302
50.7359
50.7417
50.7476
50.7536
50.7597
50.766
50.7723
50.7788
50.7854
50.7922
50.799
50.806
50.8131
50.8203
50.8277
50.8352
50.8428
50.8506
50.8585
50.8665
50.8746
50.8829
50.8913
50.8998
50.9084
50.9171
50.926
50.9349
50.9441
50.9533
50.9627
50.9723
50.982
50.9919
51.0019
51.012
51.0223
51.0327
51.0432
51.0539
51.0647
51.0756
51.0867
51.0979
51.1092
51.1207
51.1324
51.1441
51.1561
51.1681
51.1803
51.1927
51.2052
51.2178
51.2306
51.2435
51.2566
51.2698
51.2831
51.2966
51.3103
51.324
51.338
51.352
51.3663
51.3806
51.3951
51.4098
51.4246
51.4395
51.4546
51.4698
51.4852
51.5006
51.5163
51.5321
51.548
51.564
51.5802
51.5965
51.613
51.6296
51.6463
51.6631
51.6801
51.6972
51.7145
51.7319
51.7494
51.767
51.7847
51.8026
51.8206
51.8387
51.8569
51.8752
51.8937
51.9122
51.9309
51.9497
51.9686
51.9876
52.0067
52.0259
52.0452
52.0646
52.0841
52.1037
52.1233
52.1431
52.1629
52.1829
52.2029
52.223
52.2432
52.2634
52.2838
52.304
52.3247
52.3449
52.3658
52.386
52.4072
52.4273
52.4488
52.4689
52.4907
52.5106
52.5327
52.5524
52.5748
52.5944
52.617
52.6332
52.6706
52.6831
52.6933
52.6996
52.7039
52.7078
52.7117
52.7155
52.7192
52.7228
52.7264
52.7301
52.7337
52.7371
52.7405
52.744
52.7473
52.7505
52.7535
52.7561
52.7584
52.6832
52.6924
52.6985
52.7028
52.7067
52.7107
52.7148
52.7187
52.7224
52.7262
52.73
52.7337
52.7372
52.7407
52.7441
52.7474
52.7504
52.7532
52.7556
52.7577
52.6826
52.692
52.6983
52.7026
52.7066
52.7105
52.7145
52.7184
52.7221
52.7261
52.7301
52.7339
52.7374
52.7408
52.7442
52.7474
52.7504
52.7532
52.7554
52.7571
52.6798
52.6865
52.6909
52.6947
52.6982
52.7021
52.7057
52.7094
52.7129
52.7165
52.7206
52.7242
52.7274
52.7309
52.7342
52.7374
52.7401
52.7428
52.745
52.7471
52.6775
52.684
52.6899
52.6951
52.6997
52.704
52.7079
52.7117
52.7156
52.7191
52.7227
52.7261
52.7296
52.7331
52.7363
52.7394
52.7423
52.7452
52.7477
52.75
52.6669
52.6686
52.67
52.6713
52.6735
52.6762
52.6792
52.6826
52.6862
52.6894
52.6929
52.6967
52.6999
52.7039
52.7071
52.7106
52.714
52.7177
52.7216
52.7261
52.6608
52.6624
52.6663
52.6711
52.6753
52.6793
52.6833
52.6872
52.6909
52.695
52.6982
52.7021
52.7063
52.7097
52.7138
52.7178
52.722
52.7266
52.7314
52.7367
52.6478
52.642
52.6373
52.6352
52.6354
52.6371
52.6395
52.6425
52.6458
52.6497
52.6535
52.6577
52.6627
52.6677
52.6731
52.6791
52.6854
52.6925
52.7003
52.7093
52.6467
52.6411
52.6384
52.6379
52.6389
52.641
52.6437
52.647
52.6507
52.6547
52.659
52.6637
52.6689
52.6742
52.6798
52.6857
52.6922
52.6993
52.707
52.7155
52.6436
52.6333
52.6288
52.6273
52.6276
52.629
52.6313
52.6342
52.6375
52.6411
52.645
52.6492
52.6543
52.6592
52.6648
52.6707
52.6773
52.6845
52.6928
52.702
52.7548
52.7656
52.7806
52.7965
52.813
52.8298
52.8466
52.8632
52.8797
52.8961
52.9125
52.9291
52.9458
52.9624
52.979
52.9956
53.0121
53.0286
53.0451
53.0616
53.0781
53.0945
53.1109
53.1273
53.1436
53.16
53.1763
53.1926
53.2088
53.2251
53.2412
53.2574
53.2735
53.2895
53.3055
53.3215
53.3375
53.3534
53.3693
53.3852
53.401
53.4167
53.4324
53.4481
53.4637
53.4792
53.4948
53.5102
53.5256
53.5409
53.5562
53.5714
53.5866
53.6017
53.6168
53.6318
53.6467
53.6616
53.6765
53.6912
53.7059
53.7206
53.7352
53.7497
53.7641
53.7785
53.7929
53.8071
53.8213
53.8355
53.8495
53.8635
53.8774
53.8913
53.9051
53.9188
53.9324
53.946
53.9594
53.9728
53.9861
53.9994
54.0126
54.0257
54.0387
54.0517
54.0645
54.0774
54.0901
54.1027
54.1153
54.1279
54.1403
54.1527
54.1649
54.1771
54.1892
54.2013
54.2132
54.2251
54.237
54.2487
54.2603
54.2719
54.2834
54.2948
54.3062
54.3175
54.3287
54.3398
54.3508
54.3617
54.3726
54.3835
54.3945
54.4054
54.4164
54.4272
54.4378
54.4481
54.4581
54.4684
54.4795
54.4913
54.5028
54.5129
54.5184
54.5094
54.4841
54.4571
54.4319
54.4109
54.3958
54.3879
54.388
54.3951
54.4058
54.4198
54.4478
54.5006
54.5512
54.5938
54.6273
54.6525
54.6714
54.6862
54.6986
54.7093
54.7184
54.725
54.7309
54.7373
54.744
54.7508
54.7578
54.7647
54.7717
54.7787
54.7856
54.7925
54.7993
54.8061
54.8128
54.8194
54.8259
54.8324
54.8388
54.8451
54.8514
54.8576
54.8637
54.8697
54.8757
54.8816
54.8873
54.8932
54.8986
54.9046
54.9097
54.9156
54.9204
54.9262
54.9309
54.9366
54.9411
54.9467
54.951
54.9564
54.9606
54.9659
54.97
54.9751
54.9791
54.9841
54.9879
54.9928
54.9964
55.0012
55.0043
55.009
52.7553
52.7668
52.782
52.798
52.8144
52.8312
52.8481
52.8648
52.8814
52.8978
52.9143
52.9308
52.9475
52.9641
52.9808
52.9974
53.0139
53.0304
53.0469
53.0634
53.0799
53.0963
53.1127
53.1291
53.1455
53.1618
53.1781
53.1944
53.2107
53.2269
53.2431
53.2593
53.2754
53.2914
53.3075
53.3234
53.3394
53.3553
53.3712
53.3871
53.4029
53.4186
53.4343
53.45
53.4656
53.4812
53.4967
53.5121
53.5275
53.5429
53.5582
53.5734
53.5885
53.6036
53.6187
53.6337
53.6487
53.6636
53.6784
53.6932
53.7079
53.7226
53.7371
53.7516
53.7661
53.7805
53.7948
53.8091
53.8233
53.8374
53.8515
53.8655
53.8794
53.8932
53.907
53.9208
53.9344
53.948
53.9615
53.9749
53.9882
54.0014
54.0146
54.0277
54.0407
54.0537
54.0665
54.0794
54.0921
54.1047
54.1173
54.1299
54.1423
54.1547
54.1669
54.1792
54.1913
54.2033
54.2153
54.2271
54.2389
54.2507
54.2623
54.2739
54.2854
54.2968
54.3081
54.3194
54.3305
54.3417
54.3527
54.3636
54.3745
54.3854
54.3962
54.407
54.4178
54.4284
54.4387
54.4489
54.459
54.4691
54.4796
54.4907
54.5023
54.5139
54.5252
54.5364
54.5481
54.5599
54.5714
54.582
54.5897
54.5931
54.5951
54.5966
54.5985
54.6013
54.6057
54.6124
54.6219
54.6325
54.6439
54.6569
54.6695
54.6816
54.693
54.7035
54.713
54.7212
54.7287
54.7361
54.7435
54.7508
54.758
54.7651
54.7722
54.7792
54.7862
54.7931
54.7999
54.8066
54.8133
54.82
54.8265
54.833
54.8394
54.8457
54.852
54.8582
54.8643
54.8703
54.8762
54.8822
54.8879
54.8938
54.8992
54.9051
54.9102
54.9161
54.921
54.9268
54.9315
54.9372
54.9417
54.9472
54.9516
54.957
54.9612
54.9665
54.9706
54.9757
54.9797
54.9847
54.9885
54.9933
54.997
55.0017
55.0051
55.0095
52.7557
52.7672
52.7822
52.7979
52.8142
52.831
52.8478
52.8645
52.881
52.8974
52.9139
52.9305
52.9472
52.9639
52.9805
52.9971
53.0136
53.0301
53.0466
53.0631
53.0796
53.096
53.1124
53.1288
53.1452
53.1615
53.1778
53.1941
53.2104
53.2266
53.2428
53.2589
53.2751
53.2911
53.3071
53.3231
53.3391
53.355
53.3709
53.3867
53.4025
53.4183
53.434
53.4497
53.4653
53.4808
53.4963
53.5118
53.5272
53.5426
53.5578
53.5731
53.5882
53.6033
53.6184
53.6334
53.6483
53.6632
53.6781
53.6929
53.7076
53.7222
53.7368
53.7513
53.7658
53.7802
53.7945
53.8088
53.823
53.8371
53.8512
53.8652
53.8791
53.8929
53.9067
53.9204
53.9341
53.9477
53.9611
53.9745
53.9879
54.0011
54.0143
54.0274
54.0404
54.0534
54.0662
54.079
54.0918
54.1044
54.117
54.1296
54.142
54.1544
54.1667
54.1789
54.191
54.203
54.215
54.2269
54.2387
54.2504
54.2621
54.2736
54.2851
54.2965
54.3078
54.3191
54.3302
54.3413
54.3523
54.3633
54.3742
54.385
54.3957
54.4065
54.4173
54.428
54.4384
54.4487
54.4586
54.4684
54.4785
54.4894
54.5015
54.5139
54.5269
54.5399
54.5527
54.5651
54.5771
54.5887
54.5997
54.6088
54.6146
54.6189
54.6225
54.626
54.6298
54.6344
54.6401
54.6469
54.6548
54.6637
54.6732
54.6829
54.6925
54.7019
54.7108
54.7193
54.7274
54.7353
54.743
54.7504
54.7578
54.765
54.7721
54.7792
54.7861
54.793
54.7999
54.8066
54.8133
54.82
54.8265
54.833
54.8394
54.8457
54.852
54.8582
54.8643
54.8703
54.8762
54.8822
54.8879
54.8938
54.8992
54.9051
54.9102
54.9161
54.921
54.9268
54.9315
54.9372
54.9417
54.9472
54.9516
54.957
54.9612
54.9665
54.9706
54.9757
54.9797
54.9847
54.9885
54.9933
54.997
55.0017
55.0052
55.0098
52.7494
52.7626
52.7786
52.7949
52.8112
52.8275
52.8439
52.8605
52.8771
52.8936
52.91
52.9264
52.9429
52.9594
52.9759
52.9925
53.009
53.0256
53.042
53.0585
53.0749
53.0914
53.1078
53.1241
53.1405
53.1568
53.1731
53.1894
53.2057
53.2219
53.2381
53.2542
53.2703
53.2864
53.3024
53.3184
53.3344
53.3503
53.3662
53.382
53.3978
53.4136
53.4293
53.4449
53.4605
53.4761
53.4916
53.5071
53.5225
53.5378
53.5531
53.5683
53.5835
53.5986
53.6136
53.6287
53.6436
53.6585
53.6733
53.6881
53.7028
53.7175
53.7321
53.7466
53.761
53.7754
53.7898
53.804
53.8182
53.8323
53.8464
53.8604
53.8743
53.8882
53.902
53.9157
53.9293
53.9429
53.9563
53.9697
53.9831
53.9963
54.0095
54.0226
54.0356
54.0486
54.0615
54.0743
54.087
54.0997
54.1123
54.1248
54.1372
54.1496
54.1619
54.1741
54.1862
54.1982
54.2102
54.2221
54.2339
54.2456
54.2573
54.2689
54.2805
54.2919
54.3033
54.3145
54.3257
54.3369
54.348
54.359
54.3701
54.3812
54.3921
54.403
54.4138
54.4242
54.4344
54.4447
54.455
54.4656
54.4769
54.4887
54.5007
54.5124
54.5238
54.5352
54.5465
54.5575
54.5679
54.5773
54.5859
54.5936
54.6009
54.6078
54.6148
54.6218
54.6291
54.6366
54.6445
54.6527
54.6611
54.6696
54.6783
54.6868
54.6953
54.7035
54.7117
54.7196
54.7274
54.735
54.7426
54.75
54.7573
54.7646
54.7718
54.7789
54.7859
54.7928
54.7997
54.8065
54.8132
54.8199
54.8264
54.8329
54.8393
54.8457
54.852
54.8581
54.8643
54.8703
54.8763
54.8822
54.8879
54.8938
54.8992
54.9051
54.9103
54.916
54.9211
54.9266
54.9316
54.9371
54.9417
54.9473
54.9515
54.957
54.9612
54.9665
54.9706
54.9757
54.9796
54.9846
54.9885
54.9933
54.997
55.0017
55.0056
55.0097
52.756
52.7694
52.7846
52.8005
52.8167
52.8332
52.8497
52.8662
52.8827
52.8991
52.9156
52.9322
52.9488
52.9653
52.9818
52.9984
53.0149
53.0314
53.0479
53.0644
53.0808
53.0973
53.1137
53.1301
53.1465
53.1628
53.1792
53.1954
53.2117
53.2279
53.2441
53.2602
53.2764
53.2925
53.3085
53.3245
53.3405
53.3564
53.3723
53.3881
53.4039
53.4196
53.4353
53.451
53.4666
53.4821
53.4977
53.5131
53.5285
53.5439
53.5591
53.5744
53.5896
53.6047
53.6198
53.6348
53.6497
53.6646
53.6794
53.6942
53.7089
53.7235
53.7381
53.7527
53.7671
53.7815
53.7958
53.8101
53.8243
53.8384
53.8525
53.8665
53.8804
53.8942
53.908
53.9217
53.9353
53.9489
53.9624
53.9758
53.9892
54.0024
54.0156
54.0287
54.0417
54.0547
54.0676
54.0804
54.0931
54.1057
54.1183
54.1308
54.1432
54.1556
54.1679
54.1801
54.1922
54.2042
54.2162
54.228
54.2398
54.2515
54.2632
54.2748
54.2862
54.2976
54.3089
54.3202
54.3313
54.3424
54.3534
54.3643
54.3751
54.3858
54.3965
54.4072
54.4177
54.4281
54.4386
54.449
54.4592
54.4691
54.479
54.489
54.4991
54.5094
54.5199
54.5303
54.5408
54.5512
54.5613
54.5711
54.5805
54.5895
54.5982
54.6066
54.6148
54.623
54.6312
54.6393
54.6475
54.6557
54.6638
54.672
54.6801
54.6881
54.6961
54.704
54.7119
54.7196
54.7273
54.7349
54.7424
54.7498
54.7572
54.7644
54.7716
54.7788
54.7858
54.7928
54.7996
54.8064
54.8132
54.8198
54.8264
54.8329
54.8393
54.8457
54.8519
54.8581
54.8642
54.8703
54.8762
54.8821
54.888
54.8937
54.8994
54.9049
54.9105
54.9158
54.9213
54.9266
54.9317
54.937
54.9418
54.9471
54.9518
54.9567
54.9616
54.9661
54.9711
54.9752
54.9801
54.9844
54.9886
54.9932
54.9972
55.0014
55.0055
55.0096
52.7379
52.756
52.7729
52.7892
52.8053
52.8213
52.8373
52.8533
52.8693
52.8854
52.9016
52.9178
52.9341
52.9505
52.9669
52.9834
52.9998
53.0163
53.0328
53.0492
53.0657
53.0821
53.0985
53.1149
53.1312
53.1476
53.1639
53.1801
53.1964
53.2126
53.2288
53.245
53.2611
53.2771
53.2931
53.3091
53.3251
53.341
53.3569
53.3727
53.3885
53.4043
53.42
53.4356
53.4513
53.4668
53.4823
53.4978
53.5132
53.5285
53.5437
53.559
53.5741
53.5893
53.6043
53.6193
53.6343
53.6492
53.664
53.6788
53.6935
53.7082
53.7227
53.7373
53.7517
53.7661
53.7805
53.7948
53.809
53.8231
53.8372
53.8512
53.8651
53.879
53.8927
53.9064
53.9201
53.9336
53.9471
53.9605
53.9739
53.9871
54.0003
54.0135
54.0265
54.0395
54.0524
54.0653
54.0781
54.0909
54.1036
54.1161
54.1287
54.1411
54.1535
54.1658
54.1781
54.1903
54.2025
54.2146
54.2265
54.2385
54.2503
54.262
54.2737
54.2854
54.2971
54.3087
54.3203
54.3318
54.3432
54.3545
54.3656
54.3766
54.3873
54.3979
54.4085
54.4193
54.4303
54.4415
54.4529
54.4645
54.4762
54.4878
54.4992
54.5102
54.5209
54.5315
54.5418
54.552
54.5619
54.5715
54.5807
54.5897
54.5983
54.6067
54.6149
54.6229
54.631
54.639
54.647
54.6551
54.6632
54.6713
54.6794
54.6874
54.6954
54.7033
54.7112
54.719
54.7267
54.7344
54.7419
54.7494
54.7568
54.7641
54.7714
54.7785
54.7856
54.7926
54.7995
54.8063
54.8131
54.8198
54.8263
54.8329
54.8393
54.8456
54.8519
54.8581
54.8643
54.8702
54.8763
54.8821
54.888
54.8936
54.8995
54.9048
54.9106
54.9157
54.9215
54.9263
54.932
54.9366
54.9422
54.9467
54.9522
54.9564
54.9618
54.9659
54.9711
54.9752
54.9802
54.9841
54.989
54.9928
54.9975
55.0011
55.0057
55.0093
52.7535
52.7728
52.7897
52.8062
52.8227
52.8392
52.8558
52.8724
52.889
52.9055
52.9221
52.9387
52.9553
52.9718
52.9884
53.0049
53.0214
53.0379
53.0545
53.0709
53.0874
53.1039
53.1203
53.1368
53.1532
53.1695
53.1859
53.2022
53.2184
53.2346
53.2508
53.267
53.2831
53.2992
53.3153
53.3313
53.3472
53.3631
53.379
53.3949
53.4107
53.4264
53.4421
53.4578
53.4734
53.4889
53.5044
53.5199
53.5353
53.5506
53.5659
53.5812
53.5964
53.6115
53.6265
53.6416
53.6565
53.6714
53.6862
53.701
53.7157
53.7304
53.7449
53.7595
53.7739
53.7883
53.8026
53.8168
53.831
53.8452
53.8592
53.8732
53.8871
53.901
53.9147
53.9284
53.9421
53.9556
53.9691
53.9825
53.9958
54.0091
54.0223
54.0354
54.0485
54.0614
54.0743
54.0871
54.0998
54.1125
54.1251
54.1376
54.1501
54.1624
54.1747
54.1869
54.1991
54.2111
54.2231
54.235
54.2468
54.2585
54.2702
54.2818
54.2933
54.3047
54.316
54.3273
54.3384
54.3495
54.3606
54.3716
54.3824
54.3931
54.4038
54.4144
54.4251
54.4355
54.4456
54.4558
54.466
54.476
54.486
54.4961
54.506
54.5156
54.5248
54.5338
54.5429
54.552
54.5612
54.5708
54.581
54.5916
54.602
54.6119
54.621
54.6292
54.6368
54.6441
54.6513
54.6585
54.6658
54.6733
54.6809
54.6885
54.6962
54.7039
54.7116
54.7193
54.7269
54.7345
54.742
54.7494
54.7568
54.7641
54.7714
54.7785
54.7856
54.7926
54.7995
54.8063
54.8131
54.8197
54.8263
54.8329
54.8393
54.8456
54.8519
54.8581
54.8642
54.8703
54.8763
54.8821
54.888
54.8936
54.8995
54.9048
54.9106
54.9157
54.9215
54.9263
54.932
54.9366
54.9422
54.9467
54.9522
54.9564
54.9618
54.9659
54.9711
54.9752
54.9802
54.9841
54.989
54.9928
54.9975
55.0013
55.0054
55.0093
52.7383
52.7606
52.7779
52.7938
52.8094
52.8249
52.8404
52.8561
52.8717
52.8875
52.9033
52.9193
52.9353
52.9515
52.9678
52.9841
53.0005
53.0169
53.0333
53.0498
53.0662
53.0826
53.099
53.1154
53.1318
53.1481
53.1644
53.1807
53.197
53.2132
53.2294
53.2455
53.2617
53.2777
53.2938
53.3097
53.3257
53.3416
53.3574
53.3733
53.3891
53.4048
53.4205
53.4362
53.4518
53.4674
53.4829
53.4984
53.5138
53.5291
53.5444
53.5596
53.5748
53.5899
53.6049
53.62
53.6349
53.6498
53.6647
53.6795
53.6942
53.7089
53.7235
53.7381
53.7526
53.7671
53.7814
53.7957
53.81
53.8242
53.8383
53.8524
53.8663
53.8803
53.8941
53.9078
53.9215
53.935
53.9485
53.9619
53.9752