/*--------------------------------*- C++ -*----------------------------------*\
| =========                 |                                                 |
| \\      /  F ield         | OpenFOAM: The Open Source CFD Toolbox           |
|  \\    /   O peration     | Version:  3.0.x                                 |
|   \\  /    A nd           | Web:      www.OpenFOAM.org                      |
|    \\/     M anipulation  |                                                 |
\*---------------------------------------------------------------------------*/
FoamFile
{
    version     2.0;
    format      ascii;
    class       volScalarField;
    location    "0.499975";
    object      T;
}
// * * * * * * * * * * * * * * * * * * * * * * * * * * * * * * * * * * * * * //

dimensions      [0 0 0 1 0 0 0];

internalField   nonuniform List<scalar> 
13800
(
773.334
773.333
773.333
773.333
773.334
773.335
773.336
773.338
773.34
773.342
773.344
773.346
773.349
773.352
773.355
773.358
773.361
773.365
773.369
773.373
773.377
773.382
773.387
773.392
773.397
773.402
773.408
773.414
773.42
773.427
773.434
773.441
773.448
773.455
773.463
773.471
773.48
773.488
773.497
773.506
773.516
773.526
773.536
773.546
773.556
773.567
773.579
773.59
773.602
773.614
773.627
773.639
773.653
773.666
773.68
773.695
773.709
773.724
773.739
773.754
773.769
773.784
773.799
773.815
773.832
773.849
773.866
773.885
773.903
773.922
773.941
773.961
773.981
774.001
774.021
774.042
774.063
774.084
774.106
774.128
774.15
774.172
774.195
774.218
774.241
774.265
774.29
774.315
774.34
774.367
774.393
774.421
774.448
774.476
774.505
774.533
774.562
774.591
774.62
774.65
774.68
774.71
774.741
774.773
774.805
774.838
774.871
774.904
774.938
774.973
775.007
775.043
775.078
775.115
775.151
775.188
775.226
775.264
775.302
775.341
775.38
775.42
775.46
775.5
775.541
775.583
775.624
775.667
775.709
775.752
775.796
775.84
775.884
775.929
775.974
776.02
776.066
776.112
776.159
776.206
776.254
776.302
776.351
776.399
776.449
776.498
776.548
776.599
776.65
776.701
776.752
776.804
776.857
776.909
776.962
777.016
777.07
777.124
777.178
777.233
777.288
777.344
777.399
777.455
777.512
777.568
777.625
777.683
777.74
777.798
777.856
777.915
777.973
778.032
778.091
778.151
778.21
778.27
778.33
778.391
778.451
778.512
778.572
778.635
778.693
778.759
778.815
778.883
778.937
779.008
779.06
779.134
779.183
779.26
779.306
779.387
779.43
779.514
779.561
779.659
773.319
773.318
773.318
773.319
773.319
773.32
773.322
773.324
773.325
773.327
773.33
773.332
773.335
773.337
773.34
773.344
773.347
773.351
773.355
773.359
773.363
773.368
773.373
773.378
773.383
773.389
773.394
773.4
773.407
773.413
773.42
773.427
773.434
773.442
773.45
773.458
773.466
773.475
773.484
773.493
773.503
773.512
773.523
773.533
773.544
773.555
773.566
773.577
773.589
773.601
773.614
773.627
773.64
773.654
773.668
773.682
773.697
773.712
773.727
773.742
773.757
773.772
773.787
773.803
773.82
773.837
773.855
773.873
773.891
773.91
773.93
773.949
773.969
773.989
774.01
774.03
774.052
774.073
774.095
774.117
774.139
774.162
774.184
774.207
774.231
774.255
774.279
774.304
774.33
774.356
774.383
774.41
774.438
774.466
774.494
774.523
774.552
774.581
774.61
774.64
774.67
774.701
774.732
774.763
774.795
774.828
774.861
774.895
774.929
774.963
774.998
775.033
775.069
775.105
775.142
775.179
775.217
775.254
775.293
775.332
775.371
775.41
775.451
775.491
775.532
775.573
775.615
775.657
775.7
775.743
775.787
775.831
775.875
775.92
775.965
776.01
776.056
776.103
776.15
776.197
776.245
776.293
776.341
776.39
776.439
776.489
776.539
776.59
776.64
776.692
776.743
776.795
776.847
776.9
776.953
777.007
777.06
777.114
777.169
777.224
777.279
777.334
777.39
777.446
777.503
777.559
777.616
777.673
777.731
777.789
777.847
777.905
777.964
778.023
778.082
778.142
778.201
778.261
778.321
778.382
778.442
778.503
778.562
778.626
778.684
778.749
778.806
778.874
778.928
778.999
779.051
779.125
779.173
779.251
779.296
779.378
779.421
779.506
779.551
779.68
773.319
773.318
773.318
773.319
773.319
773.32
773.322
773.323
773.325
773.327
773.33
773.332
773.335
773.337
773.34
773.344
773.347
773.351
773.355
773.359
773.363
773.368
773.373
773.378
773.383
773.389
773.394
773.4
773.407
773.413
773.42
773.427
773.434
773.442
773.45
773.458
773.466
773.475
773.484
773.493
773.503
773.512
773.523
773.533
773.544
773.555
773.566
773.577
773.589
773.601
773.614
773.627
773.64
773.654
773.668
773.682
773.697
773.712
773.727
773.742
773.756
773.772
773.787
773.803
773.82
773.837
773.855
773.873
773.891
773.91
773.93
773.949
773.969
773.989
774.01
774.03
774.052
774.073
774.095
774.117
774.139
774.162
774.184
774.207
774.231
774.255
774.279
774.304
774.33
774.356
774.383
774.41
774.438
774.466
774.494
774.523
774.552
774.581
774.61
774.64
774.67
774.701
774.732
774.763
774.795
774.828
774.861
774.895
774.929
774.963
774.998
775.033
775.069
775.105
775.142
775.179
775.217
775.254
775.293
775.332
775.371
775.41
775.451
775.491
775.532
775.573
775.615
775.657
775.7
775.743
775.787
775.831
775.875
775.92
775.965
776.01
776.056
776.103
776.15
776.197
776.245
776.293
776.341
776.39
776.439
776.489
776.539
776.59
776.64
776.692
776.743
776.795
776.847
776.9
776.953
777.007
777.06
777.114
777.169
777.224
777.279
777.334
777.39
777.446
777.502
777.559
777.616
777.673
777.731
777.789
777.847
777.905
777.964
778.023
778.082
778.142
778.201
778.261
778.321
778.382
778.441
778.503
778.562
778.626
778.684
778.749
778.806
778.874
778.928
778.999
779.051
779.125
779.173
779.251
779.296
779.378
779.421
779.506
779.551
779.677
773.32
773.318
773.318
773.319
773.319
773.321
773.322
773.324
773.325
773.327
773.33
773.332
773.335
773.337
773.341
773.344
773.347
773.351
773.355
773.359
773.363
773.368
773.373
773.378
773.383
773.389
773.394
773.4
773.407
773.413
773.42
773.427
773.434
773.442
773.45
773.458
773.466
773.475
773.484
773.493
773.503
773.513
773.523
773.533
773.544
773.555
773.566
773.577
773.589
773.601
773.614
773.627
773.64
773.654
773.668
773.682
773.697
773.712
773.727
773.742
773.757
773.772
773.787
773.803
773.82
773.837
773.855
773.873
773.891
773.91
773.93
773.949
773.969
773.989
774.01
774.03
774.052
774.073
774.095
774.117
774.139
774.162
774.184
774.207
774.231
774.255
774.279
774.304
774.33
774.356
774.383
774.41
774.438
774.466
774.494
774.523
774.552
774.581
774.61
774.64
774.67
774.701
774.732
774.763
774.795
774.828
774.861
774.895
774.929
774.963
774.998
775.033
775.069
775.105
775.142
775.179
775.217
775.254
775.293
775.332
775.371
775.41
775.451
775.491
775.532
775.573
775.615
775.657
775.7
775.743
775.787
775.831
775.875
775.92
775.965
776.01
776.056
776.103
776.15
776.197
776.245
776.293
776.341
776.39
776.439
776.489
776.539
776.59
776.64
776.692
776.743
776.795
776.847
776.9
776.953
777.007
777.06
777.114
777.169
777.224
777.279
777.334
777.39
777.446
777.502
777.559
777.616
777.673
777.731
777.789
777.847
777.905
777.964
778.023
778.082
778.142
778.201
778.261
778.321
778.382
778.442
778.503
778.562
778.626
778.684
778.749
778.806
778.874
778.928
778.999
779.051
779.125
779.173
779.251
779.297
779.378
779.421
779.505
779.551
779.651
773.32
773.319
773.319
773.319
773.32
773.321
773.322
773.324
773.325
773.327
773.33
773.332
773.335
773.338
773.341
773.344
773.347
773.351
773.355
773.359
773.363
773.368
773.373
773.378
773.383
773.389
773.394
773.401
773.407
773.413
773.42
773.427
773.435
773.442
773.45
773.458
773.466
773.475
773.484
773.493
773.503
773.513
773.523
773.533
773.544
773.555
773.566
773.578
773.589
773.601
773.614
773.627
773.64
773.654
773.668
773.682
773.697
773.712
773.727
773.742
773.757
773.772
773.787
773.803
773.82
773.837
773.855
773.873
773.891
773.91
773.93
773.949
773.969
773.989
774.01
774.031
774.052
774.073
774.095
774.117
774.139
774.162
774.184
774.207
774.231
774.255
774.279
774.304
774.33
774.356
774.383
774.41
774.438
774.466
774.494
774.523
774.552
774.581
774.61
774.64
774.67
774.701
774.732
774.763
774.795
774.828
774.861
774.895
774.929
774.963
774.998
775.033
775.069
775.105
775.142
775.179
775.217
775.254
775.293
775.332
775.371
775.41
775.451
775.491
775.532
775.573
775.615
775.657
775.7
775.743
775.787
775.831
775.875
775.92
775.965
776.01
776.056
776.103
776.15
776.197
776.245
776.293
776.341
776.39
776.439
776.489
776.539
776.59
776.64
776.692
776.743
776.795
776.847
776.9
776.953
777.007
777.06
777.114
777.169
777.224
777.279
777.334
777.39
777.446
777.502
777.559
777.616
777.673
777.731
777.789
777.847
777.905
777.964
778.023
778.082
778.142
778.201
778.261
778.321
778.382
778.441
778.503
778.562
778.626
778.684
778.749
778.806
778.874
778.928
778.999
779.05
779.125
779.173
779.251
779.297
779.377
779.422
779.504
779.548
779.648
773.32
773.319
773.319
773.319
773.32
773.321
773.322
773.324
773.325
773.327
773.33
773.332
773.335
773.338
773.341
773.344
773.347
773.351
773.355
773.359
773.363
773.368
773.373
773.378
773.383
773.389
773.394
773.401
773.407
773.413
773.42
773.427
773.435
773.442
773.45
773.458
773.466
773.475
773.484
773.493
773.503
773.513
773.523
773.533
773.544
773.555
773.566
773.578
773.589
773.601
773.614
773.627
773.64
773.654
773.668
773.682
773.697
773.712
773.727
773.742
773.757
773.772
773.787
773.803
773.82
773.837
773.855
773.873
773.891
773.91
773.93
773.949
773.969
773.989
774.01
774.031
774.052
774.073
774.095
774.117
774.139
774.162
774.184
774.207
774.231
774.255
774.279
774.304
774.33
774.356
774.383
774.41
774.438
774.466
774.494
774.523
774.552
774.581
774.61
774.64
774.67
774.701
774.732
774.763
774.795
774.828
774.861
774.895
774.929
774.963
774.998
775.033
775.069
775.105
775.142
775.179
775.217
775.254
775.293
775.332
775.371
775.41
775.451
775.491
775.532
775.573
775.615
775.657
775.7
775.743
775.787
775.831
775.875
775.92
775.965
776.01
776.056
776.103
776.15
776.197
776.245
776.293
776.341
776.39
776.439
776.489
776.539
776.59
776.64
776.692
776.743
776.795
776.847
776.9
776.953
777.007
777.06
777.114
777.169
777.224
777.279
777.334
777.39
777.446
777.502
777.559
777.616
777.673
777.731
777.789
777.847
777.905
777.964
778.023
778.082
778.142
778.201
778.261
778.321
778.381
778.442
778.503
778.563
778.625
778.685
778.748
778.808
778.87
778.934
778.99
779.062
779.112
779.186
779.239
779.308
779.369
779.427
779.497
779.554
779.61
773.32
773.318
773.318
773.319
773.319
773.321
773.322
773.324
773.325
773.327
773.33
773.332
773.335
773.337
773.341
773.344
773.347
773.351
773.355
773.359
773.363
773.368
773.373
773.378
773.383
773.389
773.394
773.4
773.407
773.413
773.42
773.427
773.434
773.442
773.45
773.458
773.466
773.475
773.484
773.493
773.503
773.513
773.523
773.533
773.544
773.555
773.566
773.577
773.589
773.601
773.614
773.627
773.64
773.654
773.668
773.682
773.697
773.712
773.727
773.742
773.757
773.772
773.787
773.803
773.82
773.837
773.855
773.873
773.891
773.91
773.93
773.949
773.969
773.989
774.01
774.03
774.052
774.073
774.095
774.117
774.139
774.162
774.184
774.207
774.231
774.255
774.279
774.304
774.33
774.356
774.383
774.41
774.438
774.466
774.494
774.523
774.552
774.581
774.61
774.64
774.67
774.701
774.732
774.763
774.795
774.828
774.861
774.895
774.929
774.963
774.998
775.033
775.069
775.105
775.142
775.179
775.217
775.254
775.293
775.332
775.371
775.41
775.451
775.491
775.532
775.573
775.615
775.657
775.7
775.743
775.787
775.831
775.875
775.92
775.965
776.01
776.056
776.103
776.15
776.197
776.245
776.293
776.341
776.39
776.439
776.489
776.539
776.59
776.64
776.692
776.743
776.795
776.847
776.9
776.953
777.007
777.06
777.114
777.169
777.224
777.279
777.334
777.39
777.446
777.502
777.559
777.616
777.673
777.731
777.789
777.847
777.905
777.964
778.023
778.082
778.142
778.201
778.261
778.321
778.381
778.442
778.502
778.565
778.623
778.688
778.744
778.812
778.866
778.936
778.989
779.061
779.112
779.187
779.236
779.314
779.358
779.441
779.481
779.575
779.593
773.319
773.318
773.318
773.319
773.319
773.32
773.322
773.323
773.325
773.327
773.33
773.332
773.335
773.337
773.34
773.344
773.347
773.351
773.355
773.359
773.363
773.368
773.373
773.378
773.383
773.389
773.394
773.4
773.407
773.413
773.42
773.427
773.434
773.442
773.45
773.458
773.466
773.475
773.484
773.493
773.503
773.512
773.523
773.533
773.544
773.555
773.566
773.577
773.589
773.601
773.614
773.627
773.64
773.654
773.668
773.682
773.697
773.712
773.727
773.742
773.756
773.772
773.787
773.803
773.82
773.837
773.855
773.873
773.891
773.91
773.93
773.949
773.969
773.989
774.01
774.03
774.052
774.073
774.095
774.117
774.139
774.162
774.184
774.207
774.231
774.255
774.279
774.304
774.33
774.356
774.383
774.41
774.438
774.466
774.494
774.523
774.552
774.581
774.61
774.64
774.67
774.701
774.732
774.763
774.795
774.828
774.861
774.895
774.929
774.963
774.998
775.033
775.069
775.105
775.142
775.179
775.217
775.254
775.293
775.332
775.371
775.41
775.451
775.491
775.532
775.573
775.615
775.657
775.7
775.743
775.787
775.831
775.875
775.92
775.965
776.01
776.056
776.103
776.15
776.197
776.245
776.293
776.341
776.39
776.439
776.489
776.539
776.59
776.64
776.692
776.743
776.795
776.847
776.9
776.953
777.007
777.06
777.114
777.169
777.224
777.279
777.334
777.39
777.446
777.502
777.559
777.616
777.673
777.731
777.789
777.847
777.905
777.964
778.023
778.082
778.142
778.201
778.261
778.321
778.381
778.442
778.502
778.565
778.623
778.688
778.744
778.812
778.866
778.937
778.989
779.062
779.111
779.188
779.235
779.314
779.358
779.441
779.48
779.587
779.516
773.319
773.318
773.318
773.319
773.319
773.32
773.322
773.324
773.325
773.327
773.33
773.332
773.335
773.337
773.34
773.344
773.347
773.351
773.355
773.359
773.363
773.368
773.373
773.378
773.383
773.389
773.394
773.4
773.407
773.413
773.42
773.427
773.434
773.442
773.45
773.458
773.466
773.475
773.484
773.493
773.503
773.512
773.523
773.533
773.544
773.555
773.566
773.577
773.589
773.601
773.614
773.627
773.64
773.654
773.668
773.682
773.697
773.712
773.727
773.742
773.757
773.772
773.787
773.803
773.82
773.837
773.855
773.873
773.891
773.91
773.93
773.949
773.969
773.989
774.01
774.03
774.052
774.073
774.095
774.117
774.139
774.162
774.184
774.207
774.231
774.255
774.279
774.304
774.33
774.356
774.383
774.41
774.438
774.466
774.494
774.523
774.552
774.581
774.61
774.64
774.67
774.701
774.732
774.763
774.795
774.828
774.861
774.895
774.929
774.963
774.998
775.033
775.069
775.105
775.142
775.179
775.217
775.254
775.293
775.332
775.371
775.41
775.451
775.491
775.532
775.573
775.615
775.657
775.7
775.743
775.787
775.831
775.875
775.92
775.965
776.01
776.056
776.103
776.15
776.197
776.245
776.293
776.341
776.39
776.439
776.489
776.539
776.59
776.64
776.692
776.743
776.795
776.847
776.9
776.953
777.007
777.06
777.114
777.169
777.224
777.279
777.334
777.39
777.446
777.503
777.559
777.616
777.673
777.731
777.789
777.847
777.905
777.964
778.023
778.082
778.142
778.201
778.261
778.321
778.381
778.442
778.502
778.565
778.623
778.688
778.744
778.812
778.866
778.937
778.988
779.063
779.111
779.188
779.235
779.314
779.358
779.441
779.48
779.594
779.459
773.334
773.333
773.333
773.333
773.334
773.335
773.336
773.338
773.34
773.342
773.344
773.346
773.349
773.352
773.355
773.358
773.361
773.365
773.369
773.373
773.377
773.382
773.387
773.392
773.397
773.402
773.408
773.414
773.42
773.427
773.434
773.441
773.448
773.455
773.463
773.471
773.48
773.488
773.497
773.506
773.516
773.526
773.536
773.546
773.556
773.567
773.579
773.59
773.602
773.614
773.627
773.639
773.653
773.666
773.68
773.695
773.709
773.724
773.739
773.754
773.769
773.784
773.799
773.815
773.832
773.849
773.866
773.885
773.903
773.922
773.941
773.961
773.981
774.001
774.021
774.042
774.063
774.084
774.106
774.128
774.15
774.172
774.195
774.218
774.241
774.265
774.29
774.315
774.34
774.367
774.393
774.421
774.448
774.476
774.505
774.533
774.562
774.591
774.62
774.65
774.68
774.71
774.741
774.773
774.805
774.838
774.871
774.904
774.938
774.973
775.007
775.043
775.078
775.115
775.151
775.188
775.226
775.264
775.302
775.341
775.38
775.42
775.46
775.5
775.541
775.583
775.624
775.667
775.709
775.752
775.796
775.84
775.884
775.929
775.974
776.02
776.066
776.112
776.159
776.206
776.254
776.302
776.351
776.399
776.449
776.498
776.548
776.599
776.65
776.701
776.752
776.804
776.857
776.909
776.962
777.016
777.07
777.124
777.178
777.233
777.288
777.344
777.399
777.455
777.512
777.568
777.625
777.683
777.74
777.798
777.856
777.915
777.973
778.032
778.091
778.151
778.211
778.27
778.331
778.39
778.452
778.511
778.574
778.632
778.697
778.753
778.822
778.875
778.946
778.998
779.072
779.12
779.198
779.243
779.324
779.367
779.451
779.488
779.609
779.412
779.746
779.777
779.794
779.807
779.82
779.833
779.846
779.859
779.871
779.885
779.9
779.912
779.924
779.935
779.945
779.953
779.96
779.966
779.97
779.963
779.73
779.76
779.779
779.792
779.804
779.816
779.826
779.836
779.847
779.859
779.872
779.883
779.893
779.903
779.914
779.923
779.933
779.941
779.948
779.945
779.727
779.758
779.779
779.794
779.806
779.819
779.83
779.839
779.849
779.857
779.868
779.878
779.887
779.898
779.907
779.917
779.926
779.933
779.941
779.94
779.702
779.722
779.741
779.755
779.772
779.787
779.802
779.817
779.83
779.844
779.861
779.874
779.885
779.897
779.91
779.92
779.934
779.942
779.952
779.956
779.68
779.702
779.721
779.735
779.75
779.763
779.774
779.785
779.796
779.805
779.814
779.823
779.832
779.839
779.847
779.853
779.861
779.867
779.877
779.886
779.645
779.651
779.658
779.667
779.678
779.69
779.704
779.718
779.737
779.752
779.772
779.79
779.809
779.83
779.851
779.87
779.893
779.911
779.931
779.946
779.617
779.625
779.632
779.642
779.649
779.656
779.661
779.667
779.669
779.679
779.679
779.684
779.688
779.691
779.696
779.702
779.71
779.719
779.734
779.751
779.553
779.545
779.545
779.551
779.559
779.568
779.577
779.588
779.6
779.615
779.631
779.649
779.673
779.691
779.713
779.736
779.761
779.785
779.812
779.835
779.502
779.495
779.49
779.493
779.498
779.503
779.509
779.516
779.524
779.533
779.542
779.551
779.566
779.577
779.593
779.61
779.629
779.652
779.678
779.708
779.477
779.463
779.45
779.451
779.457
779.466
779.475
779.488
779.503
779.52
779.538
779.558
779.58
779.603
779.626
779.653
779.68
779.711
779.744
779.781
779.984
780.003
780.046
780.095
780.14
780.183
780.227
780.275
780.325
780.376
780.426
780.474
780.521
780.568
780.616
780.665
780.713
780.762
780.811
780.859
780.908
780.956
781.004
781.053
781.101
781.15
781.198
781.246
781.293
781.341
781.389
781.437
781.484
781.532
781.579
781.627
781.674
781.72
781.767
781.813
781.859
781.905
781.951
781.997
782.043
782.089
782.134
782.179
782.224
782.269
782.315
782.359
782.404
782.449
782.493
782.537
782.58
782.624
782.667
782.71
782.753
782.796
782.839
782.881
782.924
782.966
783.007
783.049
783.09
783.131
783.173
783.213
783.254
783.294
783.334
783.374
783.413
783.453
783.493
783.532
783.571
783.61
783.649
783.687
783.725
783.762
783.8
783.837
783.874
783.911
783.948
783.984
784.02
784.056
784.091
784.127
784.163
784.198
784.232
784.267
784.301
784.335
784.369
784.403
784.437
784.47
784.502
784.534
784.565
784.597
784.63
784.662
784.693
784.722
784.75
784.776
784.8
784.825
784.852
784.882
784.915
784.943
784.956
784.959
784.966
784.99
785.078
785.375
785.907
786.46
786.987
787.452
787.83
788.102
788.258
788.311
788.309
788.258
788.003
787.389
786.805
786.337
785.999
785.779
785.648
785.575
785.535
785.519
785.524
785.563
785.611
785.65
785.684
785.714
785.742
785.767
785.791
785.814
785.836
785.857
785.878
785.899
785.919
785.939
785.958
785.977
785.996
786.014
786.032
786.05
786.068
786.085
786.103
786.119
786.137
786.152
786.171
786.183
786.204
786.213
786.236
786.244
786.266
786.273
786.296
786.302
786.324
786.33
786.352
786.357
786.379
786.384
786.405
786.409
786.43
786.434
786.455
786.457
786.484
786.487
779.967
779.984
780.024
780.073
780.12
780.163
780.206
780.252
780.3
780.35
780.4
780.449
780.496
780.543
780.59
780.638
780.687
780.735
780.784
780.832
780.881
780.929
780.977
781.026
781.074
781.122
781.17
781.218
781.266
781.314
781.361
781.409
781.456
781.504
781.551
781.599
781.646
781.693
781.739
781.785
781.831
781.877
781.923
781.969
782.015
782.061
782.106
782.151
782.196
782.241
782.286
782.331
782.376
782.42
782.465
782.509
782.552
782.596
782.639
782.682
782.725
782.767
782.81
782.853
782.895
782.937
782.979
783.02
783.062
783.103
783.144
783.185
783.225
783.266
783.306
783.345
783.385
783.424
783.463
783.503
783.542
783.581
783.619
783.658
783.696
783.733
783.771
783.808
783.845
783.882
783.919
783.955
783.991
784.027
784.062
784.098
784.133
784.168
784.203
784.238
784.272
784.306
784.34
784.374
784.407
784.44
784.473
784.506
784.539
784.571
784.603
784.635
784.665
784.695
784.725
784.753
784.78
784.809
784.839
784.871
784.903
784.932
784.955
784.968
784.972
784.975
784.982
784.988
784.984
784.978
784.975
784.983
785.032
785.14
785.268
785.401
785.527
785.637
785.725
785.777
785.786
785.78
785.759
785.716
785.675
785.642
785.616
785.602
785.602
785.618
785.643
785.667
785.691
785.715
785.738
785.762
785.784
785.806
785.828
785.849
785.87
785.891
785.911
785.93
785.95
785.969
785.988
786.006
786.024
786.042
786.06
786.077
786.095
786.111
786.129
786.143
786.163
786.174
786.196
786.205
786.228
786.236
786.258
786.265
786.288
786.294
786.316
786.322
786.344
786.349
786.37
786.376
786.396
786.401
786.422
786.426
786.446
786.45
786.472
786.48
779.964
779.982
780.025
780.076
780.123
780.167
780.21
780.256
780.305
780.356
780.405
780.453
780.5
780.547
780.595
780.643
780.691
780.74
780.788
780.837
780.885
780.934
780.982
781.03
781.079
781.127
781.175
781.223
781.271
781.318
781.366
781.413
781.461
781.508
781.556
781.603
781.65
781.697
781.744
781.79
781.836
781.882
781.928
781.974
782.02
782.065
782.111
782.156
782.201
782.246
782.291
782.335
782.38
782.425
782.469
782.513
782.557
782.6
782.643
782.686
782.729
782.772
782.815
782.857
782.9
782.942
782.983
783.025
783.066
783.107
783.148
783.189
783.23
783.27
783.31
783.35
783.389
783.429
783.468
783.507
783.546
783.585
783.624
783.662
783.7
783.738
783.775
783.813
783.85
783.887
783.923
783.959
783.995
784.031
784.066
784.102
784.137
784.172
784.207
784.242
784.276
784.31
784.344
784.378
784.412
784.445
784.478
784.511
784.543
784.576
784.608
784.639
784.67
784.701
784.731
784.76
784.787
784.814
784.843
784.874
784.908
784.943
784.972
784.987
784.984
784.975
784.957
784.937
784.918
784.904
784.893
784.887
784.889
784.915
784.987
785.08
785.181
785.283
785.378
785.459
785.525
785.572
785.602
785.618
785.623
785.623
785.623
785.625
785.633
785.645
785.66
785.679
785.699
785.72
785.742
785.764
785.786
785.807
785.829
785.85
785.87
785.891
785.911
785.93
785.95
785.969
785.988
786.006
786.024
786.042
786.06
786.077
786.095
786.111
786.129
786.143
786.163
786.174
786.196
786.205
786.228
786.235
786.258
786.265
786.288
786.294
786.316
786.322
786.344
786.349
786.37
786.376
786.396
786.401
786.422
786.426
786.446
786.45
786.47
786.476
779.984
780.018
780.061
780.112
780.164
780.217
780.267
780.315
780.363
780.412
780.463
780.514
780.564
780.613
780.662
780.71
780.759
780.807
780.856
780.905
780.953
781.002
781.051
781.099
781.147
781.196
781.244
781.292
781.34
781.387
781.435
781.482
781.53
781.578
781.625
781.672
781.719
781.766
781.813
781.859
781.905
781.951
781.997
782.043
782.089
782.134
782.18
782.225
782.27
782.315
782.36
782.405
782.45
782.494
782.538
782.582
782.626
782.669
782.712
782.756
782.799
782.842
782.884
782.927
782.969
783.011
783.052
783.094
783.136
783.177
783.218
783.258
783.299
783.339
783.379
783.419
783.458
783.498
783.538
783.577
783.616
783.655
783.693
783.731
783.769
783.807
783.845
783.882
783.919
783.955
783.992
784.028
784.064
784.1
784.136
784.171
784.207
784.242
784.276
784.311
784.345
784.379
784.413
784.446
784.479
784.511
784.544
784.577
784.609
784.64
784.67
784.701
784.729
784.756
784.784
784.811
784.838
784.869
784.901
784.932
784.96
784.982
784.994
784.996
784.996
784.997
785.001
785.004
785.007
785.013
785.026
785.05
785.087
785.133
785.185
785.239
785.292
785.343
785.388
785.428
785.462
785.49
785.513
785.532
785.55
785.567
785.584
785.601
785.62
785.64
785.661
785.683
785.704
785.726
785.748
785.769
785.79
785.811
785.832
785.853
785.873
785.893
785.912
785.932
785.951
785.97
785.988
786.006
786.025
786.042
786.06
786.077
786.095
786.111
786.129
786.144
786.163
786.175
786.195
786.206
786.226
786.238
786.256
786.266
786.287
786.293
786.317
786.322
786.343
786.349
786.37
786.375
786.397
786.401
786.421
786.426
786.446
786.45
786.465
786.477
779.906
779.956
780.002
780.046
780.091
780.136
780.182
780.231
780.281
780.331
780.38
780.428
780.477
780.525
780.574
780.623
780.672
780.721
780.77
780.818
780.866
780.915
780.963
781.011
781.059
781.107
781.155
781.203
781.251
781.299
781.347
781.394
781.442
781.489
781.536
781.583
781.63
781.677
781.724
781.77
781.817
781.863
781.909
781.955
782.001
782.046
782.092
782.137
782.182
782.227
782.272
782.316
782.361
782.405
782.449
782.493
782.537
782.58
782.624
782.667
782.71
782.753
782.795
782.838
782.88
782.922
782.964
783.006
783.047
783.088
783.129
783.17
783.211
783.251
783.291
783.331
783.371
783.41
783.449
783.488
783.527
783.566
783.604
783.642
783.68
783.718
783.756
783.793
783.83
783.867
783.904
783.941
783.977
784.013
784.049
784.084
784.119
784.155
784.19
784.225
784.259
784.293
784.328
784.361
784.395
784.428
784.461
784.494
784.527
784.559
784.592
784.625
784.657
784.688
784.72
784.751
784.782
784.812
784.841
784.87
784.9
784.932
784.964
784.994
785.019
785.04
785.058
785.075
785.089
785.104
785.121
785.141
785.165
785.193
785.224
785.257
785.292
785.325
785.358
785.389
785.419
785.447
785.473
785.499
785.523
785.547
785.571
785.594
785.617
785.64
785.662
785.685
785.707
785.728
785.75
785.771
785.792
785.813
785.834
785.854
785.874
785.893
785.913
785.932
785.951
785.97
785.988
786.007
786.025
786.042
786.06
786.077
786.095
786.112
786.128
786.145
786.16
786.178
786.192
786.21
786.223
786.239
786.255
786.267
786.286
786.296
786.313
786.326
786.338
786.355
786.363
786.382
786.39
786.405
786.419
786.428
786.442
786.454
786.466
786.476
779.987
780.053
780.119
780.184
780.246
780.305
780.363
780.42
780.477
780.532
780.587
780.64
780.692
780.744
780.794
780.844
780.894
780.943
780.992
781.041
781.09
781.138
781.187
781.235
781.284
781.332
781.38
781.428
781.476
781.523
781.571
781.619
781.666
781.714
781.761
781.809
781.856
781.903
781.949
781.995
782.042
782.088
782.134
782.179
782.225
782.27
782.316
782.361
782.406
782.452
782.497
782.541
782.586
782.63
782.674
782.718
782.762
782.805
782.849
782.892
782.935
782.977
783.02
783.062
783.104
783.146
783.188
783.229
783.27
783.311
783.352
783.393
783.433
783.474
783.514
783.554
783.593
783.633
783.672
783.711
783.75
783.788
783.826
783.864
783.902
783.939
783.976
784.012
784.048
784.083
784.118
784.154
784.189
784.223
784.258
784.291
784.324
784.356
784.388
784.42
784.452
784.483
784.515
784.546
784.576
784.605
784.633
784.661
784.688
784.714
784.74
784.767
784.795
784.823
784.854
784.884
784.914
784.94
784.961
784.978
784.99
784.999
785.004
785.01
785.018
785.029
785.043
785.058
785.075
785.092
785.112
785.135
785.161
785.19
785.222
785.256
785.291
785.327
785.361
785.394
785.425
785.455
785.482
785.509
785.534
785.558
785.581
785.604
785.627
785.649
785.671
785.692
785.714
785.735
785.755
785.776
785.796
785.816
785.836
785.856
785.876
785.895
785.914
785.933
785.952
785.971
785.989
786.007
786.025
786.043
786.06
786.078
786.094
786.113
786.127
786.146
786.159
786.179
786.191
786.211
786.221
786.243
786.251
786.273
786.28
786.302
786.308
786.33
786.336
786.357
786.362
786.384
786.388
786.409
786.414
786.434
786.438
786.458
786.462
786.48
779.803
779.855
779.903
779.949
779.995
780.043
780.09
780.138
780.186
780.234
780.283
780.331
780.38
780.429
780.478
780.527
780.575
780.624
780.673
780.721
780.769
780.818
780.866
780.913
780.961
781.009
781.057
781.105
781.153
781.2
781.248
781.295
781.343
781.39
781.437
781.484
781.531
781.578
781.624
781.671
781.717
781.763
781.809
781.855
781.901
781.947
781.993
782.038
782.083
782.128
782.173
782.217
782.262
782.306
782.35
782.394
782.438
782.481
782.525
782.568
782.611
782.654
782.696
782.739
782.781
782.823
782.865
782.907
782.949
782.99
783.031
783.072
783.112
783.153
783.193
783.233
783.273
783.313
783.352
783.391
783.43
783.468
783.507
783.545
783.583
783.621
783.658
783.696
783.733
783.77
783.806
783.843
783.878
783.914
783.95
783.985
784.021
784.056
784.09
784.125
784.159
784.193
784.227
784.26
784.294
784.327
784.36
784.393
784.426
784.458
784.489
784.52
784.553
784.585
784.617
784.647
784.676
784.707
784.741
784.773
784.803
784.833
784.864
784.892
784.919
784.952
784.988
785.025
785.06
785.093
785.123
785.145
785.157
785.163
785.169
785.181
785.203
785.237
785.277
785.321
785.365
785.406
785.445
785.48
785.512
785.542
785.57
785.596
785.621
785.645
785.668
785.691
785.713
785.734
785.755
785.776
785.796
785.816
785.836
785.856
785.876
785.895
785.914
785.933
785.952
785.971
785.989
786.007
786.025
786.043
786.06
786.078
786.094
786.112
786.127
786.146
786.159
786.179
786.191
786.211
786.221
786.242
786.251
786.273
786.28
786.302
786.308
786.33
786.336
786.357
786.362
786.383
786.388
786.409
786.414
786.433
786.438
786.455
786.466
786.478
779.917
779.989
780.058
780.125
780.19
780.254
780.316
780.379
780.44
780.501
780.56
780.618
780.674
780.728
780.781
780.833
780.884
780.934
780.983
781.033
781.081
781.13
781.179
781.227
781.275
781.323
781.372
781.42
781.468
781.515
781.563
781.61
781.657
781.705
781.752
781.799
781.847
781.894
781.941
781.987
782.033
782.079
782.125
782.171
782.217
782.262
782.307
782.352
782.397
782.442
782.487
782.532
782.577
782.621
782.665
782.709
782.752
782.795
782.838
782.881
782.924
782.966
783.008
783.05
783.091
783.133
783.174
783.215
783.255
783.296
783.336
783.375
783.415
783.454
783.494
783.533
783.573
783.612
783.651
783.691
783.73
783.769
783.808
783.846
783.885
783.923
783.96
783.997
784.033
784.07
784.106
784.141
784.176
784.211
784.245
784.279
784.313
784.346
784.379
784.411
784.442
784.472
784.501
784.53
784.558