/*--------------------------------*- C++ -*----------------------------------*\
| =========                 |                                                 |
| \\      /  F ield         | OpenFOAM: The Open Source CFD Toolbox           |
|  \\    /   O peration     | Version:  3.0.x                                 |
|   \\  /    A nd           | Web:      www.OpenFOAM.org                      |
|    \\/     M anipulation  |                                                 |
\*---------------------------------------------------------------------------*/
FoamFile
{
    version     2.0;
    format      ascii;
    class       volScalarField;
    location    "0.15";
    object      rho;
}
// * * * * * * * * * * * * * * * * * * * * * * * * * * * * * * * * * * * * * //

dimensions      [1 -3 0 0 0 0 0];

internalField   nonuniform List<scalar> 
6900
(
50.648
50.6482
50.6485
50.6486
50.6486
50.6485
50.6484
50.6482
50.6481
50.648
50.648
50.648
50.648
50.648
50.6479
50.6478
50.6476
50.6474
50.6473
50.6471
50.647
50.6469
50.6468
50.6467
50.6466
50.6466
50.6466
50.6466
50.6466
50.6467
50.6468
50.6469
50.647
50.6471
50.6473
50.6475
50.6477
50.6479
50.6481
50.6484
50.6486
50.6489
50.6492
50.6496
50.6499
50.6503
50.6507
50.6511
50.6516
50.6521
50.6526
50.6532
50.6538
50.6544
50.6551
50.6558
50.6566
50.6573
50.6581
50.659
50.6598
50.6607
50.6616
50.6625
50.6634
50.6644
50.6653
50.6662
50.6671
50.668
50.6688
50.6696
50.6704
50.6712
50.6719
50.6726
50.6733
50.6739
50.6744
50.675
50.6755
50.6759
50.6764
50.6768
50.6772
50.6775
50.6779
50.6783
50.6786
50.679
50.6793
50.6797
50.6801
50.6805
50.681
50.6814
50.6819
50.6824
50.683
50.6835
50.6841
50.6847
50.6854
50.686
50.6867
50.6874
50.6881
50.6887
50.6894
50.69
50.6907
50.6913
50.6919
50.6924
50.6929
50.6934
50.6938
50.6941
50.6944
50.6947
50.6949
50.6951
50.6952
50.6952
50.6952
50.6952
50.6951
50.695
50.6948
50.6946
50.6944
50.6941
50.6939
50.6936
50.6933
50.6929
50.6926
50.6922
50.6919
50.6916
50.6912
50.6908
50.6905
50.6901
50.6897
50.6894
50.689
50.6886
50.6881
50.6877
50.6872
50.6867
50.6862
50.6856
50.685
50.6844
50.6838
50.6832
50.6826
50.6819
50.6813
50.6806
50.6799
50.6792
50.6785
50.6779
50.6772
50.6765
50.6759
50.6753
50.6747
50.6741
50.6735
50.673
50.6725
50.6721
50.6717
50.6713
50.671
50.6707
50.6704
50.6702
50.6699
50.6697
50.6694
50.6691
50.6688
50.6684
50.668
50.6675
50.6671
50.6665
50.666
50.6654
50.6649
50.6642
50.6637
50.6631
50.6629
50.6597
50.6481
50.6483
50.6485
50.6487
50.6487
50.6486
50.6485
50.6483
50.6482
50.648
50.648
50.6481
50.6481
50.648
50.6479
50.6478
50.6477
50.6475
50.6473
50.6472
50.647
50.6469
50.6468
50.6467
50.6467
50.6466
50.6466
50.6466
50.6467
50.6467
50.6468
50.6469
50.647
50.6472
50.6473
50.6475
50.6477
50.6479
50.6482
50.6484
50.6487
50.649
50.6493
50.6496
50.65
50.6503
50.6507
50.6512
50.6516
50.6521
50.6527
50.6532
50.6538
50.6545
50.6552
50.6559
50.6566
50.6574
50.6582
50.659
50.6599
50.6608
50.6617
50.6626
50.6635
50.6644
50.6653
50.6662
50.6671
50.668
50.6689
50.6697
50.6705
50.6712
50.672
50.6727
50.6733
50.6739
50.6745
50.675
50.6755
50.676
50.6764
50.6768
50.6772
50.6776
50.678
50.6783
50.6787
50.679
50.6794
50.6798
50.6802
50.6806
50.681
50.6815
50.682
50.6825
50.683
50.6836
50.6842
50.6848
50.6854
50.6861
50.6868
50.6874
50.6881
50.6888
50.6894
50.6901
50.6907
50.6913
50.6919
50.6924
50.6929
50.6934
50.6938
50.6942
50.6945
50.6948
50.695
50.6951
50.6952
50.6953
50.6953
50.6953
50.6952
50.695
50.6949
50.6947
50.6944
50.6942
50.6939
50.6936
50.6933
50.693
50.6926
50.6923
50.6919
50.6916
50.6912
50.6909
50.6905
50.6902
50.6898
50.6894
50.689
50.6886
50.6882
50.6877
50.6872
50.6867
50.6862
50.6857
50.6851
50.6845
50.6839
50.6833
50.6826
50.682
50.6813
50.6806
50.68
50.6793
50.6786
50.6779
50.6772
50.6766
50.6759
50.6753
50.6747
50.6741
50.6736
50.6731
50.6726
50.6722
50.6718
50.6714
50.6711
50.6708
50.6705
50.6702
50.67
50.6697
50.6694
50.6691
50.6688
50.6684
50.668
50.6676
50.6671
50.6666
50.666
50.6655
50.6649
50.6643
50.6638
50.6632
50.663
50.66
50.6481
50.6483
50.6485
50.6487
50.6487
50.6486
50.6485
50.6483
50.6482
50.648
50.648
50.648
50.6481
50.648
50.6479
50.6478
50.6477
50.6475
50.6473
50.6472
50.647
50.6469
50.6468
50.6467
50.6467
50.6466
50.6466
50.6466
50.6467
50.6467
50.6468
50.6469
50.647
50.6472
50.6473
50.6475
50.6477
50.6479
50.6482
50.6484
50.6487
50.649
50.6493
50.6496
50.65
50.6503
50.6507
50.6512
50.6516
50.6521
50.6527
50.6532
50.6538
50.6545
50.6552
50.6559
50.6566
50.6574
50.6582
50.659
50.6599
50.6608
50.6617
50.6626
50.6635
50.6644
50.6653
50.6662
50.6671
50.668
50.6689
50.6697
50.6705
50.6712
50.672
50.6727
50.6733
50.6739
50.6745
50.675
50.6755
50.676
50.6764
50.6768
50.6772
50.6776
50.678
50.6783
50.6787
50.679
50.6794
50.6798
50.6802
50.6806
50.681
50.6815
50.682
50.6825
50.683
50.6836
50.6842
50.6848
50.6854
50.6861
50.6868
50.6874
50.6881
50.6888
50.6894
50.6901
50.6907
50.6913
50.6919
50.6924
50.6929
50.6934
50.6938
50.6942
50.6945
50.6948
50.695
50.6951
50.6952
50.6953
50.6953
50.6953
50.6952
50.695
50.6949
50.6947
50.6944
50.6942
50.6939
50.6936
50.6933
50.693
50.6926
50.6923
50.6919
50.6916
50.6912
50.6909
50.6905
50.6902
50.6898
50.6894
50.689
50.6886
50.6882
50.6877
50.6872
50.6867
50.6862
50.6857
50.6851
50.6845
50.6839
50.6833
50.6826
50.682
50.6813
50.6806
50.68
50.6793
50.6786
50.6779
50.6772
50.6766
50.6759
50.6753
50.6747
50.6741
50.6736
50.6731
50.6726
50.6722
50.6718
50.6714
50.6711
50.6708
50.6705
50.6702
50.67
50.6697
50.6694
50.6691
50.6688
50.6684
50.668
50.6676
50.6671
50.6666
50.666
50.6655
50.6649
50.6643
50.6638
50.6631
50.6627
50.662
50.6481
50.6483
50.6485
50.6487
50.6487
50.6486
50.6485
50.6483
50.6482
50.648
50.648
50.6481
50.6481
50.648
50.6479
50.6478
50.6477
50.6475
50.6473
50.6472
50.647
50.6469
50.6468
50.6467
50.6467
50.6466
50.6466
50.6466
50.6467
50.6467
50.6468
50.6469
50.647
50.6472
50.6473
50.6475
50.6477
50.6479
50.6482
50.6484
50.6487
50.649
50.6493
50.6496
50.65
50.6503
50.6507
50.6512
50.6516
50.6521
50.6527
50.6532
50.6538
50.6545
50.6552
50.6559
50.6566
50.6574
50.6582
50.659
50.6599
50.6608
50.6617
50.6626
50.6635
50.6644
50.6653
50.6662
50.6671
50.668
50.6689
50.6697
50.6705
50.6712
50.672
50.6727
50.6733
50.6739
50.6745
50.675
50.6755
50.676
50.6764
50.6768
50.6772
50.6776
50.678
50.6783
50.6787
50.679
50.6794
50.6798
50.6802
50.6806
50.681
50.6815
50.682
50.6825
50.683
50.6836
50.6842
50.6848
50.6854
50.6861
50.6868
50.6874
50.6881
50.6888
50.6894
50.6901
50.6907
50.6913
50.6919
50.6924
50.6929
50.6934
50.6938
50.6942
50.6945
50.6948
50.695
50.6951
50.6952
50.6953
50.6953
50.6953
50.6952
50.695
50.6949
50.6947
50.6944
50.6942
50.6939
50.6936
50.6933
50.693
50.6926
50.6923
50.6919
50.6916
50.6912
50.6909
50.6905
50.6902
50.6898
50.6894
50.689
50.6886
50.6882
50.6877
50.6872
50.6867
50.6862
50.6857
50.6851
50.6845
50.6839
50.6833
50.6826
50.682
50.6813
50.6806
50.68
50.6793
50.6786
50.6779
50.6772
50.6766
50.6759
50.6753
50.6747
50.6741
50.6736
50.6731
50.6726
50.6722
50.6718
50.6714
50.6711
50.6708
50.6705
50.6702
50.67
50.6697
50.6694
50.6691
50.6688
50.6684
50.668
50.6676
50.6671
50.6666
50.666
50.6655
50.6649
50.6643
50.6637
50.6633
50.6618
50.6669
50.648
50.6482
50.6485
50.6486
50.6486
50.6485
50.6484
50.6482
50.6481
50.648
50.648
50.648
50.648
50.648
50.6479
50.6478
50.6476
50.6474
50.6473
50.6471
50.647
50.6469
50.6468
50.6467
50.6466
50.6466
50.6466
50.6466
50.6466
50.6467
50.6468
50.6469
50.647
50.6471
50.6473
50.6475
50.6477
50.6479
50.6481
50.6484
50.6486
50.6489
50.6492
50.6496
50.6499
50.6503
50.6507
50.6511
50.6516
50.6521
50.6526
50.6532
50.6538
50.6544
50.6551
50.6558
50.6566
50.6573
50.6581
50.659
50.6598
50.6607
50.6616
50.6625
50.6634
50.6644
50.6653
50.6662
50.6671
50.668
50.6688
50.6696
50.6704
50.6712
50.6719
50.6726
50.6733
50.6739
50.6744
50.675
50.6755
50.6759
50.6764
50.6768
50.6772
50.6775
50.6779
50.6783
50.6786
50.679
50.6793
50.6797
50.6801
50.6805
50.681
50.6814
50.6819
50.6824
50.683
50.6835
50.6841
50.6847
50.6854
50.686
50.6867
50.6874
50.6881
50.6887
50.6894
50.69
50.6907
50.6913
50.6919
50.6924
50.6929
50.6934
50.6938
50.6941
50.6944
50.6947
50.6949
50.6951
50.6952
50.6952
50.6952
50.6952
50.6951
50.695
50.6948
50.6946
50.6944
50.6941
50.6939
50.6936
50.6933
50.6929
50.6926
50.6922
50.6919
50.6916
50.6912
50.6908
50.6905
50.6901
50.6897
50.6894
50.689
50.6886
50.6881
50.6877
50.6872
50.6867
50.6862
50.6856
50.685
50.6844
50.6838
50.6832
50.6826
50.6819
50.6813
50.6806
50.6799
50.6792
50.6785
50.6779
50.6772
50.6765
50.6759
50.6753
50.6746
50.6741
50.6735
50.673
50.6725
50.6721
50.6717
50.6714
50.671
50.6707
50.6704
50.6702
50.6699
50.6697
50.6694
50.6691
50.6688
50.6684
50.668
50.6675
50.6671
50.6665
50.666
50.6654
50.6648
50.6643
50.6637
50.6633
50.6613
50.6721
50.6766
50.6828
50.6834
50.6816
50.6801
50.679
50.6783
50.6767
50.6724
50.6659
50.6602
50.6558
50.6527
50.6556
50.6645
50.6707
50.6658
50.6499
50.6265
50.606
50.6732
50.6763
50.676
50.6744
50.6729
50.6719
50.6714
50.6697
50.665
50.6584
50.653
50.6489
50.646
50.649
50.6592
50.6636
50.656
50.6358
50.6115
50.5928
50.6624
50.6622
50.661
50.659
50.6562
50.6527
50.6485
50.6437
50.6384
50.6326
50.6257
50.6177
50.6088
50.5988
50.5878
50.5772
50.568
50.5603
50.5527
50.5434
50.641
50.6382
50.6389
50.64
50.6388
50.6351
50.6301
50.6232
50.6174
50.6103
50.6037
50.597
50.591
50.5851
50.5792
50.5739
50.5688
50.5644
50.5612
50.559
50.6318
50.6203
50.6159
50.6151
50.6128
50.608
50.6018
50.5939
50.5867
50.5782
50.5706
50.5625
50.5551
50.5478
50.5411
50.5344
50.5286
50.5233
50.5196
50.5177
50.555
50.5533
50.5595
50.5522
50.5486
50.5478
50.5478
50.5469
50.546
50.5458
50.5456
50.5453
50.5451
50.5453
50.5458
50.5459
50.5457
50.5454
50.5453
50.5454
50.5457
50.5459
50.5462
50.5464
50.5469
50.5476
50.5485
50.549
50.5468
50.5303
50.4903
50.4678
50.4656
50.4776
50.5215
50.5607
50.5777
50.5817
50.5807
50.5749
50.5703
50.568
50.567
50.5666
50.5666
50.5667
50.5669
50.5672
50.5674
50.5676
50.5678
50.568
50.5681
50.5683
50.5684
50.5685
50.5687
50.5688
50.5689
50.5691
50.5692
50.5694
50.5695
50.5697
50.5699
50.5701
50.5704
50.5707
50.5709
50.5713
50.5716
50.572
50.5724
50.5728
50.5733
50.5738
50.5743
50.5749
50.5754
50.576
50.5766
50.5773
50.5779
50.5786
50.5792
50.5799
50.5805
50.5811
50.5818
50.5824
50.5829
50.5835
50.584
50.5845
50.5849
50.5853
50.5857
50.586
50.5863
50.5866
50.5868
50.5869
50.587
50.5871
50.5871
50.5871
50.5871
50.587
50.5869
50.5868
50.5867
50.5865
50.5864
50.5862
50.586
50.5858
50.5856
50.5855
50.5853
50.5852
50.585
50.5849
50.5848
50.5847
50.5847
50.5847
50.5847
50.5848
50.5848
50.5849
50.5851
50.5852
50.5854
50.5856
50.5858
50.586
50.5862
50.5865
50.5867
50.5869
50.5872
50.5874
50.5876
50.5877
50.5879
50.588
50.5881
50.5882
50.5882
50.5882
50.5882
50.5882
50.5881
50.588
50.5879
50.5878
50.5876
50.5875
50.5873
50.587
50.5868
50.5866
50.5863
50.5861
50.5858
50.5856
50.5853
50.5851
50.5849
50.5847
50.5845
50.5844
50.5843
50.5842
50.5842
50.5842
50.5843
50.5843
50.5844
50.5846
50.5848
50.585
50.5852
50.5854
50.5857
50.5859
50.5861
50.5864
50.5866
50.5868
50.587
50.5871
50.5872
50.5873
50.5874
50.5874
50.5874
50.5874
50.5862
50.5941
50.5516
50.5535
50.5592
50.5515
50.5477
50.5468
50.5465
50.5457
50.5449
50.5446
50.5443
50.544
50.5439
50.5439
50.5443
50.5443
50.5441
50.5439
50.5439
50.544
50.5443
50.5444
50.5446
50.545
50.5456
50.5464
50.5473
50.548
50.5469
50.5376
50.5213
50.5137
50.514
50.5199
50.5379
50.5535
50.5615
50.5647
50.5658
50.5662
50.5659
50.5659
50.566
50.5662
50.5664
50.5667
50.5669
50.5672
50.5674
50.5676
50.5678
50.568
50.5682
50.5683
50.5684
50.5686
50.5687
50.5688
50.569
50.5691
50.5693
50.5694
50.5696
50.5698
50.57
50.5702
50.5704
50.5707
50.571
50.5713
50.5717
50.572
50.5724
50.5729
50.5733
50.5738
50.5744
50.5749
50.5755
50.5761
50.5767
50.5773
50.578
50.5786
50.5793
50.5799
50.5806
50.5812
50.5818
50.5824
50.583
50.5835
50.584
50.5845
50.585
50.5854
50.5858
50.5861
50.5864
50.5866
50.5868
50.587
50.5871
50.5871
50.5872
50.5872
50.5871
50.5871
50.587
50.5868
50.5867
50.5866
50.5864
50.5862
50.586
50.5858
50.5857
50.5855
50.5853
50.5852
50.5851
50.585
50.5849
50.5848
50.5848
50.5847
50.5848
50.5848
50.5849
50.585
50.5851
50.5853
50.5855
50.5856
50.5858
50.5861
50.5863
50.5865
50.5868
50.587
50.5872
50.5874
50.5876
50.5878
50.5879
50.588
50.5881
50.5882
50.5883
50.5883
50.5883
50.5882
50.5882
50.5881
50.588
50.5878
50.5877
50.5875
50.5873
50.5871
50.5869
50.5866
50.5864
50.5861
50.5859
50.5856
50.5854
50.5852
50.5849
50.5848
50.5846
50.5845
50.5844
50.5843
50.5843
50.5843
50.5843
50.5844
50.5845
50.5846
50.5848
50.585
50.5852
50.5855
50.5857
50.5859
50.5862
50.5864
50.5866
50.5869
50.587
50.5872
50.5873
50.5874
50.5874
50.5874
50.5874
50.5874
50.5867
50.5899
50.5151
50.5236
50.5305
50.5315
50.5303
50.5294
50.5289
50.5286
50.5284
50.528
50.5277
50.5276
50.5274
50.5272
50.5269
50.5267
50.5266
50.5266
50.5269
50.5273
50.5286
50.5324
50.5377
50.5421
50.5452
50.5474
50.5489
50.5502
50.5513
50.5523
50.5535
50.5548
50.5564
50.5583
50.5598
50.561
50.5619
50.5627
50.5632
50.5638
50.5643
50.5648
50.5653
50.5657
50.5661
50.5665
50.5668
50.5671
50.5673
50.5676
50.5678
50.568
50.5681
50.5683
50.5684
50.5686
50.5687
50.5688
50.569
50.5691
50.5693
50.5694
50.5696
50.5698
50.57
50.5702
50.5704
50.5707
50.571
50.5713
50.5717
50.572
50.5724
50.5729
50.5733
50.5738
50.5744
50.5749
50.5755
50.5761
50.5767
50.5773
50.578
50.5786
50.5793
50.5799
50.5806
50.5812
50.5818
50.5824
50.583
50.5835
50.584
50.5845
50.585
50.5854
50.5858
50.5861
50.5864
50.5866
50.5868
50.587
50.5871
50.5871
50.5872
50.5872
50.5871
50.5871
50.587
50.5868
50.5867
50.5866
50.5864
50.5862
50.586
50.5858
50.5857
50.5855
50.5853
50.5852
50.5851
50.585
50.5849
50.5848
50.5848
50.5847
50.5848
50.5848
50.5849
50.585
50.5851
50.5853
50.5855
50.5856
50.5858
50.5861
50.5863
50.5865
50.5868
50.587
50.5872
50.5874
50.5876
50.5878
50.5879
50.588
50.5881
50.5882
50.5883
50.5883
50.5883
50.5882
50.5882
50.5881
50.588
50.5878
50.5877
50.5875
50.5873
50.5871
50.5869
50.5866
50.5864
50.5861
50.5859
50.5856
50.5854
50.5852
50.5849
50.5848
50.5846
50.5845
50.5844
50.5843
50.5843
50.5843
50.5843
50.5844
50.5845
50.5846
50.5848
50.585
50.5852
50.5855
50.5857
50.5859
50.5862
50.5864
50.5867
50.5868
50.587
50.5872
50.5873
50.5874
50.5874
50.5874
50.5874
50.5874
50.5874
50.5873
50.5538
50.552
50.55
50.5485
50.5473
50.5464
50.5458
50.5455
50.5454
50.5453
50.5451
50.5449
50.5448
50.5448
50.5447
50.5446
50.5447
50.5448
50.5449
50.5451
50.5453
50.5454
50.5457
50.5461
50.5461
50.5459
50.5461
50.5468
50.5473
50.5465
50.5439
50.543
50.5439
50.5459
50.5508
50.5569
50.5608
50.5631
50.5642
50.565
50.5654
50.5656
50.5658
50.5661
50.5663
50.5666
50.5669
50.5671
50.5674
50.5676
50.5678
50.568
50.5682
50.5683
50.5684
50.5686
50.5687
50.5688
50.569
50.5691
50.5693
50.5694
50.5696
50.5698
50.57
50.5702
50.5704
50.5707
50.571
50.5713
50.5717
50.572
50.5724
50.5729
50.5733
50.5738
50.5744
50.5749
50.5755
50.5761
50.5767
50.5773
50.578
50.5786
50.5793
50.5799
50.5806
50.5812
50.5818
50.5824
50.583
50.5835
50.584
50.5845
50.585
50.5854
50.5858
50.5861
50.5864
50.5866
50.5868
50.587
50.5871
50.5871
50.5872
50.5872
50.5871
50.5871
50.587
50.5868
50.5867
50.5866
50.5864
50.5862
50.586
50.5858
50.5857
50.5855
50.5853
50.5852
50.5851
50.585
50.5849
50.5848
50.5848
50.5847
50.5848
50.5848
50.5849
50.585
50.5851
50.5853
50.5855
50.5856
50.5858
50.5861
50.5863
50.5865
50.5868
50.587
50.5872
50.5874
50.5876
50.5878
50.5879
50.588
50.5881
50.5882
50.5883
50.5883
50.5883
50.5882
50.5882
50.5881
50.588
50.5878
50.5877
50.5875
50.5873
50.5871
50.5869
50.5866
50.5864
50.5861
50.5859
50.5856
50.5854
50.5852
50.5849
50.5848
50.5846
50.5845
50.5844
50.5843
50.5843
50.5843
50.5843
50.5844
50.5845
50.5846
50.5848
50.585
50.5852
50.5855
50.5857
50.5859
50.5862
50.5864
50.5867
50.5868
50.587
50.5872
50.5873
50.5874
50.5874
50.5874
50.5875
50.5875
50.5878
50.5866
50.5392
50.5434
50.542
50.5408
50.5397
50.5388
50.5383
50.5381
50.5379
50.5378
50.5376
50.5375
50.5373
50.5372
50.5371
50.537
50.537
50.5371
50.5371
50.5373
50.5375
50.5376
50.5374
50.5373
50.538
50.5392
50.5413
50.5427
50.5426
50.534
50.5127
50.4998
50.4968
50.4989
50.5083
50.5268
50.541
50.5505
50.5565
50.5603
50.5625
50.564
50.5649
50.5655
50.566
50.5664
50.5668
50.5671
50.5673
50.5675
50.5677
50.5679
50.5681
50.5683
50.5684
50.5685
50.5687
50.5688
50.5689
50.5691
50.5692
50.5694
50.5695
50.5697
50.5699
50.5701
50.5704
50.5707
50.5709
50.5713
50.5716
50.572
50.5724
50.5728
50.5733
50.5738
50.5743
50.5749
50.5754
50.576
50.5766
50.5773
50.5779
50.5786
50.5792
50.5799
50.5805
50.5811
50.5818
50.5824
50.5829
50.5835
50.584
50.5845
50.5849
50.5853
50.5857
50.586
50.5863
50.5866
50.5868
50.5869
50.587
50.5871
50.5871
50.5871
50.5871
50.587
50.5869
50.5868
50.5867
50.5865
50.5864
50.5862
50.586
50.5858
50.5856
50.5855
50.5853
50.5852
50.585
50.5849
50.5848
50.5847
50.5847
50.5847
50.5847
50.5848
50.5848
50.5849
50.5851
50.5852
50.5854
50.5856
50.5858
50.586
50.5862
50.5865
50.5867
50.5869
50.5872
50.5874
50.5876
50.5877
50.5879
50.588
50.5881
50.5882
50.5882
50.5882
50.5882
50.5882
50.5881
50.588
50.5879
50.5878
50.5876
50.5875
50.5873
50.587
50.5868
50.5866
50.5863
50.5861
50.5858
50.5856
50.5853
50.5851
50.5849
50.5847
50.5846
50.5844
50.5843
50.5842
50.5842
50.5842
50.5843
50.5843
50.5844
50.5846
50.5848
50.585
50.5852
50.5854
50.5857
50.5859
50.5861
50.5864
50.5866
50.5868
50.587
50.5871
50.5872
50.5873
50.5874
50.5874
50.5874
50.5874
50.5878
50.5864
50.5602
50.5484
50.544
50.543
50.5408
50.536
50.5296
50.5229
50.5154
50.5081
50.5005
50.4929
50.4858
50.4786
50.472
50.4655
50.46
50.4552
50.4519
50.4502
50.5684
50.5655
50.566
50.567
50.5658
50.5622
50.5565
50.5515
50.5447
50.5392
50.5322
50.5266
50.5203
50.5143
50.5087
50.5036
50.4988
50.4949
50.4922
50.4903
50.5879
50.5878
50.5868
50.5849
50.5823
50.5791
50.5753
50.5707
50.5658
50.5598
50.5528
50.5448
50.5357
50.5261
50.517
50.5095
50.5027
50.4945
50.4854
50.4753
50.5976
50.6008
50.6007
50.5994
50.5982
50.5973
50.596
50.5929
50.5879
50.5834
50.5804
50.5794
50.5847
50.592
50.5909
50.5782
50.5571
50.5399
50.527
50.5133
50.6008
50.6071
50.6079
50.6063
50.605
50.604
50.6027
50.5997
50.5948
50.5901
50.5869
50.5858
50.5905
50.5974
50.5983
50.5882
50.5703
50.5518
50.5375
50.5231
50.4707
50.4738
50.4721
50.4711
50.4701
50.4693
50.4688
50.4686
50.4685
50.4682
50.468
50.4677
50.4675
50.4672
50.4669
50.4666
50.4665
50.4664
50.4664
50.4664
50.4663
50.4663
50.466
50.4657
50.4657
50.4663
50.4676
50.4692
50.4699
50.4674
50.4522
50.4321
50.4229
50.4219
50.4253
50.4388
50.4558
50.4676
50.4753
50.4799
50.4826
50.484
50.4848
50.4852
50.4854
50.4854
50.4854
50.4853
50.4852
50.485
50.4849
50.4847
50.4845
50.4843
50.4841
50.4839
50.4836
50.4834
50.4832
50.4829
50.4826
50.4824
50.4821
50.4819
50.4817
50.4815
50.4812
50.4811
50.4809
50.4808
50.4807
50.4806
50.4806
50.4806
50.4806
50.4807
50.4808
50.4809
50.4811
50.4813
50.4815
50.4818
50.482
50.4823
50.4825
50.4828
50.483
50.4832
50.4835
50.4836
50.4838
50.4839
50.484
50.484
50.484
50.484
50.4839
50.4839
50.4827
50.4902
50.4849
50.4821
50.4799
50.4786
50.4774
50.4765
50.476
50.4758
50.4758
50.4756
50.4753
50.475
50.4748
50.4746
50.4743
50.4741
50.474
50.4739
50.4739
50.474
50.474
50.4739
50.4737
50.4738
50.4739
50.4736
50.4733
50.4735
50.4738
50.4737
50.4715
50.4691
50.4687
50.4695
50.4717
50.4771
50.4818
50.4845
50.4859
50.4864
50.4865
50.4864
50.4862
50.486
50.4858
50.4857
50.4855
50.4854
50.4853
50.4851
50.4849
50.4847
50.4845
50.4844
50.4841
50.4839
50.4837
50.4834
50.4832
50.4829
50.4827
50.4824
50.4822
50.4819
50.4817
50.4815
50.4813
50.4811
50.4809
50.4808
50.4807
50.4807
50.4806
50.4806
50.4807
50.4807
50.4808
50.481
50.4811
50.4813
50.4816
50.4818
50.4821
50.4823
50.4826
50.4828
50.4831
50.4833
50.4835
50.4837
50.4838
50.4839
50.484
50.4841
50.4841
50.4841
50.484
50.4839
50.4831
50.4861
50.444
50.4533
50.461
50.4622
50.4611
50.4602
50.4597
50.4594
50.4592
50.4589
50.4585
50.4582
50.4579
50.4576
50.4573
50.457
50.4566
50.4562
50.4561
50.4562
50.4565
50.4582
50.4627
50.4673
50.4708
50.4732
50.4747
50.4758
50.4766
50.4774
50.4781
50.479
50.48
50.4815
50.4829
50.4839
50.4845
50.4849
50.4851
50.4853
50.4854
50.4854
50.4855
50.4855
50.4855
50.4855
50.4854
50.4853
50.4852
50.4851
50.4849
50.4847
50.4845
50.4843
50.4841
50.4839
50.4837
50.4834
50.4832
50.4829
50.4827
50.4824
50.4822
50.4819
50.4817
50.4815
50.4813
50.4811
50.4809
50.4808
50.4807
50.4807
50.4806
50.4806
50.4807
50.4807
50.4808
50.481
50.4811
50.4813
50.4816
50.4818
50.4821
50.4823
50.4826
50.4828
50.4831
50.4833
50.4835
50.4837
50.4838
50.4839
50.484
50.4841
50.4841
50.4841
50.484
50.4839
50.4839
50.4838
50.4997
50.4932
50.486
50.4799
50.4786
50.4782
50.4773
50.476
50.4753
50.475
50.4746
50.4741
50.474
50.4741
50.4743
50.4737
50.4731
50.4728
50.4727
50.4729
50.4729
50.4729
50.4727
50.4724
50.4725
50.4729
50.4734
50.4739
50.4741
50.4709
50.4573
50.4433
50.4387
50.4401
50.4491
50.4682
50.4805
50.4861
50.4879
50.4881
50.4877
50.487
50.4865
50.4862
50.486
50.4858
50.4856
50.4854
50.4853
50.4851
50.4849
50.4848
50.4846
50.4844
50.4841
50.4839
50.4837
50.4834
50.4832
50.4829
50.4827
50.4824
50.4822
50.4819
50.4817
50.4815
50.4813
50.4811
50.4809
50.4808
50.4807
50.4807
50.4806
50.4806
50.4807
50.4807
50.4808
50.481
50.4811
50.4813
50.4816
50.4818
50.4821
50.4823
50.4826
50.4828
50.4831
50.4833
50.4835
50.4837
50.4838
50.4839
50.484
50.4841
50.4841
50.4841
50.484
50.484
50.4843
50.4833
50.5013
50.4933
50.4866
50.4805
50.4795
50.4792
50.4786
50.4771
50.4763
50.4761
50.4758
50.4753
50.4751
50.4756
50.4758
50.4753
50.4745
50.4741
50.474
50.4741
50.4743
50.4744
50.4745
50.4743
50.4742
50.4744
50.4748
50.4752
50.4751
50.4704
50.446
50.4096
50.3944
50.3953
50.4133
50.4596
50.4902
50.5018
50.5035
50.5009
50.4946
50.4904
50.4881
50.4869
50.4863
50.4859
50.4856
50.4854
50.4853
50.4851
50.4849
50.4847
50.4845
50.4843
50.4841
50.4839
50.4836
50.4834
50.4832
50.4829
50.4826
50.4824
50.4821
50.4819
50.4817
50.4815
50.4812
50.4811
50.4809
50.4808
50.4807
50.4806
50.4806
50.4806
50.4806
50.4807
50.4808
50.4809
50.4811
50.4813
50.4815
50.4818
50.482
50.4823
50.4825
50.4828
50.483
50.4832
50.4835
50.4836
50.4838
50.4839
50.484
50.484
50.484
50.484
50.484
50.484
50.4843
50.4831
50.4566
50.4447
50.4403
50.4392
50.437
50.4322
50.4257
50.419
50.4115
50.4041
50.3965
50.3888
50.3817
50.3744
50.3678
50.3612
50.3557
50.3508
50.3475
50.3458
50.4648
50.4619
50.4623
50.4633
50.462
50.4585
50.4528
50.4477
50.4408
50.4353
50.4283
50.4226
50.4163
50.4103
50.4047
50.3994
50.3947
50.3907
50.388
50.3861
50.4844
50.4843
50.4833
50.4814
50.4787
50.4754
50.4716
50.467
50.4621
50.4561
50.4491
50.441
50.432
50.4222
50.4131
50.4054
50.3986
50.3905
50.3813
50.3711
50.4941
50.4973
50.4972
50.4959
50.4946
50.4937
50.4925
50.4894
50.4844
50.4798
50.4768
50.4755
50.4806
50.488
50.4874
50.4752
50.4545
50.4369
50.424
50.4105
50.4973
50.5036
50.5044
50.5028
50.5015
50.5005
50.4992
50.4963
50.4914
50.4867
50.4834
50.482
50.4864
50.4935
50.4948
50.4852
50.4677
50.449
50.4345
50.4203
50.3662
50.3694
50.3679
50.367
50.3659
50.365
50.3646
50.3644
50.3643
50.3641
50.3639
50.3637
50.3635
50.3633
50.363
50.3628
50.3627
50.3626
50.3625
50.3624
50.3623
50.362
50.3615
50.3615
50.362
50.3632
50.3647
50.3654
50.3632
50.3489
50.3288
50.3196
50.3185
50.3218
50.3352
50.3522
50.3639
50.3714
50.3759
50.3785
50.3799
50.3806
50.381
50.3811
50.3812
50.3811
50.3811
50.381
50.3808
50.3807
50.3805
50.3804
50.3802
50.38
50.3798
50.3796
50.3794
50.3791
50.3789
50.3787
50.3785
50.3783
50.3781
50.3779
50.3778
50.3776
50.3775
50.3774
50.3773
50.3773
50.3773
50.3772
50.3773
50.3773
50.3774
50.3775
50.3776
50.3778
50.3779
50.3781
50.3783
50.3785
50.3787
50.3789
50.3791
50.3793
50.3795
50.3796
50.3798
50.38
50.3801
50.3802
50.3803
50.3803
50.3804
50.3804
50.3804
50.3803
50.3803
50.3802
50.3801
50.38
50.3799
50.3797
50.3796
50.3794
50.3792
50.3791
50.3789
50.3787
50.3785
50.3784
50.3782
50.3781
50.3779
50.3778
50.3777
50.3777
50.3776
50.3776
50.3776
50.3776
50.3777
50.3777
50.3778
50.3779
50.3781
50.3782
50.3784
50.3786
50.3788
50.379
50.3792
50.3794
50.3796
50.3798
50.3799
50.3801
50.3803
50.3804
50.3805
50.3807
50.3807
50.3808
50.3809
50.3809
50.3809
50.381
50.381
50.381
50.3809
50.3809
50.3809
50.3809
50.3809
50.3808
50.3808
50.3808
50.3808
50.3808
50.3809
50.3809
50.381
50.3811
50.3812
50.3814
50.3816
50.3818
50.3821
50.3824
50.3827
50.3831
50.3835
50.384
50.3845
50.385
50.3855
50.3861
50.3866
50.3872
50.3878
50.3884
50.3889
50.3895
50.39
50.3905
50.3909
50.3914
50.3918
50.3921
50.3925
50.3928
50.3931
50.3934
50.3936
50.3939
50.3941
50.3944
50.395
50.3939
50.3803
50.3777
50.3757
50.3745
50.3733
50.3724
50.3719
50.3717
50.3717
50.3714
50.3712
50.371
50.3708
50.3706
50.3704
50.3702
50.3701
50.3701
50.3701
50.3701
50.3699
50.3698
50.3698
50.3699
50.3696
50.3692
50.3693
50.3696
50.3695
50.3675
50.3654
50.3651
50.3659
50.3682
50.3735
50.378
50.3805
50.3817
50.3822
50.3823
50.3822
50.3819
50.3817
50.3816
50.3814
50.3813
50.3812
50.3811
50.3809
50.3808
50.3806
50.3804
50.3802
50.38
50.3798
50.3796
50.3794
50.3792
50.379
50.3788
50.3786
50.3784
50.3782
50.378
50.3778
50.3777
50.3776
50.3775
50.3774
50.3773
50.3773
50.3773
50.3773
50.3774
50.3774
50.3775
50.3777
50.3778
50.378
50.3781
50.3783
50.3785
50.3787
50.3789
50.3791
50.3793
50.3795
50.3797
50.3799
50.38
50.3801
50.3802
50.3803
50.3804
50.3804
50.3804
50.3804
50.3804
50.3803
50.3802
50.3801
50.38
50.3799
50.3798
50.3796
50.3794
50.3793
50.3791
50.3789
50.3787
50.3786
50.3784
50.3783
50.3781
50.378
50.3779
50.3778
50.3777
50.3777
50.3777
50.3777
50.3777
50.3777
50.3778
50.3779
50.378
50.3781
50.3783
50.3784
50.3786
50.3788
50.379
50.3792
50.3794
50.3796
50.3798
50.38
50.3802
50.3803
50.3805
50.3806
50.3807
50.3808
50.3809
50.3809
50.381
50.381
50.381
50.381
50.381
50.381
50.381
50.3809
50.3809
50.3809
50.3809
50.3809
50.3809
50.3809
50.3809
50.3809
50.381
50.381
50.3811
50.3813
50.3814
50.3816
50.3819
50.3821
50.3824
50.3828
50.3832
50.3836
50.384
50.3845
50.385
50.3856
50.3861
50.3867
50.3873
50.3878
50.3884
50.389
50.3895
50.39
50.3905
50.391
50.3914
50.3918
50.3922
50.3925
50.3928
50.3931
50.3934
50.3937
50.3939
50.3942
50.3944
50.395
50.3941
50.3393
50.3493
50.3571
50.3583
50.3572
50.3563
50.3559
50.3556
50.3554
50.355
50.3545
50.3542
50.3539
50.3535
50.3531
50.3527
50.3524
50.3523
50.3523
50.3525
50.3537
50.3575
50.3623
50.366
50.3686
50.3704
50.3716
50.3725
50.3733
50.374
50.3749
50.376
50.3774
50.3787
50.3797
50.3803
50.3807
50.3809
50.381
50.3811
50.3812
50.3812
50.3813
50.3813
50.3812
50.3812
50.3811
50.381
50.3809
50.3807
50.3806
50.3804
50.3802
50.38
50.3798
50.3796
50.3794
50.3792
50.379
50.3788
50.3786
50.3784
50.3782
50.378
50.3778
50.3777
50.3776
50.3775
50.3774
50.3773
50.3773
50.3773
50.3773
50.3774
50.3774
50.3775
50.3777
50.3778
50.378
50.3781
50.3783
50.3785
50.3787
50.3789
50.3791
50.3793
50.3795
50.3797
50.3799
50.38
50.3801
50.3802
50.3803
50.3804
50.3804
50.3804
50.3804
50.3804
50.3803
50.3802
50.3801
50.38
50.3799
50.3798
50.3796
50.3794
50.3793
50.3791
50.3789
50.3787
50.3786
50.3784
50.3783
50.3781
50.378
50.3779
50.3778
50.3777
50.3777
50.3777
50.3777
50.3777
50.3777
50.3778
50.3779
50.378
50.3781
50.3783
50.3784
50.3786
50.3788
50.379
50.3792
50.3794
50.3796
50.3798
50.38
50.3802
50.3803
50.3805
50.3806
50.3807
50.3808
50.3809
50.3809
50.381
50.381
50.381
50.381
50.381
50.381
50.381
50.3809
50.3809
50.3809
50.3809
50.3809
50.3809
50.3809
50.3809
50.3809
50.381
50.381
50.3811
50.3813
50.3814
50.3816
50.3819
50.3821
50.3824
50.3828
50.3832
50.3836
50.384
50.3845
50.385
50.3856
50.3861
50.3867
50.3873
50.3878
50.3884
50.389
50.3895
50.39
50.3905
50.391
50.3914
50.3918
50.3922
50.3925
50.3928
50.3931
50.3934
50.3937
50.3939
50.3941
50.3944
50.3946
50.3948
50.3947
50.3878
50.3814
50.3758
50.3744
50.3738
50.3728
50.3717
50.3712
50.3709
50.3705
50.3701
50.3699
50.3701
50.3703
50.3697
50.3691
50.3688
50.3688
50.3689
50.3689
50.3688
50.3686
50.3687
50.369
50.3695
50.37
50.37
50.3669
50.3535
50.34
50.3357
50.3372
50.3465
50.3651
50.3767
50.3819
50.3835
50.3838
50.3833
50.3826
50.3822
50.3819
50.3817
50.3815
50.3814
50.3812
50.3811
50.3809
50.3808
50.3806
50.3804
50.3802
50.38
50.3798
50.3796
50.3794
50.3792
50.379
50.3788
50.3786
50.3784
50.3782
50.378
50.3778
50.3777
50.3776
50.3775
50.3774
50.3773
50.3773
50.3773
50.3773
50.3774
50.3774
50.3775
50.3777
50.3778
50.378
50.3781
50.3783
50.3785
50.3787
50.3789
50.3791
50.3793
50.3795
50.3797
50.3799
50.38
50.3801
50.3802
50.3803
50.3804
50.3804
50.3804
50.3804
50.3804
50.3803
50.3802
50.3801
50.38
50.3799
50.3798
50.3796
50.3794
50.3793
50.3791
50.3789
50.3787
50.3786
50.3784
50.3783
50.3781
50.378
50.3779
50.3778
50.3777
50.3777
50.3777
50.3777
50.3777
50.3777
50.3778
50.3779
50.378
50.3781
50.3783
50.3784
50.3786
50.3788
50.379
50.3792
50.3794
50.3796
50.3798
50.38
50.3802
50.3803
50.3805
50.3806
50.3807
50.3808
50.3809
50.3809
50.381
50.381
50.381
50.381
50.381
50.381
50.381
50.3809
50.3809
50.3809
50.3809
50.3809
50.3809
50.3809
50.3809
50.3809
50.381
50.381
50.3811
50.3813
50.3814
50.3816
50.3819
50.3821
50.3824
50.3828
50.3832
50.3836
50.384
50.3845
50.385
50.3856
50.3861
50.3867
50.3873
50.3878
50.3884
50.389
50.3895
50.39
50.3905
50.391
50.3914
50.3918
50.3922
50.3925
50.3929
50.3931
50.3934
50.3937
50.3939
50.3941
50.3943
50.3938
50.3975
50.3962
50.388
50.3819
50.3765
50.3753
50.3748
50.374
50.3727
50.3722
50.372
50.3716
50.3712
50.3711
50.3715
50.3718
50.3713
50.3706
50.3702
50.3701
50.3702
50.3702
50.3703
50.3702
50.3702
50.3704
50.3708
50.3712
50.371
50.3662
50.3416
50.3061
50.2919
50.2932
50.3125
50.3583
50.3868
50.3973
50.3986
50.3958
50.3896
50.3858
50.3837
50.3826
50.382
50.3816
50.3814
50.3812
50.3811
50.3809
50.3807
50.3806
50.3804
50.3802
50.38
50.3798
50.3796
50.3794
50.3791
50.3789
50.3787
50.3785
50.3783
50.3781
50.3779
50.3778
50.3776
50.3775
50.3774
50.3773
50.3773
50.3773
50.3772
50.3773
50.3773
50.3774
50.3775
50.3776
50.3778
50.3779
50.3781
50.3783
50.3785
50.3787
50.3789
50.3791
50.3793
50.3795
50.3796
50.3798
50.38
50.3801
50.3802
50.3803
50.3803
50.3804
50.3804
50.3804
50.3803
50.3803
50.3802
50.3801
50.38
50.3799