/*--------------------------------*- C++ -*----------------------------------*\
| =========                 |                                                 |
| \\      /  F ield         | OpenFOAM: The Open Source CFD Toolbox           |
|  \\    /   O peration     | Version:  3.0.x                                 |
|   \\  /    A nd           | Web:      www.OpenFOAM.org                      |
|    \\/     M anipulation  |                                                 |
\*---------------------------------------------------------------------------*/
FoamFile
{
    version     2.0;
    format      ascii;
    class       surfaceScalarField;
    location    "0.33";
    object      phi;
}
// * * * * * * * * * * * * * * * * * * * * * * * * * * * * * * * * * * * * * //

dimensions      [1 0 -1 0 0 0 0];

internalField   nonuniform List<scalar> 
12415
(
5.79669
0.000327737
5.79639
0.000235106
5.7961
0.00022463
5.79582
0.000226666
5.79554
0.000227119
5.79527
0.000226905
5.79501
0.00022685
5.79475
0.000226866
5.7945
0.000226888
5.79426
0.000226922
5.79403
0.000226972
5.79381
0.000227018
5.7936
0.000227132
5.79341
0.000227168
5.79322
0.000227268
5.79303
0.00022736
5.79284
0.000227448
5.79265
0.000227536
5.79245
0.000227624
5.79224
0.000227711
5.79203
0.0002278
5.79181
0.000227884
5.79159
0.000228007
5.79137
0.000228087
5.79114
0.000228206
5.79091
0.000228321
5.79067
0.000228442
5.79043
0.000228568
5.79019
0.000228693
5.78993
0.000228815
5.78968
0.000228929
5.78941
0.00022903
5.78914
0.000229109
5.78886
0.000229156
5.78857
0.000229154
5.78828
0.000229081
5.78799
0.000228907
5.78771
0.00022856
5.78744
0.000228295
5.78718
0.000227175
5.78694
0.000226252
5.7867
0.00022476
5.78646
0.000222748
5.78624
0.000220122
5.78602
0.000216775
5.78581
0.000212618
5.78561
0.000207552
5.78541
0.00020152
5.78522
0.000194487
5.78504
0.000186448
5.78487
0.00017744
5.7847
0.000167539
5.78454
0.000156857
5.78439
0.000145545
5.78424
0.000133779
5.78409
0.000121741
5.78395
0.000109684
5.78381
9.77341e-05
5.78367
8.61451e-05
5.78354
7.50773e-05
5.7834
6.46652e-05
5.78326
5.50283e-05
5.78312
4.62459e-05
5.78298
3.83635e-05
5.78285
3.13936e-05
5.78271
2.53212e-05
5.78258
2.01064e-05
5.78245
1.56916e-05
5.78233
1.2006e-05
5.78221
8.97119e-06
5.78211
6.50562e-06
5.78201
4.52889e-06
5.78193
2.96481e-06
5.78186
1.74234e-06
5.78181
7.98791e-07
5.78177
8.01065e-08
5.78175
-4.62151e-07
5.78174
-8.65512e-07
5.78174
-1.15166e-06
5.78176
-1.3775e-06
5.78179
-1.53125e-06
5.78183
-1.6394e-06
5.78188
-1.71608e-06
5.78193
-1.76963e-06
5.78199
-1.80558e-06
5.78204
-1.82981e-06
5.7821
-1.84493e-06
5.78214
-1.85357e-06
5.78218
-1.85744e-06
5.7822
-1.85781e-06
5.78221
-1.85576e-06
5.78221
-1.85088e-06
5.78219
-1.8479e-06
5.78215
-1.84421e-06
5.78209
-1.83053e-06
5.78201
-1.82876e-06
5.78192
-1.81849e-06
5.78181
-1.81313e-06
5.78168
-1.80779e-06
5.78154
-1.80274e-06
5.78139
-1.79842e-06
5.78124
-1.79473e-06
5.78108
-1.79359e-06
5.78093
-1.79291e-06
5.78078
-1.79437e-06
5.78065
-1.79723e-06
5.78053
-1.80104e-06
5.78043
-1.80627e-06
5.78035
-1.81268e-06
5.7803
-1.82035e-06
5.78027
-1.82835e-06
5.78027
-1.83729e-06
5.7803
-1.8428e-06
5.78035
-1.85479e-06
5.78043
-1.86452e-06
5.78054
-1.87349e-06
5.78066
-1.88113e-06
5.7808
-1.88875e-06
5.78095
-1.8947e-06
5.78111
-1.89864e-06
5.78128
-1.90025e-06
5.78144
-1.90026e-06
5.78159
-1.89965e-06
5.78174
-1.89732e-06
5.78186
-1.89432e-06
5.78197
-1.88907e-06
5.78206
-1.88278e-06
5.78211
-1.875e-06
5.78213
-1.86595e-06
5.78212
-1.85559e-06
5.78208
-1.84961e-06
5.78199
-1.83739e-06
5.78188
-1.82494e-06
5.78173
-1.81468e-06
5.78155
-1.80475e-06
5.78134
-1.7965e-06
5.7811
-1.78871e-06
5.78085
-1.78461e-06
5.7806
-1.78279e-06
5.78033
-1.77833e-06
5.78008
-1.78081e-06
5.77984
-1.78251e-06
5.77961
-1.79125e-06
5.77942
-1.79807e-06
5.77926
-1.81216e-06
5.77914
-1.81941e-06
5.77906
-1.83651e-06
5.77903
-1.83854e-06
5.77903
-1.88197e-06
5.77907
-1.86298e-06
5.77916
-1.88834e-06
5.77927
-1.90279e-06
5.77941
-1.91584e-06
5.77957
-1.92117e-06
5.77975
-1.93322e-06
5.77993
-1.93401e-06
5.78011
-1.94138e-06
5.78028
-1.94156e-06
5.78044
-1.94172e-06
5.78058
-1.94296e-06
5.78069
-1.93762e-06
5.78077
-1.92825e-06
5.7808
-1.92089e-06
5.78079
-1.91187e-06
5.78073
-1.90445e-06
5.7806
-1.89021e-06
5.78042
-1.87748e-06
5.78016
-1.86283e-06
5.77983
-1.85006e-06
5.77942
-1.8418e-06
5.77896
-1.80619e-06
5.77842
-1.80588e-06
5.77783
-1.81499e-06
5.77718
-1.77515e-06
5.7765
-1.78969e-06
5.7758
-1.78017e-06
5.77508
-1.79314e-06
5.77438
-1.79527e-06
5.77369
-1.81588e-06
5.77305
-1.8263e-06
5.77245
-1.8282e-06
5.77191
-1.89984e-06
5.77144
-1.91397e-06
5.77103
-1.92261e-06
5.77069
-1.98338e-06
5.7704
-1.98856e-06
5.77015
-2.01517e-06
5.76993
-2.02678e-06
5.76973
-2.04575e-06
5.76952
-2.04252e-06
5.76931
-2.05765e-06
5.76908
-1.93305e-06
5.76883
-1.42278e-06
5.76856
2.74782e-06
5.76824
3.12636e-05
5.76771
0.000231696
5.76576
0.00163274
5.754
0.0114274
5.66315
0.0904772
0.446399
5.2163
11.5941
0.000260489
11.594
0.00021574
11.5939
0.000189413
11.5939
0.000194004
11.5938
0.00019533
11.5937
0.000194721
11.5937
0.000194558
11.5937
0.000194583
11.5936
0.000194609
11.5937
0.000194641
11.5937
0.000194688
11.5937
0.000194739
11.5938
0.000194832
11.5939
0.00019489
11.594
0.000194972
11.5941
0.000195066
11.5942
0.00019515
11.5943
0.000195237
11.5944
0.000195323
11.5945
0.000195408
11.5945
0.000195495
11.5946
0.00019558
11.5946
0.000195691
11.5947
0.000195782
11.5947
0.000195886
11.5947
0.000196
11.5948
0.000196113
11.5948
0.000196233
11.5948
0.000196352
11.5947
0.000196468
11.5947
0.000196577
11.5947
0.000196675
11.5946
0.000196755
11.5945
0.000196807
11.5945
0.000196816
11.5944
0.000196765
11.5943
0.000196627
11.5942
0.000196352
11.5942
0.000196086
11.5941
0.000195198
11.5941
0.000194373
11.5941
0.000193105
11.5941
0.000191379
11.5942
0.000189123
11.5942
0.000186245
11.5942
0.000182666
11.5943
0.000178304
11.5943
0.000173108
11.5943
0.000167049
11.5944
0.000160122
11.5944
0.000152363
11.5944
0.000143834
11.5944
0.000134635
11.5944
0.000124896
11.5944
0.000114769
11.5944
0.000104417
11.5944
9.4038e-05
11.5943
8.37713e-05
11.5942
7.38157e-05
11.5941
6.43062e-05
11.5939
5.53677e-05
11.5938
4.70987e-05
11.5936
3.95656e-05
11.5934
3.28087e-05
11.5932
2.68361e-05
11.593
2.16358e-05
11.5928
1.71719e-05
11.5925
1.33946e-05
11.5923
1.02429e-05
11.5921
7.64921e-06
11.5919
5.54309e-06
11.5917
3.85565e-06
11.5916
2.5216e-06
11.5914
1.4794e-06
11.5913
6.75678e-07
11.5913
6.54925e-08
11.5912
-3.98339e-07
11.5912
-7.41461e-07
11.5912
-9.88207e-07
11.5912
-1.17889e-06
11.5913
-1.31173e-06
11.5914
-1.40473e-06
11.5915
-1.47066e-06
11.5916
-1.51668e-06
11.5917
-1.54773e-06
11.5918
-1.56861e-06
11.5919
-1.58171e-06
11.592
-1.58914e-06
11.592
-1.59257e-06
11.5921
-1.59287e-06
11.5921
-1.59121e-06
11.5921
-1.58716e-06
11.592
-1.58432e-06
11.5919
-1.58111e-06
11.5918
-1.56965e-06
11.5917
-1.56776e-06
11.5915
-1.55963e-06
11.5912
-1.55476e-06
11.591
-1.55013e-06
11.5907
-1.54572e-06
11.5904
-1.54209e-06
11.5901
-1.53891e-06
11.5898
-1.53798e-06
11.5895
-1.53734e-06
11.5892
-1.53858e-06
11.5889
-1.54101e-06
11.5886
-1.54432e-06
11.5884
-1.54888e-06
11.5883
-1.55429e-06
11.5882
-1.56079e-06
11.5881
-1.56777e-06
11.5881
-1.57523e-06
11.5882
-1.58049e-06
11.5883
-1.59045e-06
11.5884
-1.5984e-06
11.5886
-1.60657e-06
11.5889
-1.61305e-06
11.5891
-1.61939e-06
11.5894
-1.6247e-06
11.5898
-1.62799e-06
11.5901
-1.62938e-06
11.5904
-1.62941e-06
11.5907
-1.62881e-06
11.591
-1.62693e-06
11.5912
-1.62424e-06
11.5914
-1.61982e-06
11.5916
-1.61438e-06
11.5917
-1.60772e-06
11.5918
-1.59999e-06
11.5917
-1.59123e-06
11.5916
-1.58559e-06
11.5915
-1.57576e-06
11.5912
-1.56481e-06
11.5909
-1.55583e-06
11.5906
-1.54759e-06
11.5901
-1.54037e-06
11.5897
-1.53402e-06
11.5892
-1.52978e-06
11.5886
-1.52931e-06
11.5881
-1.52367e-06
11.5876
-1.52837e-06
11.5871
-1.52671e-06
11.5867
-1.53829e-06
11.5863
-1.53987e-06
11.5859
-1.55832e-06
11.5857
-1.55541e-06
11.5855
-1.57725e-06
11.5855
-1.59133e-06
11.5855
-1.54966e-06
11.5855
-1.63718e-06
11.5857
-1.62722e-06
11.5859
-1.63056e-06
11.5862
-1.64612e-06
11.5865
-1.64277e-06
11.5869
-1.66225e-06
11.5872
-1.65368e-06
11.5876
-1.66717e-06
11.5879
-1.66399e-06
11.5882
-1.66586e-06
11.5885
-1.66471e-06
11.5887
-1.66202e-06
11.5889
-1.65354e-06
11.5889
-1.64708e-06
11.5889
-1.63943e-06
11.5888
-1.63289e-06
11.5885
-1.62093e-06
11.5882
-1.60957e-06
11.5876
-1.59639e-06
11.587
-1.57498e-06
11.5862
-1.62866e-06
11.5852
-1.48058e-06
11.5841
-1.56196e-06
11.5829
-1.59616e-06
11.5817
-1.49479e-06
11.5803
-1.54536e-06
11.5789
-1.51683e-06
11.5774
-1.54578e-06
11.576
-1.53261e-06
11.5747
-1.56423e-06
11.5734
-1.56048e-06
11.5722
-1.5433e-06
11.5711
-1.67547e-06
11.5701
-1.64576e-06
11.5693
-1.61236e-06
11.5686
-1.72299e-06
11.568
-1.68931e-06
11.5675
-1.73601e-06
11.5671
-1.73386e-06
11.5667
-1.76033e-06
11.5663
-1.73033e-06
11.5658
-1.76348e-06
11.5654
-1.38797e-06
11.5649
1.18864e-07
11.5643
1.24646e-05
11.5637
9.69287e-05
11.5626
0.000690556
11.5588
0.00483943
11.5359
0.0336876
11.3859
0.239705
1.12452
10.7069
139.129
-0.000260489
139.128
-0.00021574
139.127
-0.000189413
139.126
-0.000194004
139.125
-0.00019533
139.125
-0.000194721
139.124
-0.000194558
139.124
-0.000194583
139.124
-0.000194609
139.124
-0.000194641
139.124
-0.000194688
139.125
-0.000194739
139.125
-0.000194832
139.127
-0.00019489
139.128
-0.000194972
139.129
-0.000195066
139.13
-0.00019515
139.132
-0.000195237
139.133
-0.000195323
139.134
-0.000195408
139.134
-0.000195495
139.135
-0.00019558
139.135
-0.000195691
139.136
-0.000195782
139.136
-0.000195886
139.137
-0.000196
139.137
-0.000196113
139.137
-0.000196233
139.137
-0.000196352
139.137
-0.000196468
139.137
-0.000196577
139.136
-0.000196675
139.135
-0.000196755
139.135
-0.000196807
139.134
-0.000196816
139.132
-0.000196765
139.131
-0.000196627
139.131
-0.000196352
139.13
-0.000196086
139.13
-0.000195198
139.129
-0.000194373
139.129
-0.000193105
139.13
-0.000191379
139.13
-0.000189123
139.13
-0.000186245
139.131
-0.000182666
139.131
-0.000178304
139.132
-0.000173108
139.132
-0.000167049
139.132
-0.000160122
139.133
-0.000152363
139.133
-0.000143834
139.133
-0.000134635
139.133
-0.000124896
139.133
-0.000114769
139.133
-0.000104417
139.132
-9.4038e-05
139.131
-8.37713e-05
139.13
-7.38157e-05
139.129
-6.43062e-05
139.127
-5.53677e-05
139.125
-4.70987e-05
139.123
-3.95656e-05
139.121
-3.28087e-05
139.118
-2.68361e-05
139.116
-2.16358e-05
139.113
-1.71719e-05
139.11
-1.33946e-05
139.108
-1.02429e-05
139.105
-7.64921e-06
139.103
-5.54309e-06
139.101
-3.85565e-06
139.099
-2.5216e-06
139.097
-1.4794e-06
139.096
-6.75675e-07
139.095
-6.54925e-08
139.095
3.98338e-07
139.094
7.41459e-07
139.094
9.88208e-07
139.095
1.17889e-06
139.096
1.31172e-06
139.096
1.40473e-06
139.098
1.47066e-06
139.099
1.51668e-06
139.1
1.54773e-06
139.101
1.56861e-06
139.102
1.58171e-06
139.104
1.58915e-06
139.104
1.59257e-06
139.105
1.59287e-06
139.105
1.59121e-06
139.105
1.58717e-06
139.104
1.58432e-06
139.103
1.5811e-06
139.102
1.56965e-06
139.1
1.56776e-06
139.098
1.55964e-06
139.095
1.55476e-06
139.092
1.55013e-06
139.088
1.54572e-06
139.085
1.54209e-06
139.081
1.53891e-06
139.077
1.53798e-06
139.074
1.53734e-06
139.07
1.53858e-06
139.067
1.54102e-06
139.064
1.54433e-06
139.061
1.54888e-06
139.059
1.55429e-06
139.058
1.56079e-06
139.057
1.56777e-06
139.057
1.57523e-06
139.058
1.58049e-06
139.059
1.59045e-06
139.061
1.5984e-06
139.064
1.60657e-06
139.066
1.61304e-06
139.07
1.61938e-06
139.073
1.62471e-06
139.077
1.62799e-06
139.081
1.62938e-06
139.085
1.62941e-06
139.089
1.62881e-06
139.092
1.62693e-06
139.095
1.62424e-06
139.097
1.61982e-06
139.099
1.61438e-06
139.101
1.60772e-06
139.101
1.59999e-06
139.101
1.59124e-06
139.1
1.58564e-06
139.098
1.5754e-06
139.095
1.56506e-06
139.091
1.55598e-06
139.087
1.54748e-06
139.082
1.54052e-06
139.076
1.53366e-06
139.07
1.53034e-06
139.064
1.52805e-06
139.057
1.52625e-06
139.051
1.5257e-06
139.045
1.52997e-06
139.04
1.53381e-06
139.035
1.54333e-06
139.031
1.54947e-06
139.028
1.56525e-06
139.027
1.56698e-06
139.026
1.54367e-06
139.026
1.79365e-06
139.027
1.50095e-06
139.029
1.57603e-06
139.031
1.63925e-06
139.035
1.61669e-06
139.038
1.67487e-06
139.043
1.63369e-06
139.047
1.67713e-06
139.051
1.65666e-06
139.055
1.66948e-06
139.059
1.66124e-06
139.062
1.66803e-06
139.065
1.65953e-06
139.067
1.65573e-06
139.067
1.64587e-06
139.067
1.6398e-06
139.066
1.63304e-06
139.063
1.62052e-06
139.058
1.61085e-06
139.052
1.60671e-06
139.044
1.73325e-06
139.034
9.7293e-07
139.023
2.09453e-06
139.01
1.62163e-06
138.995
1.31504e-06
138.98
1.62366e-06
138.964
1.46224e-06
138.947
1.59578e-06
138.929
1.46923e-06
138.912
1.59693e-06
138.896
1.47573e-06
138.88
1.36757e-06
138.866
2.79084e-06
138.853
4.33459e-07
138.842
1.64017e-06
138.832
1.95001e-06
138.824
1.52291e-06
138.817
1.84052e-06
138.811
1.6657e-06
138.805
1.76531e-06
138.8
1.73187e-06
138.795
1.79559e-06
138.79
1.76496e-06
138.784
2.19339e-06
138.778
4.2391e-06
138.772
2.0367e-05
138.765
0.000133401
138.758
0.000945502
138.748
0.00677286
138.725
0.0487592
138.567
0.388778
1.67426
138.006
11.5941
-0.000327737
11.594
-0.000235106
11.5939
-0.00022463
11.5939
-0.000226666
11.5938
-0.000227119
11.5937
-0.000226905
11.5937
-0.00022685
11.5937
-0.000226866
11.5936
-0.000226888
11.5937
-0.000226922
11.5937
-0.000226972
11.5937
-0.000227018
11.5938
-0.000227132
11.5939
-0.000227168
11.594
-0.000227268
11.5941
-0.00022736
11.5942
-0.000227448
11.5943
-0.000227536
11.5944
-0.000227624
11.5945
-0.000227711
11.5945
-0.0002278
11.5946
-0.000227884
11.5946
-0.000228007
11.5947
-0.000228087
11.5947
-0.000228206
11.5947
-0.000228321
11.5948
-0.000228442
11.5948
-0.000228568
11.5948
-0.000228693
11.5947
-0.000228815
11.5947
-0.000228929
11.5947
-0.00022903
11.5946
-0.000229109
11.5945
-0.000229156
11.5945
-0.000229154
11.5944
-0.000229081
11.5943
-0.000228907
11.5942
-0.00022856
11.5942
-0.000228295
11.5941
-0.000227175
11.5941
-0.000226252
11.5941
-0.00022476
11.5941
-0.000222748
11.5942
-0.000220122
11.5942
-0.000216775
11.5942
-0.000212618
11.5943
-0.000207552
11.5943
-0.00020152
11.5943
-0.000194487
11.5944
-0.000186448
11.5944
-0.00017744
11.5944
-0.000167539
11.5944
-0.000156857
11.5944
-0.000145545
11.5944
-0.000133779
11.5944
-0.000121741
11.5944
-0.000109684
11.5943
-9.77341e-05
11.5942
-8.61451e-05
11.5941
-7.50773e-05
11.5939
-6.46652e-05
11.5938
-5.50283e-05
11.5936
-4.62459e-05
11.5934
-3.83635e-05
11.5932
-3.13936e-05
11.593
-2.53212e-05
11.5928
-2.01064e-05
11.5925
-1.56916e-05
11.5923
-1.2006e-05
11.5921
-8.97119e-06
11.5919
-6.50562e-06
11.5917
-4.52889e-06
11.5916
-2.96481e-06
11.5914
-1.74234e-06
11.5913
-7.98791e-07
11.5913
-8.01047e-08
11.5912
4.62151e-07
11.5912
8.6551e-07
11.5912
1.15166e-06
11.5912
1.3775e-06
11.5913
1.53125e-06
11.5914
1.6394e-06
11.5915
1.71608e-06
11.5916
1.76963e-06
11.5917
1.80558e-06
11.5918
1.82981e-06
11.5919
1.84493e-06
11.592
1.85358e-06
11.592
1.85744e-06
11.5921
1.85781e-06
11.5921
1.85576e-06
11.5921
1.85088e-06
11.592
1.8479e-06
11.5919
1.84421e-06
11.5918
1.83053e-06
11.5917
1.82876e-06
11.5915
1.81849e-06
11.5912
1.81313e-06
11.591
1.80779e-06
11.5907
1.80275e-06
11.5904
1.79842e-06
11.5901
1.79473e-06
11.5898
1.79359e-06
11.5895
1.79291e-06
11.5892
1.79438e-06
11.5889
1.79723e-06
11.5886
1.80104e-06
11.5884
1.80627e-06
11.5883
1.81268e-06
11.5882
1.82035e-06
11.5881
1.82835e-06
11.5881
1.83728e-06
11.5882
1.8428e-06
11.5883
1.85479e-06
11.5884
1.86452e-06
11.5886
1.87349e-06
11.5889
1.88113e-06
11.5891
1.88875e-06
11.5894
1.8947e-06
11.5898
1.89865e-06
11.5901
1.90025e-06
11.5904
1.90026e-06
11.5907
1.89965e-06
11.591
1.89732e-06
11.5912
1.89432e-06
11.5914
1.88907e-06
11.5916
1.88278e-06
11.5917
1.875e-06
11.5918
1.86595e-06
11.5917
1.8556e-06
11.5916
1.84973e-06
11.5915
1.83685e-06
11.5912
1.82524e-06
11.5909
1.81485e-06
11.5906
1.80471e-06
11.5901
1.79656e-06
11.5897
1.78858e-06
11.5892
1.78482e-06
11.5886
1.78233e-06
11.5881
1.77927e-06
11.5876
1.77983e-06
11.5871
1.78369e-06
11.5867
1.78963e-06
11.5863
1.79933e-06
11.5859
1.80898e-06
11.5857
1.82293e-06
11.5855
1.833e-06
11.5855
1.83236e-06
11.5855
1.92643e-06
11.5855
1.84142e-06
11.5857
1.87463e-06
11.5859
1.90576e-06
11.5862
1.90581e-06
11.5865
1.93219e-06
11.5869
1.92337e-06
11.5872
1.94212e-06
11.5876
1.9377e-06
11.5879
1.94346e-06
11.5882
1.94017e-06
11.5885
1.94411e-06
11.5887
1.93677e-06
11.5889
1.92899e-06
11.5889
1.92046e-06
11.5889
1.91199e-06
11.5888
1.90451e-06
11.5885
1.89007e-06
11.5882
1.87788e-06
11.5876
1.86635e-06
11.587
1.89648e-06
11.5862
1.64192e-06
11.5852
1.99472e-06
11.5841
1.83039e-06
11.5829
1.71972e-06
11.5817
1.81921e-06
11.5803
1.76149e-06
11.5789
1.80686e-06
11.5774
1.7671e-06
11.576
1.81716e-06
11.5747
1.78582e-06
11.5734
1.76441e-06
11.5722
2.23609e-06
11.5711
1.49433e-06
11.5701
1.90805e-06
11.5693
2.03699e-06
11.5686
1.91587e-06
11.568
2.03962e-06
11.5675
1.99135e-06
11.5671
2.03746e-06
11.5667
2.03623e-06
11.5663
2.06454e-06
11.5658
2.05859e-06
11.5654
2.20673e-06
11.5649
2.90544e-06
11.5643
8.40148e-06
11.5639
4.69328e-05
11.5639
0.000324103
11.5677
0.00233123
11.5984
0.0174061
11.7968
0.189581
0.722107
12.7481
5.79669
5.79639
5.7961
5.79582
5.79554
5.79527
5.79501
5.79475
5.7945
5.79426
5.79403
5.79381
5.7936
5.79341
5.79322
5.79303
5.79284
5.79265
5.79245
5.79224
5.79203
5.79181
5.79159
5.79137
5.79114
5.79091
5.79067
5.79043
5.79019
5.78993
5.78968
5.78941
5.78914
5.78886
5.78857
5.78828
5.78799
5.78771
5.78744
5.78718
5.78694
5.7867
5.78646
5.78624
5.78602
5.78581
5.78561
5.78541
5.78522
5.78504
5.78487
5.7847
5.78454
5.78439
5.78424
5.78409
5.78395
5.78381
5.78367
5.78354
5.7834
5.78326
5.78312
5.78298
5.78285
5.78271
5.78258
5.78245
5.78233
5.78221
5.78211
5.78201
5.78193
5.78186
5.78181
5.78177
5.78175
5.78174
5.78174
5.78176
5.78179
5.78183
5.78188
5.78193
5.78199
5.78204
5.7821
5.78214
5.78218
5.7822
5.78221
5.78221
5.78219
5.78215
5.78209
5.78201
5.78192
5.78181
5.78168
5.78154
5.78139
5.78124
5.78108
5.78093
5.78078
5.78065
5.78053
5.78043
5.78035
5.7803
5.78027
5.78027
5.7803
5.78035
5.78043
5.78054
5.78066
5.7808
5.78095
5.78111
5.78128
5.78144
5.78159
5.78174
5.78186
5.78197
5.78206
5.78211
5.78213
5.78212
5.78208
5.78199
5.78188
5.78173
5.78155
5.78134
5.7811
5.78085
5.7806
5.78033
5.78008
5.77984
5.77961
5.77942
5.77926
5.77914
5.77906
5.77903
5.77903
5.77907
5.77916
5.77927
5.77941
5.77957
5.77975
5.77993
5.78011
5.78028
5.78044
5.78058
5.78069
5.78077
5.7808
5.78079
5.78073
5.7806
5.78042
5.78016
5.77983
5.77942
5.77896
5.77842
5.77783
5.77718
5.7765
5.7758
5.77508
5.77438
5.77369
5.77305
5.77245
5.77191
5.77144
5.77103
5.77069
5.7704
5.77015
5.76993
5.76973
5.76952
5.76931
5.76908
5.76883
5.76857
5.76833
5.76836
5.77038
5.78745
5.97665
6.6983
5.08906
0.127122
5.09619
-0.0072644
5.09224
0.00382339
5.09576
-0.00362909
5.10695
-0.0112956
5.11867
-0.0117721
5.14689
-0.0282155
5.25505
-0.108235
5.42632
-0.171552
5.55956
-0.133827
5.56348
-0.00453849
5.48507
0.0779958
5.35624
0.128466
5.20868
0.147205
5.14891
0.0599567
5.38142
-0.230838
5.90706
-0.523891
6.56543
-0.657708
7.16388
-0.599147
-0.721681
7.88414
10.6531
0.180654
10.672
-0.0263764
10.7195
-0.0439194
10.7733
-0.0577369
10.8362
-0.0743867
10.9003
-0.0759518
10.9916
-0.119486
11.2437
-0.360439
11.6269
-0.555412
11.962
-0.47017
12.0524
-0.0959893
11.9721
0.157685
11.7631
0.336872
11.4472
0.462565
11.1809
0.326605
11.3864
-0.432543
12.1355
-1.27006
13.2493
-1.77095
14.3524
-1.70453
-1.97914
15.6065
138.059
0.125635
138.137
-0.10689
138.148
-0.057649
137.995
0.0927124
137.689
0.229816
137.287
0.323477
136.791
0.37573
136.059
0.367926
135.103
0.398976
134.262
0.368759
133.803
0.360462
133.628
0.330284
133.661
0.29954
133.85
0.269583
133.93
0.240408
133.278
0.211891
131.824
0.178272
129.924
0.126795
128.184
0.0386837
-0.193145
126.4
12.6916
0.181897
12.5917
-0.0070821
12.5428
-0.00900863
12.6124
0.0228488
12.7856
0.0562793
13.0253
0.0833068
13.2988
0.101387
13.5636
0.103486
13.8497
0.112315
14.1131
0.105583
14.3727
0.100873
14.6124
0.0904161
14.8335
0.0783027
15.0367
0.0662428
15.2225
0.0544028
15.3926
0.0415734
15.5475
0.023125
15.6843
-0.010404
15.7971
-0.0744841
-0.262976
15.8665
6.88012
6.87295
6.86385
6.88657
6.94268
7.02576
7.12686
7.23039
7.34252
7.44815
7.54904
7.63941
7.71765
7.78381
7.83812
7.87959
7.90257
7.892
7.81734
7.55417
7.55416
0.329411
7.50538
0.0480357
7.83995
-0.334924
8.00029
-0.162204
8.00269
-0.00365142
7.96933
0.0324831
7.96091
0.00742005
7.97618
-0.0162796
7.98558
-0.0104403
7.98524
-0.000605668
7.98239
0.00193024
7.98076
0.00071169
7.98053
-0.000656985
7.97872
0.000933385
7.97589
0.00198139
7.97209
0.00297228
7.96768
0.0035915
7.96294
0.00393717
7.95798
0.00416856
7.95286
0.00433522
7.94766
0.00443801
7.94244
0.00446679
7.93729
0.0044175
7.93227
0.0042954
7.92745
0.00411041
7.92289
0.00387254
7.91863
0.00359044
7.91471
0.00327236
7.91116
0.00292807
7.90798
0.00257033
7.90518
0.00221528
7.90273
0.0018821
7.90058
0.00159138
7.89866
0.00136293
7.89691
0.00121285
7.89522
0.00115022
7.8935
0.0011756
7.89168
0.00127483
7.88972
0.0014068
7.8877
0.00144376
7.88608
0.00103749
7.88641
-0.000940548
7.89154
-0.00575723
7.89892
-0.00807445
7.90434
-0.00616488
7.90573
-0.00216336
7.90381
0.00111021
7.90079
0.00220005
7.89773
0.00219216
7.89484
0.00198674
7.89218
0.00173936
7.88965
0.00156912
7.88714
0.00151705
7.88451
0.00161692
7.88157
0.00190649
7.87812
0.0024033
7.87383
0.00322392
7.86838
0.00438871
7.86135
0.0059616
7.85231
0.00799451
7.84075
0.0105182
7.82621
0.0135327
7.8082
0.017012
7.7863
0.0209205
7.76013
0.0252199
7.72927
0.0298983
7.6933
0.035023
7.65166
0.0407383
7.60356
0.0472337
7.54799
0.0547468
7.48375
0.0634482
7.40957
0.0733996
7.3242
0.0845254
7.22653
0.0964523
7.11658
0.108045
6.99583
0.119262
6.86648
0.128405
6.73144
0.134367
6.59501
0.136271
6.4615
0.134159
6.33473
0.127014
6.21827
0.116308
6.11485
0.103003
6.02588
0.0883963
5.95154
0.0737207
5.89097
0.0599159
5.84268
0.0476076
5.80491
0.0371092
5.77583
0.028439
5.75372
0.0214795
5.73708
0.0160192
5.72465
0.0118148
5.71541
0.00862766
5.70855
0.00624365
5.70346
0.00448083
5.69967
0.00319055
5.69682
0.00225485
5.69464
0.001582
5.69295
0.00110209
5.69161
0.000762581
5.69052
0.000523803
5.6896
0.000357303
5.68882
0.000241992
5.68813
0.000162685
5.68751
0.000108522
5.68695
7.17873e-05
5.68644
4.70447e-05
5.68596
3.04846e-05
5.68552
1.95094e-05
5.68511
1.22548e-05
5.68474
7.49576e-06
5.68439
4.40092e-06
5.68407
2.40172e-06
5.68378
1.11938e-06
5.68351
3.02345e-07
5.68328
-2.16032e-07
5.68306
-5.39025e-07
5.68287
-7.40314e-07
5.6827
-8.63203e-07
5.68255
-9.36379e-07
5.68241
-9.78067e-07
5.68229
-1.0001e-06
5.68218
-1.00999e-06
5.68207
-1.01092e-06
5.68197
-1.00602e-06
5.68187
-9.9779e-07
5.68177
-9.86265e-07
5.68166
-9.73716e-07
5.68155
-9.60583e-07
5.68142
-9.46244e-07
5.68129
-9.30211e-07
5.68114
-9.14093e-07
5.68097
-9.06384e-07
5.68079
-8.87092e-07
5.6806
-8.54752e-07
5.68039
-8.46274e-07
5.68018
-8.33172e-07
5.67995
-8.23426e-07
5.67971
-8.1404e-07
5.67947
-8.05599e-07
5.67923
-7.98851e-07
5.67899
-7.95295e-07
5.67875
-7.93025e-07
5.67853
-7.92674e-07
5.67832
-7.95622e-07
5.67812
-7.99459e-07
5.67793
-8.04463e-07
5.67777
-8.14558e-07
5.67763
-8.22854e-07
5.67751
-8.32859e-07
5.67741
-8.43884e-07
5.67734
-8.56806e-07
5.67728
-8.70212e-07
5.67725
-8.86957e-07
5.67724
-9.0405e-07
5.67725
-8.65197e-07
5.67727
-9.4302e-07
5.67732
-9.44425e-07
5.67738
-9.46769e-07
5.67746
-9.64465e-07
5.67755
-9.66222e-07
5.67765
-9.84661e-07
5.67777
-9.89456e-07
5.6779
-1.00099e-06
5.67804
-1.00323e-06
5.67819
-1.0165e-06
5.67833
-1.01394e-06
5.67848
-1.02257e-06
5.67862
-1.01496e-06
5.67874
-1.02226e-06
5.67885
-1.00741e-06
5.67894
-1.0131e-06
5.67899
-9.90673e-07
5.67902
-9.92824e-07
5.679
-9.66667e-07
5.67894
-9.66884e-07
5.67883
-9.35654e-07
5.67868
-9.43366e-07
5.67847
-9.73223e-07
5.67821
-4.78487e-07
5.67791
-1.32642e-06
5.67755
-7.93276e-07
5.67715
-7.12309e-07
5.67672
-9.27566e-07
5.67624
-7.41811e-07
5.67574
-8.57946e-07
5.67522
-7.38048e-07
5.67469
-8.33668e-07
5.67416
-7.53749e-07
5.67363
-8.71571e-07
5.67313
-9.87444e-07
5.67265
-2.01405e-06
5.67221
-6.90688e-06
5.67184
-3.25392e-05
5.67163
-0.000164875
5.67215
-0.000852283
5.67632
-0.00446635
5.70012
-0.0240812
5.87395
-0.174084
-0.677894
6.55161
15.1146
0.820703
14.652
0.509655
15.0628
-0.746446
15.3713
-0.474225
15.4081
-0.0430349
15.3344
0.1044
15.2953
0.0445137
15.3118
-0.0347982
15.3314
-0.0320678
15.3338
-0.00489925
15.328
0.00584561
15.324
0.00291585
15.3246
-0.00301901
15.3237
4.62416e-05
15.3211
0.00286933
15.3164
0.00604618
15.3101
0.00823409
15.3029
0.00959304
15.2949
0.0105702
15.2863
0.0113313
15.2774
0.0118951
15.2681
0.0122358
15.2587
0.0123391
15.2493
0.0122182
15.2401
0.0119024
15.2312
0.0114231
15.2226
0.0108088
15.2145
0.0100862
15.2069
0.00928623
15.1998
0.00844905
15.1932
0.00762691
15.1871
0.00688426
15.1813
0.00629449
15.1756
0.00593388
15.1698
0.00587272
15.1637
0.00616425
15.157
0.00683797
15.1493
0.00787965
15.1404
0.0091826
15.1303
0.0103825
15.1197
0.0104207
15.1118
0.00571759
15.1146
-0.00984423
15.1272
-0.0219704
15.1419
-0.0223465
15.152
-0.0137968
15.1552
-0.00368743
15.154
0.0017473
15.1507
0.00379922
15.146
0.00486023
15.1403
0.00556513
15.1336
0.00635578
15.1257
0.00741436
15.1164
0.00887735
15.1054
0.0108657
15.0922
0.0134262
15.0764
0.0168947
15.0574
0.0212956
15.0344
0.0267823
15.0068
0.0334827
14.9738
0.0414605
14.9346
0.0507072
14.8884
0.0611438
14.8347
0.0726397
14.7728
0.0851172
14.7022
0.0985533
14.6223
0.113079
14.5322
0.129046
14.4309
0.146912
14.3168
0.167169
14.1886
0.190064
14.0448
0.215477
13.8842
0.242729
13.7072
0.270296
13.516
0.296639
13.314
0.319533
13.1049
0.336134
12.8942
0.344293
12.6882
0.342979
12.4917
0.330992
12.3092
0.309193
12.1448
0.279943
12.0009
0.245878
11.8782
0.209881
11.7761
0.17455
11.693
0.141801
11.6265
0.112831
11.5741
0.0881989
11.5334
0.0678624
11.5022
0.0515011
11.4783
0.0386134
11.4603
0.0286388
11.4467
0.0210332
11.4364
0.0153082
11.4286
0.0110474
11.4227
0.00790854
11.4181
0.00561768
11.4145
0.00396039
11.4117
0.00277168
11.4094
0.00192574
11.4074
0.00132806
11.4058
0.000909336
11.4043
0.00061814
11.403
0.00041713
11.4018
0.000279403
11.4007
0.00018573
11.3997
0.000122488
11.3988
8.00988e-05
11.3979
5.19098e-05
11.3971
3.32884e-05
11.3963
2.10717e-05
11.3956
1.31205e-05
11.395
7.98323e-06
11.3944
4.68871e-06
11.3939
2.59101e-06
11.3934
1.26138e-06
11.393
4.31944e-07
11.3926
-8.8368e-08
11.3922
-4.07498e-07
11.3919
-6.0216e-07
11.3917
-7.18362e-07
11.3914
-7.85864e-07
11.3912
-8.23537e-07
11.391
-8.4184e-07
11.3908
-8.4807e-07
11.3906
-8.47048e-07
11.3904
-8.40784e-07
11.3901
-8.3212e-07
11.3899
-8.22013e-07
11.3897
-8.1043e-07
11.3894
-7.97136e-07
11.3891
-7.84084e-07
11.3888
-7.75981e-07
11.3884
-7.58203e-07
11.388
-7.35501e-07
11.3876
-7.28984e-07
11.3872
-7.11028e-07
11.3867
-7.06072e-07
11.3862
-6.97819e-07
11.3857
-6.907e-07
11.3853
-6.84815e-07
11.3848
-6.81958e-07
11.3843
-6.79804e-07
11.3838
-6.79744e-07
11.3834
-6.81824e-07
11.383
-6.85769e-07
11.3826
-6.87873e-07
11.3823
-6.99959e-07
11.382
-7.05564e-07
11.3818
-7.14128e-07
11.3816
-7.23395e-07
11.3814
-7.35548e-07
11.3813
-7.44383e-07
11.3813
-7.64447e-07
11.3812
-7.76841e-07
11.3813
-7.02166e-07
11.3813
-8.31751e-07
11.3814
-8.25741e-07
11.3815
-8.05537e-07
11.3817
-8.34919e-07
11.3818
-8.18713e-07
11.3821
-8.49995e-07
11.3823
-8.45197e-07
11.3826
-8.61369e-07
11.3828
-8.53088e-07
11.3831
-8.79351e-07
11.3834
-8.6352e-07
11.3837
-8.8423e-07
11.384
-8.61095e-07
11.3842
-8.8691e-07
11.3844
-8.51503e-07
11.3846
-8.82364e-07
11.3847
-8.34929e-07
11.3847
-8.64437e-07
11.3847
-8.15075e-07
11.3846
-8.44423e-07
11.3844
-7.87714e-07
11.3841
-8.39139e-07
11.3836
-9.77712e-07
11.3831
4.9694e-07
11.3825
-2.1208e-06
11.3818
-5.54415e-07
11.381
-3.4513e-07
11.3801
-1.01562e-06
11.3792
-4.96394e-07
11.3782
-8.59643e-07
11.3771
-5.21819e-07
11.3761
-8.1355e-07
11.375
-5.80375e-07
11.3739
-9.22774e-07
11.3729
-1.24802e-06
11.372
-4.24721e-06
11.3711
-1.8594e-05
11.3703
-9.38438e-05
11.3699
-0.00048238
11.3709
-0.00249787
11.3788
-0.0129908
11.4218
-0.0676387
11.6227
-0.375511
-1.55594
12.5003
127.184
0.0172017
127.636
0.0384884
126.805
0.0613359
126.276
0.0329641
126.212
-0.00164124
126.303
-0.00982556
126.326
-0.0017731
126.268
-0.00108026
126.218
-0.00505079
126.195
-0.00535799
126.182
-0.00393489
126.167
-0.00347545
126.147
-0.00437282
126.132
-0.00522462
126.12
-0.00557526
126.112
-0.00570982
126.107
-0.00590152
126.104
-0.00623154
126.102
-0.00663557
126.102
-0.00703037
126.103
-0.00736394
126.105
-0.00761298
126.107
-0.0077672
126.11
-0.00781916
126.112
-0.00776433
126.115
-0.00760449
126.117
-0.00735007
126.118
-0.00701847
126.119
-0.0066313
126.119
-0.00620906
126.118
-0.00576651
126.117
-0.00530997
126.114
-0.0048398
126.112
-0.00433949
126.108
-0.0038269
126.105
-0.00326229
126.102
-0.00261846
126.098
-0.00181122
126.095
-0.000979945
126.091
-0.000188038
126.087
0.00034467
126.077
0.000742255
126.05
0.000478233
126.013
-0.0013667
125.977
-0.00377284
125.949
-0.00498133
125.931
-0.00517466
125.918
-0.00499503
125.905
-0.00518128
125.894
-0.00581839
125.884
-0.0070116
125.876
-0.00880074
125.871
-0.0112734
125.871
-0.0146124
125.88
-0.0190731
125.902
-0.0248731
125.935
-0.0327238
125.981
-0.0430018
126.044
-0.0563315
126.13
-0.0733107
126.245
-0.0944121
126.393
-0.119934
126.581
-0.149762
126.814
-0.183244
127.096
-0.219027
127.427
-0.255125
127.808
-0.288928
128.233
-0.317652
128.699
-0.338712
129.197
-0.350578
129.721
-0.353199
130.266
-0.34744
130.826
-0.334793
131.397
-0.317079
131.974
-0.295783
132.55
-0.271554
133.116
-0.24564
133.664
-0.218208
134.182
-0.190403
134.662
-0.163385
135.094
-0.137916
135.474
-0.114576
135.799
-0.0938643
136.07
-0.0759729
136.29
-0.0608252
136.466
-0.0482429
136.602
-0.0379119
136.705
-0.0295209
136.781
-0.0227777
136.836
-0.017412
136.873
-0.0131848
136.897
-0.00988873
136.911
-0.00734556
136.917
-0.00540418
136.918
-0.00393782
136.914
-0.00284185
136.908
-0.0020316
136.899
-0.00143885
136.888
-0.00100932
136.877
-0.000701433
136.865
-0.00048295
136.853
-0.000329413
136.841
-0.000222568
136.829
-0.000148934
136.817
-9.86717e-05
136.806