/*--------------------------------*- C++ -*----------------------------------*\
| =========                 |                                                 |
| \\      /  F ield         | OpenFOAM: The Open Source CFD Toolbox           |
|  \\    /   O peration     | Version:  3.0.x                                 |
|   \\  /    A nd           | Web:      www.OpenFOAM.org                      |
|    \\/     M anipulation  |                                                 |
\*---------------------------------------------------------------------------*/
FoamFile
{
    version     2.0;
    format      ascii;
    class       volScalarField;
    location    "0.33";
    object      rho;
}
// * * * * * * * * * * * * * * * * * * * * * * * * * * * * * * * * * * * * * //

dimensions      [1 -3 0 0 0 0 0];

internalField   nonuniform List<scalar> 
6900
(
50.9111
50.9111
50.9111
50.9111
50.9111
50.9111
50.911
50.911
50.911
50.911
50.9109
50.9109
50.9109
50.911
50.9112
50.9114
50.9115
50.9117
50.9117
50.9118
50.9118
50.9118
50.9119
50.912
50.9122
50.9123
50.9126
50.9128
50.9131
50.9134
50.9137
50.914
50.9142
50.9144
50.9146
50.9147
50.9147
50.9148
50.9149
50.915
50.9152
50.9154
50.9155
50.9157
50.9158
50.9159
50.9159
50.916
50.916
50.916
50.9159
50.9159
50.9159
50.9159
50.9159
50.9159
50.9159
50.9159
50.9159
50.916
50.916
50.9161
50.9161
50.9162
50.9163
50.9164
50.9164
50.9165
50.9166
50.9167
50.9168
50.9169
50.9169
50.917
50.917
50.917
50.9171
50.9171
50.9171
50.9171
50.917
50.917
50.9169
50.9169
50.9168
50.9168
50.9167
50.9167
50.9166
50.9166
50.9165
50.9165
50.9165
50.9165
50.9165
50.9165
50.9165
50.9166
50.9167
50.9167
50.9168
50.9169
50.917
50.9171
50.9172
50.9173
50.9174
50.9175
50.9176
50.9176
50.9177
50.9177
50.9177
50.9177
50.9177
50.9176
50.9176
50.9175
50.9174
50.9173
50.9172
50.9171
50.917
50.9169
50.9168
50.9167
50.9166
50.9165
50.9165
50.9164
50.9164
50.9164
50.9165
50.9165
50.9166
50.9167
50.9168
50.9169
50.917
50.9172
50.9173
50.9174
50.9175
50.9176
50.9177
50.9178
50.9178
50.9178
50.9178
50.9177
50.9177
50.9176
50.9174
50.9173
50.9171
50.9169
50.9168
50.9166
50.9164
50.9162
50.916
50.9158
50.9157
50.9155
50.9154
50.9153
50.9152
50.9151
50.9151
50.9151
50.9151
50.9152
50.9152
50.9153
50.9154
50.9156
50.9157
50.9157
50.9158
50.9158
50.9158
50.9158
50.9156
50.9154
50.9152
50.9149
50.9146
50.9142
50.9138
50.9133
50.9129
50.9124
50.912
50.9115
50.911
50.9105
50.9101
50.9095
50.9094
50.906
50.9113
50.9113
50.9113
50.9113
50.9112
50.9112
50.9112
50.9112
50.9111
50.9111
50.9111
50.9111
50.9111
50.9112
50.9114
50.9115
50.9117
50.9118
50.9119
50.9119
50.9119
50.912
50.912
50.9121
50.9123
50.9125
50.9127
50.913
50.9133
50.9135
50.9138
50.9141
50.9144
50.9146
50.9147
50.9148
50.9148
50.9149
50.915
50.9151
50.9153
50.9155
50.9157
50.9158
50.9159
50.916
50.9161
50.9161
50.9161
50.9161
50.916
50.916
50.916
50.916
50.916
50.916
50.916
50.916
50.916
50.9161
50.9161
50.9162
50.9162
50.9163
50.9164
50.9165
50.9165
50.9166
50.9167
50.9168
50.9169
50.917
50.917
50.9171
50.9171
50.9171
50.9172
50.9172
50.9172
50.9172
50.9171
50.9171
50.917
50.917
50.9169
50.9169
50.9168
50.9168
50.9167
50.9167
50.9166
50.9166
50.9166
50.9166
50.9166
50.9166
50.9167
50.9167
50.9168
50.9168
50.9169
50.917
50.9171
50.9172
50.9173
50.9174
50.9175
50.9176
50.9177
50.9177
50.9178
50.9178
50.9178
50.9178
50.9178
50.9177
50.9177
50.9176
50.9175
50.9174
50.9173
50.9172
50.9171
50.917
50.9169
50.9168
50.9167
50.9166
50.9166
50.9165
50.9165
50.9165
50.9166
50.9166
50.9167
50.9168
50.9169
50.917
50.9171
50.9173
50.9174
50.9175
50.9176
50.9177
50.9178
50.9179
50.9179
50.9179
50.9179
50.9178
50.9178
50.9177
50.9175
50.9174
50.9172
50.917
50.9169
50.9167
50.9165
50.9163
50.9161
50.9159
50.9158
50.9156
50.9155
50.9154
50.9153
50.9152
50.9152
50.9152
50.9152
50.9153
50.9153
50.9154
50.9155
50.9157
50.9158
50.9158
50.9159
50.9159
50.9159
50.9158
50.9157
50.9155
50.9153
50.915
50.9147
50.9143
50.9139
50.9134
50.913
50.9125
50.9121
50.9116
50.9111
50.9106
50.9101
50.9096
50.9095
50.9064
50.9113
50.9113
50.9113
50.9112
50.9112
50.9112
50.9112
50.9112
50.9111
50.9111
50.9111
50.9111
50.9111
50.9112
50.9114
50.9115
50.9117
50.9118
50.9119
50.9119
50.9119
50.912
50.912
50.9121
50.9123
50.9125
50.9127
50.913
50.9132
50.9135
50.9138
50.9141
50.9144
50.9146
50.9147
50.9148
50.9148
50.9149
50.915
50.9151
50.9153
50.9155
50.9157
50.9158
50.9159
50.916
50.9161
50.9161
50.9161
50.9161
50.916
50.916
50.916
50.916
50.916
50.916
50.916
50.916
50.916
50.9161
50.9161
50.9162
50.9162
50.9163
50.9164
50.9165
50.9165
50.9166
50.9167
50.9168
50.9169
50.917
50.917
50.9171
50.9171
50.9171
50.9172
50.9172
50.9172
50.9172
50.9171
50.9171
50.917
50.917
50.9169
50.9169
50.9168
50.9168
50.9167
50.9167
50.9166
50.9166
50.9166
50.9166
50.9166
50.9166
50.9167
50.9167
50.9168
50.9168
50.9169
50.917
50.9171
50.9172
50.9173
50.9174
50.9175
50.9176
50.9177
50.9177
50.9178
50.9178
50.9178
50.9178
50.9178
50.9177
50.9177
50.9176
50.9175
50.9174
50.9173
50.9172
50.9171
50.917
50.9169
50.9168
50.9167
50.9166
50.9166
50.9165
50.9165
50.9165
50.9166
50.9166
50.9167
50.9168
50.9169
50.917
50.9171
50.9173
50.9174
50.9175
50.9176
50.9177
50.9178
50.9179
50.9179
50.9179
50.9179
50.9178
50.9178
50.9177
50.9175
50.9174
50.9172
50.917
50.9169
50.9167
50.9165
50.9163
50.9161
50.9159
50.9158
50.9156
50.9155
50.9154
50.9153
50.9152
50.9152
50.9152
50.9152
50.9153
50.9153
50.9154
50.9155
50.9157
50.9158
50.9158
50.9159
50.9159
50.9159
50.9158
50.9157
50.9155
50.9153
50.915
50.9147
50.9143
50.9139
50.9134
50.913
50.9125
50.9121
50.9116
50.9111
50.9106
50.9101
50.9096
50.9092
50.9086
50.9113
50.9113
50.9113
50.9113
50.9112
50.9112
50.9112
50.9112
50.9111
50.9111
50.9111
50.9111
50.9111
50.9112
50.9114
50.9115
50.9117
50.9118
50.9119
50.9119
50.9119
50.912
50.912
50.9121
50.9123
50.9125
50.9127
50.913
50.9133
50.9135
50.9138
50.9141
50.9144
50.9146
50.9147
50.9148
50.9148
50.9149
50.915
50.9151
50.9153
50.9155
50.9157
50.9158
50.9159
50.916
50.9161
50.9161
50.9161
50.9161
50.916
50.916
50.916
50.916
50.916
50.916
50.916
50.916
50.916
50.9161
50.9161
50.9162
50.9162
50.9163
50.9164
50.9165
50.9165
50.9166
50.9167
50.9168
50.9169
50.917
50.917
50.9171
50.9171
50.9171
50.9172
50.9172
50.9172
50.9172
50.9171
50.9171
50.917
50.917
50.9169
50.9169
50.9168
50.9168
50.9167
50.9167
50.9166
50.9166
50.9166
50.9166
50.9166
50.9166
50.9167
50.9167
50.9168
50.9168
50.9169
50.917
50.9171
50.9172
50.9173
50.9174
50.9175
50.9176
50.9177
50.9177
50.9178
50.9178
50.9178
50.9178
50.9178
50.9177
50.9177
50.9176
50.9175
50.9174
50.9173
50.9172
50.9171
50.917
50.9169
50.9168
50.9167
50.9166
50.9166
50.9165
50.9165
50.9165
50.9166
50.9166
50.9167
50.9168
50.9169
50.917
50.9171
50.9173
50.9174
50.9175
50.9176
50.9177
50.9178
50.9179
50.9179
50.9179
50.9179
50.9178
50.9178
50.9177
50.9175
50.9174
50.9172
50.917
50.9169
50.9167
50.9165
50.9163
50.9161
50.9159
50.9158
50.9156
50.9155
50.9154
50.9153
50.9152
50.9152
50.9152
50.9152
50.9153
50.9153
50.9154
50.9155
50.9157
50.9158
50.9158
50.9159
50.9159
50.9159
50.9159
50.9157
50.9155
50.9153
50.915
50.9147
50.9143
50.9139
50.9134
50.913
50.9125
50.9121
50.9116
50.9111
50.9106
50.9101
50.9097
50.9082
50.9142
50.9111
50.9111
50.9111
50.9111
50.9111
50.9111
50.911
50.911
50.911
50.911
50.9109
50.9109
50.9109
50.911
50.9112
50.9114
50.9115
50.9117
50.9117
50.9118
50.9118
50.9118
50.9119
50.912
50.9122
50.9123
50.9126
50.9128
50.9131
50.9134
50.9137
50.914
50.9142
50.9144
50.9146
50.9147
50.9147
50.9148
50.9149
50.915
50.9152
50.9154
50.9155
50.9157
50.9158
50.9159
50.9159
50.916
50.916
50.916
50.9159
50.9159
50.9159
50.9159
50.9159
50.9159
50.9159
50.9159
50.9159
50.916
50.916
50.9161
50.9161
50.9162
50.9163
50.9164
50.9164
50.9165
50.9166
50.9167
50.9168
50.9169
50.9169
50.917
50.917
50.917
50.9171
50.9171
50.9171
50.9171
50.917
50.917
50.9169
50.9169
50.9168
50.9168
50.9167
50.9167
50.9166
50.9166
50.9165
50.9165
50.9165
50.9165
50.9165
50.9165
50.9165
50.9166
50.9167
50.9167
50.9168
50.9169
50.917
50.9171
50.9172
50.9173
50.9174
50.9175
50.9176
50.9176
50.9177
50.9177
50.9177
50.9177
50.9177
50.9176
50.9176
50.9175
50.9174
50.9173
50.9172
50.9171
50.917
50.9169
50.9168
50.9167
50.9166
50.9165
50.9165
50.9164
50.9164
50.9164
50.9165
50.9165
50.9166
50.9167
50.9168
50.9169
50.917
50.9172
50.9173
50.9174
50.9175
50.9176
50.9177
50.9178
50.9178
50.9178
50.9178
50.9177
50.9177
50.9176
50.9174
50.9173
50.9171
50.9169
50.9168
50.9166
50.9164
50.9162
50.916
50.9158
50.9157
50.9155
50.9154
50.9153
50.9152
50.9151
50.9151
50.9151
50.9151
50.9152
50.9152
50.9153
50.9154
50.9156
50.9157
50.9157
50.9158
50.9158
50.9158
50.9158
50.9156
50.9154
50.9152
50.9149
50.9146
50.9142
50.9138
50.9133
50.9129
50.9124
50.912
50.9115
50.911
50.9105
50.91
50.9097
50.9076
50.9199
50.9247
50.9316
50.9322
50.9302
50.9284
50.9267
50.9254
50.9255
50.9245
50.9198
50.9109
50.9023
50.8957
50.8898
50.8869
50.8929
50.9039
50.9101
50.9058
50.8888
50.9211
50.9246
50.9243
50.9224
50.9206
50.919
50.9178
50.9182
50.9171
50.9116
50.9022
50.8941
50.8878
50.8823
50.8797
50.8863
50.8983
50.902
50.8942
50.8743
50.9092
50.909
50.9078
50.9055
50.9026
50.8989
50.8943
50.8888
50.8826
50.8762
50.8695
50.8617
50.8526
50.8425
50.8315
50.8191
50.8059
50.7937
50.7831
50.7741
50.8851
50.8819
50.8828
50.8843
50.8833
50.8796
50.8739
50.8665
50.8601
50.8523
50.8452
50.8381
50.8309
50.8245
50.819
50.8136
50.8089
50.8048
50.8016
50.799
50.8751
50.8624
50.8576
50.857
50.8548
50.8497
50.8429
50.8343
50.8264
50.8172
50.8086
50.7999
50.7919
50.784
50.7772
50.7705
50.7649
50.7597
50.7559
50.7539
50.7965
50.7807
50.7996
50.7966
50.7887
50.7868
50.7864
50.7861
50.7851
50.7844
50.7842
50.7837
50.7833
50.7828
50.7824
50.782
50.7816
50.7811
50.7807
50.7803
50.7799
50.7794
50.779
50.7786
50.7781
50.7777
50.7773
50.7769
50.7765
50.7761
50.7758
50.7755
50.7751
50.7748
50.7745
50.7743
50.774
50.7737
50.7735
50.7733
50.7732
50.7731
50.7731
50.773
50.7727
50.7723
50.772
50.7717
50.7715
50.7712
50.771
50.7707
50.7705
50.7701
50.7698
50.7694
50.7689
50.7684
50.7679
50.7674
50.7669
50.7665
50.7661
50.7657
50.7653
50.7649
50.7642
50.7636
50.7632
50.7628
50.7626
50.7623
50.7617
50.7597
50.7527
50.7447
50.7409
50.7402
50.7417
50.7492
50.7578
50.7628
50.7651
50.7657
50.7655
50.7651
50.7643
50.7637
50.7632
50.7628
50.7625
50.7623
50.7621
50.762
50.7619
50.7618
50.7618
50.7617
50.7616
50.7616
50.7615
50.7614
50.7613
50.7612
50.7611
50.7609
50.7608
50.7606
50.7604
50.7602
50.7599
50.7597
50.7594
50.7591
50.7588
50.7586
50.7583
50.7579
50.7576
50.7573
50.7571
50.7568
50.7565
50.7562
50.756
50.7558
50.7556
50.7554
50.7553
50.7552
50.7551
50.7551
50.7551
50.7551
50.7551
50.7552
50.7553
50.7555
50.7556
50.7558
50.756
50.7562
50.7565
50.7567
50.7569
50.7571
50.7573
50.7575
50.7577
50.7578
50.758
50.7581
50.7581
50.7582
50.7582
50.7582
50.7582
50.7582
50.7581
50.758
50.7579
50.7577
50.7575
50.7574
50.7572
50.7569
50.7567
50.7565
50.7562
50.756
50.7558
50.7555
50.7553
50.7552
50.755
50.7549
50.7548
50.7547
50.7546
50.7547
50.7547
50.7548
50.7549
50.755
50.7552
50.7554
50.7556
50.7558
50.7561
50.7563
50.7565
50.7567
50.7569
50.7571
50.7572
50.7573
50.7573
50.7575
50.7562
50.7652
50.7911
50.7809
50.7988
50.796
50.7881
50.7858
50.7853
50.7849
50.784
50.7834
50.783
50.7826
50.7821
50.7816
50.7813
50.7809
50.7805
50.7801
50.7797
50.7793
50.7788
50.7784
50.778
50.7776
50.7772
50.7767
50.7763
50.7759
50.7755
50.7751
50.7748
50.7744
50.7741
50.7738
50.7735
50.7732
50.7729
50.7726
50.7724
50.7722
50.772
50.7718
50.7717
50.7716
50.7713
50.771
50.7707
50.7705
50.7703
50.7702
50.7699
50.7696
50.7693
50.7689
50.7685
50.768
50.7674
50.7669
50.7664
50.7659
50.7654
50.765
50.7645
50.7639
50.7632
50.7626
50.762
50.7615
50.7612
50.761
50.7607
50.7601
50.7581
50.7524
50.7466
50.7436
50.743
50.7438
50.7489
50.7563
50.7611
50.7636
50.7647
50.7649
50.7647
50.7643
50.7638
50.7634
50.763
50.7627
50.7625
50.7623
50.7622
50.7621
50.762
50.7619
50.7618
50.7618
50.7617
50.7617
50.7616
50.7615
50.7614
50.7613
50.7612
50.761
50.7609
50.7607
50.7605
50.7603
50.76
50.7598
50.7595
50.7592
50.7589
50.7586
50.7583
50.758
50.7577
50.7574
50.7572
50.7569
50.7566
50.7563
50.7561
50.7559
50.7557
50.7555
50.7554
50.7553
50.7552
50.7552
50.7552
50.7552
50.7552
50.7553
50.7554
50.7556
50.7557
50.7559
50.7561
50.7563
50.7566
50.7568
50.757
50.7572
50.7574
50.7576
50.7578
50.7579
50.7581
50.7582
50.7582
50.7583
50.7583
50.7583
50.7583
50.7583
50.7582
50.7581
50.758
50.7578
50.7576
50.7575
50.7573
50.757
50.7568
50.7566
50.7563
50.7561
50.7559
50.7556
50.7554
50.7552
50.7551
50.7549
50.7548
50.7548
50.7547
50.7548
50.7548
50.7549
50.755
50.7551
50.7553
50.7555
50.7557
50.7559
50.7561
50.7564
50.7566
50.7568
50.757
50.7572
50.7573
50.7574
50.7574
50.7575
50.7567
50.7605
50.7514
50.7627
50.7694
50.7699
50.7688
50.768
50.7676
50.7672
50.7668
50.7665
50.7661
50.7658
50.7655
50.7652
50.7649
50.7646
50.7643
50.764
50.7637
50.7633
50.7629
50.7626
50.7621
50.7617
50.7612
50.7608
50.7603
50.7598
50.7594
50.759
50.7586
50.7583
50.758
50.7577
50.7575
50.7572
50.757
50.7567
50.7565
50.7562
50.7559
50.7556
50.7553
50.7549
50.7546
50.7542
50.7538
50.7533
50.7529
50.7525
50.7521
50.7518
50.7515
50.7513
50.7518
50.7541
50.7572
50.7599
50.7621
50.7637
50.7647
50.7652
50.7654
50.7654
50.7652
50.765
50.7647
50.7644
50.764
50.7637
50.7635
50.7633
50.7632
50.7634
50.7635
50.7638
50.7639
50.7641
50.7642
50.7641
50.764
50.7638
50.7636
50.7633
50.7631
50.7629
50.7627
50.7626
50.7624
50.7623
50.7622
50.7621
50.762
50.762
50.7619
50.7619
50.7618
50.7618
50.7617
50.7616
50.7616
50.7615
50.7614
50.7613
50.7612
50.761
50.7609
50.7607
50.7605
50.7603
50.76
50.7598
50.7595
50.7592
50.7589
50.7586
50.7583
50.758
50.7577
50.7574
50.7572
50.7569
50.7566
50.7563
50.7561
50.7559
50.7557
50.7555
50.7554
50.7553
50.7552
50.7552
50.7552
50.7552
50.7552
50.7553
50.7554
50.7556
50.7557
50.7559
50.7561
50.7563
50.7566
50.7568
50.757
50.7572
50.7574
50.7576
50.7578
50.7579
50.7581
50.7582
50.7582
50.7583
50.7583
50.7583
50.7583
50.7583
50.7582
50.7581
50.758
50.7578
50.7576
50.7575
50.7573
50.757
50.7568
50.7566
50.7563
50.7561
50.7559
50.7556
50.7554
50.7552
50.7551
50.7549
50.7548
50.7548
50.7547
50.7547
50.7548
50.7549
50.755
50.7551
50.7553
50.7555
50.7557
50.7559
50.7562
50.7564
50.7566
50.7568
50.757
50.7572
50.7573
50.7574
50.7575
50.7575
50.7575
50.7575
50.7927
50.7913
50.7897
50.7879
50.7867
50.7858
50.7852
50.7848
50.7843
50.784
50.7836
50.7831
50.7827
50.7823
50.7818
50.7814
50.781
50.7805
50.7801
50.7796
50.7792
50.7788
50.7783
50.7779
50.7775
50.777
50.7766
50.7762
50.7759
50.7755
50.7751
50.7748
50.7745
50.7743
50.774
50.7738
50.7736
50.7734
50.7732
50.773
50.7728
50.7726
50.7724
50.7722
50.7719
50.7717
50.7715
50.7713
50.7711
50.7708
50.7706
50.7703
50.77
50.7697
50.7693
50.769
50.7686
50.7682
50.7678
50.7673
50.7667
50.7662
50.7656
50.7649
50.7639
50.7628
50.762
50.7614
50.7608
50.7598
50.7573
50.7546
50.7528
50.7521
50.7519
50.7525
50.7555
50.7598
50.7627
50.7644
50.7651
50.7653
50.7651
50.7647
50.7643
50.7638
50.7634
50.7631
50.7628
50.7626
50.7624
50.7622
50.7621
50.762
50.762
50.7619
50.7618
50.7618
50.7617
50.7617
50.7616
50.7615
50.7614
50.7613
50.7612
50.761
50.7609
50.7607
50.7605
50.7603
50.76
50.7598
50.7595
50.7592
50.7589
50.7586
50.7583
50.758
50.7577
50.7574
50.7572
50.7569
50.7566
50.7563
50.7561
50.7559
50.7557
50.7555
50.7554
50.7553
50.7552
50.7552
50.7552
50.7552
50.7552
50.7553
50.7554
50.7556
50.7557
50.7559
50.7561
50.7563
50.7566
50.7568
50.757
50.7572
50.7574
50.7576
50.7578
50.7579
50.7581
50.7582
50.7582
50.7583
50.7583
50.7583
50.7583
50.7583
50.7582
50.7581
50.758
50.7578
50.7576
50.7575
50.7573
50.757
50.7568
50.7566
50.7563
50.7561
50.7559
50.7556
50.7554
50.7552
50.7551
50.7549
50.7548
50.7548
50.7547
50.7547
50.7548
50.7549
50.755
50.7551
50.7553
50.7555
50.7557
50.7559
50.7562
50.7564
50.7566
50.7568
50.757
50.7572
50.7573
50.7574
50.7575
50.7576
50.758
50.7567
50.7768
50.7816
50.7809
50.7793
50.7783
50.7774
50.7769
50.7765
50.7762
50.7758
50.7753
50.7749
50.7744
50.774
50.7736
50.7732
50.7727
50.7723
50.7719
50.7715
50.7711
50.7707
50.7703
50.7699
50.7695
50.7691
50.7687
50.7684
50.768
50.7677
50.7674
50.7671
50.7669
50.7666
50.7664
50.7662
50.766
50.7657
50.7655
50.7653
50.7651
50.7649
50.7647
50.7644
50.7642
50.764
50.7639
50.7637
50.7635
50.7633
50.763
50.7628
50.7625
50.7622
50.7619
50.7616
50.7612
50.7608
50.7603
50.7598
50.7593
50.7584
50.7576
50.7569
50.7565
50.7562
50.7559
50.7553
50.7528
50.7456
50.739
50.7359
50.7352
50.7359
50.7406
50.7479
50.7535
50.7573
50.7599
50.7615
50.7624
50.7628
50.763
50.763
50.7629
50.7628
50.7626
50.7625
50.7623
50.7622
50.7621
50.762
50.7619
50.7619
50.7618
50.7618
50.7617
50.7617
50.7616
50.7616
50.7615
50.7614
50.7613
50.7612
50.7611
50.7609
50.7608
50.7606
50.7604
50.7602
50.7599
50.7597
50.7594
50.7591
50.7588
50.7586
50.7583
50.7579
50.7576
50.7573
50.7571
50.7568
50.7565
50.7562
50.756
50.7558
50.7556
50.7554
50.7553
50.7552
50.7551
50.7551
50.7551
50.7551
50.7551
50.7552
50.7553
50.7555
50.7556
50.7558
50.756
50.7562
50.7565
50.7567
50.7569
50.7571
50.7573
50.7575
50.7577
50.7578
50.758
50.7581
50.7581
50.7582
50.7582
50.7582
50.7582
50.7582
50.7581
50.758
50.7579
50.7577
50.7575
50.7574
50.7572
50.7569
50.7567
50.7565
50.7562
50.756
50.7558
50.7555
50.7553
50.7551
50.755
50.7549
50.7548
50.7547
50.7547
50.7547
50.7547
50.7548
50.7549
50.755
50.7552
50.7554
50.7556
50.7558
50.7561
50.7563
50.7565
50.7567
50.7569
50.7571
50.7572
50.7573
50.7574
50.7575
50.7579
50.7565
50.7269
50.7136
50.7087
50.7078
50.7055
50.7004
50.6936
50.6862
50.6779
50.6697
50.6614
50.6529
50.645
50.637
50.6297
50.6225
50.6166
50.6114
50.6079
50.6061
50.7359
50.7325
50.7331
50.7344
50.7333
50.7295
50.7235
50.7178
50.7105
50.704
50.6968
50.6903
50.6831
50.6766
50.6704
50.6648
50.6596
50.6555
50.6526
50.6506
50.7583
50.7582
50.7572
50.7551
50.7522
50.7487
50.7445
50.7395
50.7341
50.7274
50.7198
50.711
50.7008
50.6904
50.6811
50.6732
50.6653
50.6554
50.6448
50.633
50.7692
50.7728
50.7728
50.7713
50.7699
50.7686
50.767
50.7633
50.758
50.7532
50.7496
50.748
50.7576
50.7635
50.7586
50.7417
50.7209
50.7076
50.6964
50.6858
50.7727
50.7797
50.7806
50.7789
50.7773
50.7761
50.7744
50.7708
50.7656
50.7605
50.7566
50.7551
50.7635
50.7701
50.7676
50.7543
50.7346
50.7195
50.707
50.6954
50.629
50.6322
50.6304
50.6295
50.6283
50.6275
50.6272
50.627
50.627
50.6268
50.6266
50.6265
50.6263
50.6262
50.6261
50.626
50.6259
50.6259
50.6258
50.6257
50.6257
50.6257
50.6256
50.6256
50.6256
50.6257
50.6257
50.6258
50.6259
50.626
50.6262
50.6264
50.6266
50.6268
50.627
50.6272
50.6273
50.6275
50.6277
50.6279
50.6281
50.6284
50.6286
50.6287
50.629
50.6292
50.6294
50.6296
50.6299
50.6301
50.6303
50.6305
50.6307
50.631
50.6312
50.6315
50.6318
50.632
50.6322
50.6324
50.6326
50.6328
50.6329
50.633
50.6332
50.6337
50.6343
50.635
50.6356
50.6349
50.6299
50.6238
50.6209
50.6209
50.6224
50.6269
50.6354
50.6428
50.6484
50.6526
50.6558
50.6584
50.6604
50.6621
50.6637
50.6651
50.6666
50.668
50.6693
50.6707
50.6721
50.6735
50.6749
50.6764
50.6777
50.6792
50.6804
50.6819
50.6822
50.6917
50.6448
50.6416
50.6393
50.6378
50.6366
50.6357
50.6353
50.6351
50.6351
50.6349
50.6347
50.6345
50.6343
50.6342
50.634
50.6339
50.6337
50.6337
50.6336
50.6335
50.6335
50.6334
50.6334
50.6334
50.6334
50.6334
50.6335
50.6335
50.6336
50.6337
50.6338
50.6339
50.6341
50.6342
50.6344
50.6346
50.6348
50.635
50.6352
50.6354
50.6356
50.6358
50.636
50.6362
50.6364
50.6366
50.6368
50.637
50.6372
50.6374
50.6377
50.6379
50.6381
50.6383
50.6385
50.6388
50.639
50.6393
50.6395
50.6398
50.6401
50.6402
50.6404
50.6407
50.6409
50.6409
50.6409
50.641
50.6414
50.642
50.6422
50.6413
50.6397
50.6388
50.639
50.64
50.6416
50.6449
50.6504
50.6552
50.6587
50.6611
50.6628
50.6642
50.6655
50.6666
50.6677
50.6688
50.67
50.6712
50.6725
50.6738
50.6752
50.6766
50.6779
50.6793
50.6806
50.682
50.6826
50.6873
50.5987
50.6097
50.6188
50.6205
50.6196
50.6188
50.6184
50.6185
50.6185
50.6183
50.6182
50.618
50.6179
50.6177
50.6176
50.6174
50.6173
50.6172
50.6172
50.6172
50.6173
50.6174
50.6174
50.6175
50.6176
50.6176
50.6177
50.6177
50.6178
50.6179
50.618
50.6181
50.6182
50.6183
50.6185
50.6186
50.6188
50.619
50.6191
50.6192
50.6193
50.6194
50.6195
50.6196
50.6197
50.6198
50.6199
50.6199
50.6199
50.6199
50.6199
50.62
50.6201
50.6203
50.6206
50.6214
50.6237
50.6273
50.6306
50.6335
50.6358
50.6376
50.6391
50.6402
50.6411
50.6418
50.6426
50.6433
50.644
50.6448
50.6456
50.6465
50.6475
50.6486
50.6499
50.6513
50.6528
50.6544
50.6559
50.6574
50.6588
50.6602
50.6615
50.6628
50.6641
50.6654
50.6667
50.668
50.6694
50.6708
50.6722
50.6736
50.675
50.6764
50.6778
50.6792
50.6807
50.682
50.6835
50.6848
50.6693
50.6546
50.6443
50.6391
50.6383
50.6375
50.6363
50.635
50.6348
50.6347
50.6343
50.634
50.6338
50.6337
50.6336
50.6334
50.6333
50.6331
50.633
50.6329
50.6329
50.6328
50.6328
50.6328
50.6328
50.6329
50.6329
50.633
50.6332
50.6333
50.6334
50.6336
50.6337
50.6339
50.634
50.6342
50.6344
50.6345
50.6347
50.6348
50.635
50.6351
50.6353
50.6355
50.6357
50.6359
50.6361
50.6363
50.6365
50.6367
50.6369
50.6371
50.6373
50.6375
50.6376
50.6377
50.6378
50.638
50.6382
50.6384
50.6387
50.639
50.6393
50.6395
50.6397
50.64
50.6404
50.6409
50.6416
50.6423
50.6432
50.6441
50.6448
50.6446
50.6411
50.6361
50.6336
50.6337
50.6354
50.6399
50.6487
50.6558
50.6605
50.6635
50.6654
50.6669
50.6682
50.6692
50.6703
50.6714
50.6727
50.6739
50.6753
50.6766
50.678
50.6793
50.6807
50.6821
50.684
50.6843
50.6709
50.655
50.6448
50.6398
50.639
50.6386
50.6373
50.636
50.6358
50.6358
50.6354
50.635
50.6348
50.6347
50.6346
50.6344
50.6343
50.6342
50.6341
50.634
50.6339
50.6339
50.6339
50.6339
50.6339
50.6339
50.634
50.6341
50.6342
50.6343
50.6344
50.6346
50.6347
50.6349
50.635
50.6352
50.6354
50.6356
50.6357
50.6359
50.636
50.6362
50.6364
50.6366
50.6368
50.637
50.6372
50.6374
50.6376
50.6378
50.638
50.6382
50.6384
50.6387
50.6389
50.6391
50.6392
50.6394
50.6396
50.6399
50.6402
50.6405
50.6409
50.6413
50.6417
50.6421
50.6425
50.6429
50.6435
50.6442
50.645
50.6459
50.6468
50.6476
50.6477
50.6443
50.6371
50.633
50.6326
50.6345
50.6403
50.6509
50.6587
50.6634
50.6661
50.6677
50.669
50.6698
50.6707
50.6717
50.6728
50.674
50.6753
50.6766
50.6779
50.6792
50.6807
50.682
50.6839
50.684
50.6579
50.6459
50.6416
50.641
50.639
50.6345
50.6282
50.6217
50.6142
50.6069
50.5994
50.5917
50.5845
50.5773
50.5706
50.5642
50.5589
50.5544
50.5513
50.5498
50.6664
50.6635
50.6644
50.6658
50.665
50.6617
50.6562
50.6513
50.6446
50.6389
50.6327
50.6266
50.62
50.6145
50.6088
50.6038
50.5992
50.5958
50.5933
50.5915
50.6864
50.6868
50.686
50.6844
50.6821
50.6791
50.6756
50.6712
50.6663
50.6602
50.653
50.6447
50.6358
50.6273
50.62
50.6132
50.6051
50.5955
50.5852
50.5738
50.6964
50.7002
50.7005
50.6995
50.6985
50.6977
50.6963
50.6928
50.6891
50.6863
50.6855
50.6899
50.6969
50.6961
50.6847
50.6658
50.6531
50.6445
50.6365
50.6315
50.6997
50.7067
50.7079
50.7066
50.7056
50.7048
50.7032
50.6999
50.6961
50.6931
50.6921
50.6962
50.7026
50.7037
50.6947
50.6784
50.6641
50.6547
50.6453
50.6396
50.5715
50.5754
50.5761
50.577
50.5779
50.579
50.5807
50.5828
50.5847
50.5867
50.5888
50.5909
50.593
50.5952
50.5975
50.5998
50.6022
50.6046
50.6071
50.6097
50.6123
50.6149
50.6177
50.6204
50.6232
50.626
50.6289
50.6317
50.6346
50.6375
50.6404
50.6434
50.6463
50.6493
50.6523
50.6553
50.6584
50.6615
50.6647
50.6678
50.671
50.6743
50.6776
50.6809
50.6842
50.6876
50.6911
50.6945
50.6981
50.7016
50.7052
50.7089
50.7126
50.7164
50.7202
50.724
50.7278
50.7317
50.7357
50.7395
50.7432
50.7469
50.7509
50.7553
50.7602
50.7649
50.7687
50.7686
50.7655
50.7652
50.7682
50.7737
50.7809
50.7924
50.8044
50.8145
50.8231
50.8304
50.8368
50.8427
50.8485
50.8539
50.8591
50.8643
50.8694
50.8746
50.8798
50.885
50.8902
50.8955
50.9007
50.9061
50.9114
50.9168
50.9222
50.9277
50.9331
50.9387
50.9442
50.9498
50.9554
50.961
50.9667
50.9724
50.9782
50.984
50.9898
50.9956
51.0015
51.0074
51.0134
51.0194
51.0255
51.0316
51.0377
51.0439
51.0502
51.0564
51.0628
51.0691
51.0756
51.082
51.0886
51.0951
51.1017
51.1084
51.1151
51.1218
51.1286
51.1354
51.1423
51.1492
51.1562
51.1632
51.1702
51.1773
51.1844
51.1915
51.1987
51.2059
51.2132
51.2205
51.2279
51.2353
51.2427
51.2502
51.2577
51.2653
51.2729
51.2805
51.2882
51.2959
51.3037
51.3114
51.3193
51.3272
51.3351
51.343
51.351
51.359
51.367
51.3751
51.3831
51.3913
51.3994
51.4076
51.4158
51.424
51.4323
51.4406
51.4489
51.4572
51.4656
51.474
51.4825
51.4909
51.4994
51.5079
51.5165
51.525
51.5336
51.5422
51.5509
51.5595
51.5683
51.5769
51.5857
51.5943
51.6033
51.6118
51.6208
51.6293
51.6385
51.6469
51.6562
51.6645
51.6739
51.6823
51.6915
51.7009
50.5859
50.5844
50.5843
50.585
50.5858
50.5868
50.5886
50.5907
50.5927
50.5946
50.5966
50.5987
50.6009
50.6031
50.6053
50.6076
50.61
50.6124
50.6149
50.6174
50.62
50.6226
50.6253
50.628
50.6308
50.6336
50.6364
50.6393
50.6421
50.645
50.6479
50.6509
50.6538
50.6568
50.6598
50.6629
50.6659
50.669
50.6721
50.6753
50.6785
50.6818
50.685
50.6884
50.6917
50.6951
50.6985
50.702
50.7055
50.7091
50.7127
50.7163
50.7201
50.7237
50.7274
50.7313
50.7353
50.7392
50.743
50.7468
50.7508
50.7549
50.7587
50.7623
50.766
50.7702
50.775
50.7793
50.7823
50.7844
50.7869
50.7906
50.7955
50.8013
50.808
50.817
50.8259
50.8332
50.8395
50.8454
50.8509
50.8558
50.8606
50.8654
50.8703
50.8752
50.8803
50.8853
50.8905
50.8957
50.9009
50.9062
50.9116
50.9169
50.9223
50.9278
50.9332
50.9388
50.9443
50.9499
50.9555
50.9611
50.9668
50.9725
50.9783
50.984
50.9899
50.9957
51.0016
51.0075
51.0135
51.0195
51.0256
51.0317
51.0378
51.044
51.0502
51.0565
51.0629
51.0692
51.0757
51.0821
51.0886
51.0952
51.1018
51.1085
51.1152
51.1219
51.1287
51.1355
51.1424
51.1493
51.1563
51.1633
51.1703
51.1774
51.1845
51.1916
51.1988
51.206
51.2133
51.2206
51.228
51.2354
51.2428
51.2503
51.2578
51.2654
51.2729
51.2806
51.2883
51.296
51.3037
51.3115
51.3194
51.3272
51.3351
51.3431
51.3511
51.3591
51.3671
51.3751
51.3832
51.3914
51.3995
51.4077
51.4159
51.4241
51.4324
51.4407
51.449
51.4573
51.4657
51.4741
51.4825
51.491
51.4995
51.508
51.5166
51.5251
51.5337
51.5423
51.551
51.5596
51.5684
51.577
51.5858
51.5944
51.6034
51.6119
51.6209
51.6294
51.6386
51.647
51.6563
51.6646
51.674
51.6823
51.6918
51.7002
50.5408
50.5549
50.5655
50.5685
50.5694
50.5705
50.5722
50.5742
50.5762
50.5782
50.5802
50.5823
50.5845
50.5868
50.5892
50.5916
50.5941
50.5966
50.5991
50.6016
50.6042
50.6068
50.6095
50.6121
50.6149
50.6176
50.6204
50.6232
50.6261
50.629
50.6319
50.6348
50.6378
50.6408
50.6438
50.6468
50.6499
50.653
50.6561
50.6592
50.6623
50.6655
50.6687
50.6719
50.675
50.6781
50.6813
50.6845
50.6877
50.6911
50.6945
50.6983
50.7024
50.707
50.7125
50.7196
50.7266
50.7331
50.7391
50.7444
50.7494
50.7543
50.7591
50.7636
50.7682
50.7727
50.7773
50.7819
50.7866
50.7915
50.7966
50.8017
50.807
50.8123
50.8177
50.8231
50.8285
50.8338
50.8389
50.8441
50.8492
50.8542
50.8593
50.8644
50.8695
50.8747
50.8798
50.885
50.8903
50.8955
50.9008
50.9061
50.9115
50.9169
50.9223
50.9278
50.9332
50.9387
50.9443
50.9499
50.9555
50.9611
50.9668
50.9725
50.9783
50.984
50.9899
50.9957
51.0016
51.0075
51.0135
51.0195
51.0256
51.0317
51.0378
51.044
51.0502
51.0565
51.0629
51.0692
51.0757
51.0821
51.0886
51.0952
51.1018
51.1085
51.1152
51.1219
51.1287
51.1355
51.1424
51.1493
51.1563
51.1633
51.1703
51.1774
51.1845
51.1916
51.1988
51.206
51.2133
51.2206
51.228
51.2354
51.2428
51.2503
51.2578
51.2654
51.2729
51.2806
51.2883
51.296
51.3037
51.3115
51.3194
51.3272
51.3351
51.3431
51.3511
51.3591
51.3671
51.3751
51.3832
51.3914
51.3995
51.4077
51.4159
51.4241
51.4324
51.4407
51.449
51.4573
51.4657
51.4741
51.4825
51.491
51.4995
51.508
51.5166
51.5251
51.5337
51.5423
51.551
51.5596
51.5683
51.577
51.5858
51.5945
51.6033
51.612
51.6208
51.6296
51.6384
51.6471
51.6562
51.6647
51.6738
51.6826
51.6914
51.7002
50.6194
50.5982
50.588
50.5864
50.5876
50.5887
50.589
50.5903
50.5924
50.5944
50.5961
50.5982
50.6003
50.6025
50.6048
50.6071
50.6095
50.6119
50.6144
50.617
50.6196
50.6223
50.6249
50.6277
50.6304
50.6332
50.636
50.6388
50.6416
50.6445
50.6474
50.6503
50.6532
50.6562
50.6592
50.6623
50.6653
50.6684
50.6715
50.6747
50.6779
50.6812
50.6844
50.6877
50.6911
50.6945
50.6979
50.7013
50.7048
50.7084
50.712
50.7155
50.7191
50.7228
50.7264
50.7301
50.7339
50.7379
50.7419
50.7459
50.7499
50.7538
50.7577
50.7617
50.7658
50.77
50.7745
50.7793
50.7844
50.7894
50.7933
50.7939
50.7925
50.7933
50.7969
50.8028
50.8107
50.823
50.8343
50.8428
50.8496
50.8556
50.8612
50.866
50.8707
50.8755
50.8805
50.8855
50.8906
50.8958
50.901
50.9063
50.9116
50.9169
50.9223
50.9278
50.9333
50.9388
50.9443
50.9499
50.9555
50.9611
50.9668
50.9725
50.9783
50.984
50.9899
50.9957
51.0016
51.0075
51.0135
51.0195
51.0256
51.0317
51.0378
51.044
51.0502
51.0565
51.0629
51.0692
51.0757
51.0821
51.0886
51.0952
51.1018
51.1085
51.1152
51.1219
51.1287
51.1355
51.1424
51.1493
51.1563
51.1633
51.1703
51.1774
51.1845
51.1916
51.1988
51.206
51.2133
51.2206
51.228
51.2354
51.2428
51.2503
51.2578
51.2654
51.2729
51.2806
51.2883
51.296
51.3037
51.3115
51.3194
51.3272
51.3351
51.3431
51.3511
51.3591
51.3671
51.3751
51.3832
51.3914
51.3995
51.4077
51.4159
51.4241
51.4324
51.4407
51.449
51.4573
51.4657
51.4741
51.4825
51.491
51.4995
51.508
51.5166
51.5251
51.5337
51.5424
51.551
51.5597
51.5683
51.5771
51.5857
51.5946
51.6031
51.6121
51.6207
51.6297
51.6382
51.6474
51.6558
51.6651
51.6734
51.6829
51.6907
51.7001
50.6209
50.599
50.5883
50.5871
50.5884
50.5898
50.59
50.5913
50.5933
50.5955
50.5972
50.5992
50.6014
50.6036
50.6058
50.6081
50.6105
50.613
50.6154
50.618
50.6206
50.6232
50.6259
50.6286
50.6314
50.6341
50.6369
50.6398
50.6426
50.6455
50.6484
50.6513
50.6543
50.6573
50.6603
50.6633
50.6664
50.6694
50.6726
50.6757
50.6789
50.6822
50.6855
50.6888
50.6921
50.6955
50.6989
50.7024
50.7059
50.7094
50.713
50.7166
50.7203
50.7239
50.7277
50.7314
50.7352
50.7391
50.7431
50.7472
50.7514
50.7556
50.7597
50.7639
50.7681
50.7723
50.7766
50.781
50.7858
50.791
50.796
50.8002
50.8008
50.797
50.7961
50.7994
50.8055
50.8149
50.8293
50.8411
50.8496
50.8561
50.862
50.867
50.8713
50.8759
50.8807
50.8856
50.8906
50.8958
50.901
50.9062