/*--------------------------------*- C++ -*----------------------------------*\
| =========                 |                                                 |
| \\      /  F ield         | OpenFOAM: The Open Source CFD Toolbox           |
|  \\    /   O peration     | Version:  3.0.x                                 |
|   \\  /    A nd           | Web:      www.OpenFOAM.org                      |
|    \\/     M anipulation  |                                                 |
\*---------------------------------------------------------------------------*/
FoamFile
{
    version     2.0;
    format      ascii;
    class       volVectorField;
    location    "0.33";
    object      U;
}
// * * * * * * * * * * * * * * * * * * * * * * * * * * * * * * * * * * * * * //

dimensions      [0 1 -1 0 0 0 0];

internalField   nonuniform List<vector> 
6900
(
(42.6981 0.000101128 0)
(42.696 9.25753e-05 0)
(42.6939 8.99255e-05 0)
(42.6918 9.08487e-05 0)
(42.6897 9.1573e-05 0)
(42.6877 9.19765e-05 0)
(42.6858 9.2287e-05 0)
(42.6839 9.25373e-05 0)
(42.682 9.27339e-05 0)
(42.6803 9.28915e-05 0)
(42.6786 9.30218e-05 0)
(42.6769 9.31289e-05 0)
(42.6753 9.3234e-05 0)
(42.6737 9.33115e-05 0)
(42.6722 9.3382e-05 0)
(42.6707 9.34515e-05 0)
(42.6691 9.3512e-05 0)
(42.6676 9.35663e-05 0)
(42.6661 9.36158e-05 0)
(42.6646 9.36617e-05 0)
(42.663 9.37059e-05 0)
(42.6614 9.37476e-05 0)
(42.6597 9.37965e-05 0)
(42.658 9.38389e-05 0)
(42.6562 9.38827e-05 0)
(42.6544 9.39318e-05 0)
(42.6525 9.39815e-05 0)
(42.6505 9.4032e-05 0)
(42.6485 9.40816e-05 0)
(42.6464 9.41296e-05 0)
(42.6443 9.41742e-05 0)
(42.6421 9.42132e-05 0)
(42.6399 9.42432e-05 0)
(42.6377 9.42597e-05 0)
(42.6355 9.42562e-05 0)
(42.6333 9.42236e-05 0)
(42.6311 9.41501e-05 0)
(42.629 9.40118e-05 0)
(42.6268 9.38519e-05 0)
(42.6248 9.34668e-05 0)
(42.6228 9.30481e-05 0)
(42.6208 9.24323e-05 0)
(42.619 9.16033e-05 0)
(42.6172 9.05217e-05 0)
(42.6154 8.91444e-05 0)
(42.6138 8.74325e-05 0)
(42.6122 8.53489e-05 0)
(42.6107 8.28685e-05 0)
(42.6093 7.99764e-05 0)
(42.6079 7.6671e-05 0)
(42.6066 7.29683e-05 0)
(42.6054 6.88983e-05 0)
(42.6042 6.45072e-05 0)
(42.6031 5.98567e-05 0)
(42.602 5.50193e-05 0)
(42.6009 5.00724e-05 0)
(42.5998 4.51102e-05 0)
(42.5988 4.02006e-05 0)
(42.5977 3.5435e-05 0)
(42.5967 3.08819e-05 0)
(42.5956 2.65995e-05 0)
(42.5946 2.26354e-05 0)
(42.5935 1.90222e-05 0)
(42.5924 1.57791e-05 0)
(42.5914 1.29111e-05 0)
(42.5903 1.04122e-05 0)
(42.5892 8.26603e-06 0)
(42.5882 6.44901e-06 0)
(42.5872 4.93219e-06 0)
(42.5863 3.68349e-06 0)
(42.5854 2.66936e-06 0)
(42.5846 1.85684e-06 0)
(42.5839 1.21456e-06 0)
(42.5833 7.12845e-07 0)
(42.5828 3.26607e-07 0)
(42.5824 3.22631e-08 0)
(42.5822 -1.9195e-07 0)
(42.5821 -3.57763e-07 0)
(42.582 -4.77034e-07 0)
(42.5821 -5.66858e-07 0)
(42.5823 -6.29418e-07 0)
(42.5826 -6.73581e-07 0)
(42.583 -7.04629e-07 0)
(42.5834 -7.26201e-07 0)
(42.5838 -7.40893e-07 0)
(42.5843 -7.5088e-07 0)
(42.5847 -7.57386e-07 0)
(42.5852 -7.61484e-07 0)
(42.5855 -7.63892e-07 0)
(42.5858 -7.65036e-07 0)
(42.5859 -7.65367e-07 0)
(42.586 -7.64846e-07 0)
(42.5859 -7.64657e-07 0)
(42.5857 -7.64182e-07 0)
(42.5853 -7.61629e-07 0)
(42.5848 -7.61414e-07 0)
(42.5842 -7.59464e-07 0)
(42.5833 -7.58647e-07 0)
(42.5824 -7.57708e-07 0)
(42.5814 -7.56711e-07 0)
(42.5802 -7.55888e-07 0)
(42.579 -7.55094e-07 0)
(42.5778 -7.5487e-07 0)
(42.5766 -7.54679e-07 0)
(42.5754 -7.54923e-07 0)
(42.5743 -7.55486e-07 0)
(42.5733 -7.56277e-07 0)
(42.5724 -7.57353e-07 0)
(42.5717 -7.58654e-07 0)
(42.5711 -7.60257e-07 0)
(42.5708 -7.62031e-07 0)
(42.5707 -7.64032e-07 0)
(42.5708 -7.65431e-07 0)
(42.5711 -7.68156e-07 0)
(42.5716 -7.7044e-07 0)
(42.5723 -7.72594e-07 0)
(42.5732 -7.74487e-07 0)
(42.5742 -7.76446e-07 0)
(42.5754 -7.78247e-07 0)
(42.5766 -7.79521e-07 0)
(42.5779 -7.80219e-07 0)
(42.5792 -7.80552e-07 0)
(42.5804 -7.80805e-07 0)
(42.5816 -7.8081e-07 0)
(42.5827 -7.80662e-07 0)
(42.5837 -7.80082e-07 0)
(42.5844 -7.79258e-07 0)
(42.585 -7.7811e-07 0)
(42.5853 -7.76649e-07 0)
(42.5854 -7.74888e-07 0)
(42.5852 -7.74009e-07 0)
(42.5847 -7.71853e-07 0)
(42.584 -7.6959e-07 0)
(42.583 -7.67692e-07 0)
(42.5817 -7.65786e-07 0)
(42.5802 -7.64149e-07 0)
(42.5785 -7.62529e-07 0)
(42.5766 -7.61654e-07 0)
(42.5746 -7.6144e-07 0)
(42.5726 -7.60081e-07 0)
(42.5706 -7.60225e-07 0)
(42.5687 -7.60217e-07 0)
(42.5668 -7.6221e-07 0)
(42.5652 -7.63304e-07 0)
(42.5639 -7.66861e-07 0)
(42.5628 -7.67459e-07 0)
(42.562 -7.71564e-07 0)
(42.5616 -7.72352e-07 0)
(42.5615 -7.81831e-07 0)
(42.5617 -7.78249e-07 0)
(42.5622 -7.83271e-07 0)
(42.563 -7.88329e-07 0)
(42.5641 -7.90628e-07 0)
(42.5653 -7.93171e-07 0)
(42.5667 -7.96093e-07 0)
(42.5681 -7.96656e-07 0)
(42.5696 -7.99988e-07 0)
(42.5711 -8.00377e-07 0)
(42.5724 -8.0145e-07 0)
(42.5737 -8.02503e-07 0)
(42.5748 -8.02504e-07 0)
(42.5756 -8.01461e-07 0)
(42.5762 -8.00431e-07 0)
(42.5764 -7.99202e-07 0)
(42.5763 -7.98327e-07 0)
(42.5757 -7.96031e-07 0)
(42.5746 -7.93926e-07 0)
(42.573 -7.91328e-07 0)
(42.5709 -7.89012e-07 0)
(42.5682 -7.87398e-07 0)
(42.565 -7.80282e-07 0)
(42.5612 -7.80008e-07 0)
(42.557 -7.81313e-07 0)
(42.5524 -7.73291e-07 0)
(42.5474 -7.75803e-07 0)
(42.5422 -7.73509e-07 0)
(42.5369 -7.75615e-07 0)
(42.5316 -7.75679e-07 0)
(42.5264 -7.79469e-07 0)
(42.5215 -7.8139e-07 0)
(42.5169 -7.81775e-07 0)
(42.5127 -7.96024e-07 0)
(42.5091 -7.9912e-07 0)
(42.506 -8.01556e-07 0)
(42.5034 -8.14232e-07 0)
(42.5014 -8.15861e-07 0)
(42.4997 -8.2192e-07 0)
(42.4983 -8.24997e-07 0)
(42.497 -8.29298e-07 0)
(42.4959 -8.28556e-07 0)
(42.4947 -8.32213e-07 0)
(42.4935 -8.08621e-07 0)
(42.4921 -7.43794e-07 0)
(42.4906 -1.16232e-07 0)
(42.4889 4.45461e-06 0)
(42.4863 3.67225e-05 0)
(42.4787 0.000263032 0)
(42.4365 0.00186253 0)
(42.2526 0.0167418 0)
(39.6944 0.0868871 0)
(42.6999 0.00012829 0)
(42.6996 9.90718e-05 0)
(42.6992 8.59171e-05 0)
(42.6989 8.53564e-05 0)
(42.6986 8.53412e-05 0)
(42.6984 8.49317e-05 0)
(42.6983 8.46378e-05 0)
(42.6982 8.44587e-05 0)
(42.6981 8.4332e-05 0)
(42.6981 8.42408e-05 0)
(42.6982 8.41792e-05 0)
(42.6983 8.41353e-05 0)
(42.6985 8.4128e-05 0)
(42.6987 8.41097e-05 0)
(42.699 8.41124e-05 0)
(42.6993 8.41285e-05 0)
(42.6995 8.41454e-05 0)
(42.6998 8.41664e-05 0)
(42.7001 8.41906e-05 0)
(42.7004 8.42173e-05 0)
(42.7006 8.42472e-05 0)
(42.7008 8.42767e-05 0)
(42.7009 8.43208e-05 0)
(42.701 8.43544e-05 0)
(42.701 8.43957e-05 0)
(42.7009 8.44426e-05 0)
(42.7008 8.44896e-05 0)
(42.7007 8.45391e-05 0)
(42.7004 8.45884e-05 0)
(42.7002 8.4637e-05 0)
(42.6998 8.46831e-05 0)
(42.6995 8.47245e-05 0)
(42.6991 8.47582e-05 0)
(42.6987 8.47799e-05 0)
(42.6983 8.47838e-05 0)
(42.6979 8.47616e-05 0)
(42.6975 8.47023e-05 0)
(42.6972 8.45808e-05 0)
(42.6969 8.44787e-05 0)
(42.6966 8.40817e-05 0)
(42.6964 8.37345e-05 0)
(42.6962 8.31882e-05 0)
(42.6961 8.24461e-05 0)
(42.696 8.14759e-05 0)
(42.696 8.02381e-05 0)
(42.6961 7.86987e-05 0)
(42.6961 7.68223e-05 0)
(42.6963 7.45869e-05 0)
(42.6964 7.19796e-05 0)
(42.6965 6.89986e-05 0)
(42.6967 6.56591e-05 0)
(42.6968 6.19875e-05 0)
(42.6969 5.80268e-05 0)
(42.697 5.3833e-05 0)
(42.6969 4.9472e-05 0)
(42.6969 4.50118e-05 0)
(42.6967 4.05432e-05 0)
(42.6965 3.61186e-05 0)
(42.6962 3.18283e-05 0)
(42.6958 2.7731e-05 0)
(42.6953 2.38788e-05 0)
(42.6947 2.03146e-05 0)
(42.694 1.70675e-05 0)
(42.6933 1.41546e-05 0)
(42.6925 1.15797e-05 0)
(42.6916 9.33755e-06 0)
(42.6907 7.41275e-06 0)
(42.6898 5.78396e-06 0)
(42.6889 4.42474e-06 0)
(42.6881 3.30599e-06 0)
(42.6873 2.39727e-06 0)
(42.6865 1.66898e-06 0)
(42.6858 1.09282e-06 0)
(42.6852 6.42466e-07 0)
(42.6848 2.95587e-07 0)
(42.6844 3.04131e-08 0)
(42.6842 -1.67541e-07 0)
(42.684 -3.15167e-07 0)
(42.684 -4.20732e-07 0)
(42.6841 -5.03412e-07 0)
(42.6843 -5.6037e-07 0)
(42.6845 -6.00519e-07 0)
(42.6849 -6.29029e-07 0)
(42.6853 -6.48973e-07 0)
(42.6857 -6.62463e-07 0)
(42.6862 -6.71597e-07 0)
(42.6866 -6.77341e-07 0)
(42.687 -6.8065e-07 0)
(42.6873 -6.82204e-07 0)
(42.6876 -6.82374e-07 0)
(42.6877 -6.81665e-07 0)
(42.6877 -6.79846e-07 0)
(42.6876 -6.78683e-07 0)
(42.6874 -6.77218e-07 0)
(42.687 -6.72087e-07 0)
(42.6865 -6.71193e-07 0)
(42.6858 -6.67323e-07 0)
(42.685 -6.65138e-07 0)
(42.6841 -6.62839e-07 0)
(42.683 -6.60558e-07 0)
(42.6818 -6.58638e-07 0)
(42.6806 -6.56889e-07 0)
(42.6794 -6.56147e-07 0)
(42.6782 -6.55525e-07 0)
(42.677 -6.55725e-07 0)
(42.6758 -6.56508e-07 0)
(42.6748 -6.57706e-07 0)
(42.6739 -6.59457e-07 0)
(42.6732 -6.61649e-07 0)
(42.6726 -6.64385e-07 0)
(42.6723 -6.67351e-07 0)
(42.6721 -6.70625e-07 0)
(42.6722 -6.72847e-07 0)
(42.6725 -6.77316e-07 0)
(42.673 -6.80964e-07 0)
(42.6737 -6.84544e-07 0)
(42.6745 -6.87558e-07 0)
(42.6756 -6.90598e-07 0)
(42.6767 -6.93197e-07 0)
(42.6779 -6.94852e-07 0)
(42.6792 -6.95625e-07 0)
(42.6804 -6.95833e-07 0)
(42.6817 -6.95823e-07 0)
(42.6829 -6.95227e-07 0)
(42.6839 -6.94263e-07 0)
(42.6849 -6.92479e-07 0)
(42.6856 -6.90233e-07 0)
(42.6862 -6.874e-07 0)
(42.6865 -6.84034e-07 0)
(42.6865 -6.80143e-07 0)
(42.6863 -6.77697e-07 0)
(42.6859 -6.73098e-07 0)
(42.6851 -6.6816e-07 0)
(42.6841 -6.63955e-07 0)
(42.6828 -6.59878e-07 0)
(42.6812 -6.56269e-07 0)
(42.6795 -6.52857e-07 0)
(42.6776 -6.50643e-07 0)
(42.6756 -6.49683e-07 0)
(42.6736 -6.46786e-07 0)
(42.6716 -6.47364e-07 0)
(42.6696 -6.46935e-07 0)
(42.6678 -6.5074e-07 0)
(42.6662 -6.52101e-07 0)
(42.6648 -6.58716e-07 0)
(42.6637 -6.58803e-07 0)
(42.6629 -6.66812e-07 0)
(42.6624 -6.7035e-07 0)
(42.6623 -6.71166e-07 0)
(42.6625 -6.85281e-07 0)
(42.663 -6.88305e-07 0)
(42.6638 -6.92845e-07 0)
(42.6648 -6.98848e-07 0)
(42.666 -6.99515e-07 0)
(42.6674 -7.06714e-07 0)
(42.6688 -7.05236e-07 0)
(42.6703 -7.10705e-07 0)
(42.6717 -7.10429e-07 0)
(42.6731 -7.11498e-07 0)
(42.6744 -7.11862e-07 0)
(42.6754 -7.11156e-07 0)
(42.6763 -7.0799e-07 0)
(42.6768 -7.05228e-07 0)
(42.677 -7.02151e-07 0)
(42.6768 -6.99627e-07 0)
(42.6762 -6.94537e-07 0)
(42.6751 -6.89761e-07 0)
(42.6735 -6.84099e-07 0)
(42.6714 -6.77072e-07 0)
(42.6687 -6.85703e-07 0)
(42.6654 -6.4867e-07 0)
(42.6617 -6.6442e-07 0)
(42.6575 -6.73565e-07 0)
(42.6528 -6.41815e-07 0)
(42.6478 -6.54728e-07 0)
(42.6426 -6.47181e-07 0)
(42.6373 -6.54862e-07 0)
(42.632 -6.52401e-07 0)
(42.6268 -6.62271e-07 0)
(42.6218 -6.63488e-07 0)
(42.6172 -6.60401e-07 0)
(42.613 -7.01375e-07 0)
(42.6094 -6.97589e-07 0)
(42.6063 -6.93254e-07 0)
(42.6037 -7.28559e-07 0)
(42.6016 -7.24336e-07 0)
(42.5999 -7.38518e-07 0)
(42.5985 -7.42233e-07 0)
(42.5972 -7.52682e-07 0)
(42.5961 -7.57305e-07 0)
(42.5949 -7.49075e-07 0)
(42.5936 -6.49326e-07 0)
(42.5922 -8.48212e-08 0)
(42.5907 3.9202e-06 0)
(42.589 3.15553e-05 0)
(42.5864 0.000225447 0)
(42.5789 0.00157838 0)
(42.5379 0.0109776 0)
(42.359 0.0790578 0)
(40.3708 0.374929 0)
(42.6999 1.53916e-12 0)
(42.6995 2.64096e-12 0)
(42.6992 1.36291e-12 0)
(42.6989 1.07194e-12 0)
(42.6986 9.1001e-13 0)
(42.6984 -2.31176e-12 0)
(42.6982 -7.3266e-12 0)
(42.6981 -9.99375e-12 0)
(42.6981 -1.01259e-11 0)
(42.6981 -8.67207e-12 0)
(42.6982 -7.60246e-12 0)
(42.6983 -8.19517e-12 0)
(42.6985 -7.6861e-12 0)
(42.6987 -7.24477e-12 0)
(42.699 -6.67395e-12 0)
(42.6992 -7.41138e-12 0)
(42.6995 -7.03609e-12 0)
(42.6998 -6.16287e-12 0)
(42.7001 -6.59237e-12 0)
(42.7003 -8.57852e-12 0)
(42.7005 -1.01121e-11 0)
(42.7007 -1.135e-11 0)
(42.7009 -1.08425e-11 0)
(42.7009 -1.01745e-11 0)
(42.701 -9.74043e-12 0)
(42.7009 -8.07023e-12 0)
(42.7008 -6.2622e-12 0)
(42.7006 -5.85784e-12 0)
(42.7004 -5.54458e-12 0)
(42.7001 -6.0893e-12 0)
(42.6998 -8.03813e-12 0)
(42.6995 -9.203e-12 0)
(42.6991 -1.04192e-11 0)
(42.6987 -1.12266e-11 0)
(42.6983 -1.2275e-11 0)
(42.6979 -1.16522e-11 0)
(42.6975 -1.18369e-11 0)
(42.6972 -1.21816e-11 0)
(42.6969 -1.19801e-11 0)
(42.6966 -1.21675e-11 0)
(42.6964 -1.2089e-11 0)
(42.6962 -1.456e-11 0)
(42.6961 -1.64703e-11 0)
(42.696 -1.90509e-11 0)
(42.696 -1.99703e-11 0)
(42.6961 -2.1456e-11 0)
(42.6962 -2.13804e-11 0)
(42.6963 -2.19813e-11 0)
(42.6964 -1.96164e-11 0)
(42.6966 -1.8225e-11 0)
(42.6967 -1.74679e-11 0)
(42.6968 -1.58645e-11 0)
(42.6969 -1.40653e-11 0)
(42.697 -1.36531e-11 0)
(42.697 -1.49789e-11 0)
(42.6969 -1.69317e-11 0)
(42.6968 -1.87396e-11 0)
(42.6965 -1.91614e-11 0)
(42.6962 -1.98752e-11 0)
(42.6958 -2.00404e-11 0)
(42.6953 -1.9618e-11 0)
(42.6947 -1.95339e-11 0)
(42.694 -1.90938e-11 0)
(42.6933 -1.75684e-11 0)
(42.6925 -1.6224e-11 0)
(42.6916 -1.56482e-11 0)
(42.6907 -1.35889e-11 0)
(42.6898 -1.17374e-11 0)
(42.689 -1.02576e-11 0)
(42.6881 -8.21794e-12 0)
(42.6873 -5.80697e-12 0)
(42.6865 -3.17127e-12 0)
(42.6859 -1.38029e-12 0)
(42.6853 4.96823e-13 0)
(42.6848 2.04376e-12 0)
(42.6844 4.13672e-12 0)
(42.6842 6.20746e-12 0)
(42.684 6.6521e-12 0)
(42.684 7.03957e-12 0)
(42.6841 5.34722e-12 0)
(42.6843 1.04875e-12 0)
(42.6846 -3.16922e-12 0)
(42.6849 -7.44047e-12 0)
(42.6853 -9.73604e-12 0)
(42.6857 -1.25328e-11 0)
(42.6862 -1.3926e-11 0)
(42.6866 -1.55429e-11 0)
(42.687 -1.53167e-11 0)
(42.6873 -1.43789e-11 0)
(42.6876 -1.536e-11 0)
(42.6877 -1.48214e-11 0)
(42.6878 -1.3329e-11 0)
(42.6877 -1.33931e-11 0)
(42.6874 -1.26368e-11 0)
(42.6871 -1.18015e-11 0)
(42.6865 -1.26391e-11 0)
(42.6858 -1.32501e-11 0)
(42.685 -1.31438e-11 0)
(42.6841 -1.23064e-11 0)
(42.683 -1.33568e-11 0)
(42.6819 -1.48963e-11 0)
(42.6807 -1.54811e-11 0)
(42.6794 -1.51785e-11 0)
(42.6782 -1.54799e-11 0)
(42.677 -1.33439e-11 0)
(42.6758 -1.26452e-11 0)
(42.6748 -1.24306e-11 0)
(42.6739 -1.41549e-11 0)
(42.6732 -1.5976e-11 0)
(42.6726 -1.59285e-11 0)
(42.6723 -1.49215e-11 0)
(42.6721 -1.12599e-11 0)
(42.6722 -9.20157e-12 0)
(42.6725 -8.44753e-12 0)
(42.673 -1.04889e-11 0)
(42.6737 -1.31304e-11 0)
(42.6746 -1.53466e-11 0)
(42.6756 -1.79314e-11 0)
(42.6767 -1.68457e-11 0)
(42.6779 -1.60756e-11 0)
(42.6792 -1.50131e-11 0)
(42.6805 -1.41585e-11 0)
(42.6817 -1.34658e-11 0)
(42.6829 -1.1694e-11 0)
(42.684 -9.95111e-12 0)
(42.6849 -8.40525e-12 0)
(42.6856 -7.08167e-12 0)
(42.6862 -5.64175e-12 0)
(42.6865 -3.78379e-12 0)
(42.6866 -9.47531e-13 0)
(42.6864 9.74879e-12 0)
(42.6859 -7.18295e-11 0)
(42.6851 4.9879e-11 0)
(42.6841 3.28001e-11 0)
(42.6828 -1.40995e-11 0)
(42.6813 2.61561e-11 0)
(42.6795 -5.575e-11 0)
(42.6776 9.57076e-11 0)
(42.6757 -2.02092e-10 0)
(42.6736 4.11903e-10 0)
(42.6716 -5.79006e-10 0)
(42.6696 4.12712e-10 0)
(42.6678 -1.04871e-09 0)
(42.6662 3.8216e-10 0)
(42.6648 -1.90055e-09 0)
(42.6637 1.70844e-09 0)
(42.6629 -2.45561e-09 0)
(42.6625 -9.13397e-09 0)
(42.6623 4.91099e-08 0)
(42.6625 -2.72501e-08 0)
(42.663 -1.11208e-08 0)
(42.6638 2.65861e-09 0)
(42.6648 -5.85331e-09 0)
(42.6661 9.06148e-09 0)
(42.6674 -6.91727e-09 0)
(42.6689 5.73105e-09 0)
(42.6703 -1.42704e-09 0)
(42.6718 1.72883e-09 0)
(42.6731 -9.54995e-10 0)
(42.6744 8.61521e-10 0)
(42.6754 2.5163e-10 0)
(42.6763 9.9858e-10 0)
(42.6768 -2.25873e-12 0)
(42.677 -2.04613e-12 0)
(42.6769 -1.76087e-10 0)
(42.6762 -2.40223e-10 0)
(42.6752 6.15738e-11 0)
(42.6735 1.90549e-09 0)
(42.6714 3.13619e-08 0)
(42.6687 -1.30723e-07 0)
(42.6655 1.24054e-07 0)
(42.6617 -6.104e-09 0)
(42.6575 -5.87473e-08 0)
(42.6528 1.95052e-08 0)
(42.6478 -1.50059e-08 0)
(42.6426 -4.23762e-09 0)
(42.6373 -1.98957e-08 0)
(42.632 5.92506e-09 0)
(42.6268 -1.66766e-08 0)
(42.6218 -5.17406e-08 0)
(42.6172 2.50921e-07 0)
(42.613 -3.13858e-07 0)
(42.6094 2.34286e-08 0)
(42.6063 8.60843e-09 0)
(42.6037 -3.80674e-08 0)
(42.6016 -2.1326e-09 0)
(42.5999 -2.6513e-08 0)
(42.5985 2.59818e-09 0)
(42.5973 4.27501e-09 0)
(42.5961 -2.21457e-09 0)
(42.5949 2.41e-08 0)
(42.5936 1.86453e-07 0)
(42.5922 1.27301e-06 0)
(42.5907 9.17725e-06 0)
(42.5891 6.43781e-05 0)
(42.5873 0.000457099 0)
(42.5852 0.00323952 0)
(42.5811 0.0228308 0)
(42.5616 0.16254 0)
(42.4053 0.74593 0)
(42.6999 -0.00012829 0)
(42.6996 -9.90718e-05 0)
(42.6992 -8.59171e-05 0)
(42.6989 -8.53564e-05 0)
(42.6986 -8.53412e-05 0)
(42.6984 -8.49317e-05 0)
(42.6983 -8.46378e-05 0)
(42.6982 -8.44587e-05 0)
(42.6981 -8.4332e-05 0)
(42.6981 -8.42408e-05 0)
(42.6982 -8.41792e-05 0)
(42.6983 -8.41353e-05 0)
(42.6985 -8.4128e-05 0)
(42.6987 -8.41097e-05 0)
(42.699 -8.41124e-05 0)
(42.6993 -8.41285e-05 0)
(42.6995 -8.41454e-05 0)
(42.6998 -8.41664e-05 0)
(42.7001 -8.41906e-05 0)
(42.7004 -8.42173e-05 0)
(42.7006 -8.42472e-05 0)
(42.7008 -8.42767e-05 0)
(42.7009 -8.43208e-05 0)
(42.701 -8.43544e-05 0)
(42.701 -8.43957e-05 0)
(42.7009 -8.44426e-05 0)
(42.7008 -8.44896e-05 0)
(42.7007 -8.45391e-05 0)
(42.7004 -8.45884e-05 0)
(42.7002 -8.4637e-05 0)
(42.6998 -8.46831e-05 0)
(42.6995 -8.47245e-05 0)
(42.6991 -8.47582e-05 0)
(42.6987 -8.47799e-05 0)
(42.6983 -8.47838e-05 0)
(42.6979 -8.47615e-05 0)
(42.6975 -8.47023e-05 0)
(42.6972 -8.45808e-05 0)
(42.6969 -8.44787e-05 0)
(42.6966 -8.40817e-05 0)
(42.6964 -8.37345e-05 0)
(42.6962 -8.31882e-05 0)
(42.6961 -8.24461e-05 0)
(42.696 -8.14759e-05 0)
(42.696 -8.02381e-05 0)
(42.6961 -7.86987e-05 0)
(42.6961 -7.68222e-05 0)
(42.6963 -7.45869e-05 0)
(42.6964 -7.19796e-05 0)
(42.6965 -6.89986e-05 0)
(42.6967 -6.5659e-05 0)
(42.6968 -6.19875e-05 0)
(42.6969 -5.80268e-05 0)
(42.697 -5.3833e-05 0)
(42.6969 -4.9472e-05 0)
(42.6969 -4.50118e-05 0)
(42.6967 -4.05432e-05 0)
(42.6965 -3.61186e-05 0)
(42.6962 -3.18282e-05 0)
(42.6958 -2.7731e-05 0)
(42.6953 -2.38788e-05 0)
(42.6947 -2.03146e-05 0)
(42.694 -1.70675e-05 0)
(42.6933 -1.41546e-05 0)
(42.6925 -1.15797e-05 0)
(42.6916 -9.33755e-06 0)
(42.6907 -7.41274e-06 0)
(42.6898 -5.78395e-06 0)
(42.6889 -4.42474e-06 0)
(42.6881 -3.30599e-06 0)
(42.6873 -2.39727e-06 0)
(42.6865 -1.66897e-06 0)
(42.6858 -1.09282e-06 0)
(42.6852 -6.42466e-07 0)
(42.6848 -2.95583e-07 0)
(42.6844 -3.04125e-08 0)
(42.6842 1.67537e-07 0)
(42.684 3.15165e-07 0)
(42.684 4.20731e-07 0)
(42.6841 5.03412e-07 0)
(42.6843 5.60373e-07 0)
(42.6845 6.00523e-07 0)
(42.6849 6.2903e-07 0)
(42.6853 6.48978e-07 0)
(42.6857 6.62467e-07 0)
(42.6862 6.71602e-07 0)
(42.6866 6.77346e-07 0)
(42.687 6.80655e-07 0)
(42.6873 6.82208e-07 0)
(42.6876 6.82377e-07 0)
(42.6877 6.81665e-07 0)
(42.6877 6.79851e-07 0)
(42.6876 6.78685e-07 0)
(42.6874 6.77221e-07 0)
(42.687 6.72088e-07 0)
(42.6865 6.71198e-07 0)
(42.6858 6.67324e-07 0)
(42.685 6.65138e-07 0)
(42.6841 6.62839e-07 0)
(42.683 6.60563e-07 0)
(42.6818 6.58641e-07 0)
(42.6806 6.56889e-07 0)
(42.6794 6.56147e-07 0)
(42.6782 6.55523e-07 0)
(42.677 6.55727e-07 0)
(42.6758 6.56508e-07 0)
(42.6748 6.57708e-07 0)
(42.6739 6.59457e-07 0)
(42.6732 6.61652e-07 0)
(42.6726 6.64387e-07 0)
(42.6723 6.67347e-07 0)
(42.6721 6.70622e-07 0)
(42.6722 6.72845e-07 0)
(42.6725 6.77315e-07 0)
(42.673 6.80966e-07 0)
(42.6737 6.84544e-07 0)
(42.6745 6.87563e-07 0)
(42.6756 6.90602e-07 0)
(42.6767 6.932e-07 0)
(42.6779 6.94855e-07 0)
(42.6792 6.95628e-07 0)
(42.6804 6.95837e-07 0)
(42.6817 6.95827e-07 0)
(42.6829 6.95232e-07 0)
(42.6839 6.94262e-07 0)
(42.6849 6.92482e-07 0)
(42.6856 6.90234e-07 0)
(42.6862 6.87401e-07 0)
(42.6865 6.84035e-07 0)
(42.6865 6.80145e-07 0)
(42.6863 6.77733e-07 0)
(42.6859 6.72922e-07 0)
(42.6851 6.68268e-07 0)
(42.6841 6.64019e-07 0)
(42.6828 6.59847e-07 0)
(42.6812 6.56316e-07 0)
(42.6795 6.52743e-07 0)
(42.6776 6.50772e-07 0)
(42.6756 6.49338e-07 0)
(42.6736 6.47669e-07 0)
(42.6716 6.46894e-07 0)
(42.6696 6.48018e-07 0)
(42.6678 6.49491e-07 0)
(42.6662 6.53114e-07 0)
(42.6648 6.55961e-07 0)
(42.6637 6.61987e-07 0)
(42.6629 6.64017e-07 0)
(42.6624 6.60273e-07 0)
(42.6623 7.28994e-07 0)
(42.6625 6.53909e-07 0)
(42.663 6.75233e-07 0)
(42.6638 6.95476e-07 0)
(42.6648 6.91335e-07 0)
(42.666 7.10435e-07 0)
(42.6674 6.98079e-07 0)
(42.6688 7.13289e-07 0)
(42.6703 7.07951e-07 0)
(42.6717 7.12533e-07 0)
(42.6731 7.10121e-07 0)
(42.6744 7.13032e-07 0)
(42.6754 7.11326e-07 0)
(42.6763 7.08931e-07 0)
(42.6768 7.05004e-07 0)
(42.677 7.02159e-07 0)
(42.6768 6.99508e-07 0)
(42.6762 6.94356e-07 0)
(42.6751 6.89996e-07 0)
(42.6735 6.86791e-07 0)
(42.6714 7.17726e-07 0)
(42.6687 5.15323e-07 0)
(42.6654 8.1026e-07 0)
(42.6617 6.63271e-07 0)
(42.6575 5.96414e-07 0)
(42.6528 6.70238e-07 0)
(42.6478 6.34367e-07 0)
(42.6426 6.4917e-07 0)
(42.6373 6.31161e-07 0)
(42.632 6.63419e-07 0)
(42.6268 6.4014e-07 0)
(42.6218 6.00616e-07 0)
(42.6172 9.93809e-07 0)
(42.613 3.07685e-07 0)
(42.6094 7.21402e-07 0)
(42.6063 7.26761e-07 0)
(42.6037 6.81622e-07 0)
(42.6016 7.34443e-07 0)
(42.5999 7.13109e-07 0)
(42.5985 7.48844e-07 0)
(42.5972 7.5547e-07 0)
(42.5961 7.59842e-07 0)
(42.5949 7.73949e-07 0)
(42.5936 8.873e-07 0)
(42.5922 1.58954e-06 0)
(42.5907 6.99874e-06 0)
(42.5893 4.50795e-05 0)
(42.5886 0.000318937 0)
(42.5946 0.00228813 0)
(42.6496 0.016567 0)
(42.8585 0.137391 0)
(46.0606 0.580972 0)
(42.6981 -0.000101128 0)
(42.696 -9.25753e-05 0)
(42.6939 -8.99255e-05 0)
(42.6918 -9.08487e-05 0)
(42.6897 -9.1573e-05 0)
(42.6877 -9.19765e-05 0)
(42.6858 -9.2287e-05 0)
(42.6839 -9.25373e-05 0)
(42.682 -9.27339e-05 0)
(42.6803 -9.28915e-05 0)
(42.6786 -9.30218e-05 0)
(42.6769 -9.3129e-05 0)
(42.6753 -9.3234e-05 0)
(42.6737 -9.33115e-05 0)
(42.6722 -9.3382e-05 0)
(42.6707 -9.34515e-05 0)
(42.6691 -9.3512e-05 0)
(42.6676 -9.35663e-05 0)
(42.6661 -9.36158e-05 0)
(42.6646 -9.36617e-05 0)
(42.663 -9.3706e-05 0)
(42.6614 -9.37476e-05 0)
(42.6597 -9.37965e-05 0)
(42.658 -9.38389e-05 0)
(42.6562 -9.38827e-05 0)
(42.6544 -9.39318e-05 0)
(42.6525 -9.39815e-05 0)
(42.6505 -9.4032e-05 0)
(42.6485 -9.40816e-05 0)
(42.6464 -9.41296e-05 0)
(42.6443 -9.41742e-05 0)
(42.6421 -9.42132e-05 0)
(42.6399 -9.42432e-05 0)
(42.6377 -9.42597e-05 0)
(42.6355 -9.42562e-05 0)
(42.6333 -9.42236e-05 0)
(42.6311 -9.41501e-05 0)
(42.629 -9.40118e-05 0)
(42.6268 -9.38519e-05 0)
(42.6248 -9.34668e-05 0)
(42.6228 -9.30481e-05 0)
(42.6208 -9.24323e-05 0)
(42.619 -9.16033e-05 0)
(42.6172 -9.05217e-05 0)
(42.6154 -8.91444e-05 0)
(42.6138 -8.74325e-05 0)
(42.6122 -8.53489e-05 0)
(42.6107 -8.28685e-05 0)
(42.6093 -7.99764e-05 0)
(42.6079 -7.6671e-05 0)
(42.6066 -7.29683e-05 0)
(42.6054 -6.88983e-05 0)
(42.6042 -6.45072e-05 0)
(42.6031 -5.98567e-05 0)
(42.602 -5.50193e-05 0)
(42.6009 -5.00724e-05 0)
(42.5998 -4.51102e-05 0)
(42.5988 -4.02006e-05 0)
(42.5977 -3.5435e-05 0)
(42.5967 -3.08819e-05 0)
(42.5956 -2.65995e-05 0)
(42.5946 -2.26354e-05 0)
(42.5935 -1.90222e-05 0)
(42.5924 -1.57791e-05 0)
(42.5914 -1.29111e-05 0)
(42.5903 -1.04122e-05 0)
(42.5892 -8.26603e-06 0)
(42.5882 -6.44901e-06 0)
(42.5872 -4.93219e-06 0)
(42.5863 -3.68349e-06 0)
(42.5854 -2.66936e-06 0)
(42.5846 -1.85685e-06 0)
(42.5839 -1.21456e-06 0)
(42.5833 -7.12848e-07 0)
(42.5828 -3.2661e-07 0)
(42.5824 -3.22634e-08 0)
(42.5822 1.91954e-07 0)
(42.5821 3.57761e-07 0)
(42.582 4.77017e-07 0)
(42.5821 5.66847e-07 0)
(42.5823 6.2941e-07 0)
(42.5826 6.73574e-07 0)
(42.583 7.04626e-07 0)
(42.5834 7.26195e-07 0)
(42.5838 7.40887e-07 0)
(42.5843 7.50877e-07 0)
(42.5847 7.57384e-07 0)
(42.5852 7.61477e-07 0)
(42.5855 7.63888e-07 0)
(42.5858 7.65033e-07 0)
(42.5859 7.65363e-07 0)
(42.586 7.64846e-07 0)
(42.5859 7.64652e-07 0)
(42.5857 7.64178e-07 0)
(42.5853 7.61625e-07 0)
(42.5848 7.61414e-07 0)
(42.5842 7.59464e-07 0)
(42.5833 7.58647e-07 0)
(42.5824 7.57708e-07 0)
(42.5814 7.56713e-07 0)
(42.5802 7.55895e-07 0)
(42.579 7.55098e-07 0)
(42.5778 7.54873e-07 0)
(42.5766 7.54681e-07 0)
(42.5754 7.54922e-07 0)
(42.5743 7.55487e-07 0)
(42.5733 7.56277e-07 0)
(42.5724 7.57353e-07 0)
(42.5717 7.58652e-07 0)
(42.5711 7.60275e-07 0)
(42.5708 7.62041e-07 0)
(42.5707 7.64041e-07 0)
(42.5708 7.65438e-07 0)
(42.5711 7.6816e-07 0)
(42.5716 7.70443e-07 0)
(42.5723 7.72596e-07 0)
(42.5732 7.74484e-07 0)
(42.5742 7.76443e-07 0)
(42.5754 7.78243e-07 0)
(42.5766 7.7952e-07 0)
(42.5779 7.80214e-07 0)
(42.5792 7.80547e-07 0)
(42.5804 7.808e-07 0)
(42.5816 7.80809e-07 0)
(42.5827 7.8066e-07 0)
(42.5837 7.80078e-07 0)
(42.5844 7.79255e-07 0)
(42.585 7.78111e-07 0)
(42.5853 7.76652e-07 0)
(42.5854 7.74889e-07 0)
(42.5852 7.74031e-07 0)
(42.5847 7.71746e-07 0)
(42.584 7.69655e-07 0)
(42.583 7.67723e-07 0)
(42.5817 7.65771e-07 0)
(42.5802 7.6418e-07 0)
(42.5785 7.62484e-07 0)
(42.5766 7.61696e-07 0)
(42.5746 7.61314e-07 0)
(42.5726 7.60565e-07 0)
(42.5706 7.60345e-07 0)
(42.5687 7.60897e-07 0)
(42.5668 7.62023e-07 0)
(42.5652 7.63937e-07 0)
(42.5639 7.66017e-07 0)
(42.5628 7.68948e-07 0)
(42.562 7.71239e-07 0)
(42.5616 7.71428e-07 0)
(42.5615 7.90562e-07 0)
(42.5617 7.74142e-07 0)
(42.5622 7.81336e-07 0)
(42.563 7.88306e-07 0)
(42.5641 7.88986e-07 0)
(42.5653 7.95018e-07 0)
(42.5667 7.94382e-07 0)
(42.5681 7.98982e-07 0)
(42.5696 7.98677e-07 0)
(42.5711 8.00761e-07 0)
(42.5724 8.01032e-07 0)
(42.5737 8.02817e-07 0)
(42.5748 8.02427e-07 0)
(42.5756 8.01405e-07 0)
(42.5762 8.00211e-07 0)
(42.5764 7.99214e-07 0)
(42.5763 7.9838e-07 0)
(42.5757 7.96081e-07 0)
(42.5746 7.94098e-07 0)
(42.573 7.92118e-07 0)
(42.5709 7.98306e-07 0)
(42.5682 7.47735e-07 0)
(42.565 8.17827e-07 0)
(42.5612 7.84934e-07 0)
(42.557 7.62939e-07 0)
(42.5524 7.82182e-07 0)
(42.5474 7.70484e-07 0)
(42.5422 7.79711e-07 0)
(42.5369 7.71832e-07 0)
(42.5316 7.80755e-07 0)
(42.5264 7.74028e-07 0)
(42.5215 7.70244e-07 0)
(42.5169 8.64295e-07 0)
(42.5127 7.16139e-07 0)
(42.5091 7.99594e-07 0)
(42.506 8.26368e-07 0)
(42.5034 8.05442e-07 0)
(42.5014 8.28077e-07 0)
(42.4997 8.23045e-07 0)
(42.4983 8.29026e-07 0)
(42.497 8.27838e-07 0)
(42.4959 8.333e-07 0)
(42.4947 8.3305e-07 0)
(42.4935 8.60204e-07 0)
(42.4921 9.76166e-07 0)
(42.4906 1.86177e-06 0)
(42.4892 7.83022e-06 0)
(42.4886 5.07671e-05 0)
(42.4949 0.000365783 0)
(42.5533 0.0028864 0)
(42.781 0.0401435 0)
(48.1321 0.16457 0)
(38.262 1.29808 -3.15919e-15)
(37.1673 3.72402 6.33732e-15)
(36.7361 6.48779 -1.18813e-14)
(36.3049 9.2831 2.45522e-14)
(35.6118 12.0424 -2.53347e-14)
(34.6633 14.7424 -1.5828e-15)
(33.5378 17.3961 2.72597e-20)
(32.5026 20.1533 -2.20792e-14)
(31.6886 23.2251 -1.02055e-13)
(30.731 26.4037 1.00144e-13)
(29.0711 29.1017 -2.50317e-14)
(26.6355 31.0044 -5.16289e-14)
(23.7469 32.2299 2.66512e-14)
(20.6459 32.9699 0)
(17.5853 33.6569 2.5264e-14)
(15.0039 35.466 2.51516e-14)
(12.9334 39.2619 -2.48185e-14)
(10.7459 44.6042 2.44147e-14)
(7.92391 50.1336 1.87947e-16)
(4.56589 55.584 -1.84799e-16)
(39.4777 2.05562 0)
(38.822 5.00985 0)
(38.3924 8.26767 -1.60841e-15)
(37.8436 11.5097 -3.21393e-15)
(37.0019 14.6967 8.02682e-15)
(35.8586 17.8211 1.60393e-14)
(34.5262 20.7872 0)
(33.3602 23.6305 9.56701e-15)
(32.4013 26.7758 1.5858e-14)
(31.0469 30.4172 -3.79068e-14)
(28.6684 33.9466 2.52823e-14)
(25.4515 36.5117 1.26299e-14)
(21.7388 38.1935 -1.26322e-14)
(17.9011 39.0149 1.26635e-14)
(14.5978 39.0447 0)
(12.9056 39.2435 -1.58912e-15)
(11.8911 41.3032 1.56777e-15)
(10.0274 45.3815 -5.40342e-15)
(6.49333 50.5176 -7.61961e-16)
(2.74743 55.3484 0)
(42.3542 1.64257 -4.09734e-17)
(42.3522 2.7119 -2.08235e-14)
(42.4532 3.79953 2.11487e-14)
(42.64 4.88198 -2.0327e-14)
(42.8631 6.03343 -2.22956e-14)
(43.0821 7.3348 8.29852e-14)
(43.2543 8.84438 -4.20062e-14)
(43.3074 10.5734 4.07124e-14)
(43.2292 12.4129 -8.28197e-14)
(43.1122 14.2803 1.32304e-15)
(43.0357 16.2461 4.08498e-14)
(42.8465 18.4993 0)
(42.3562 21.0756 -4.08568e-14)
(41.4314 23.9241 4.08564e-14)
(39.925 26.9613 -3.29299e-16)
(37.619 29.9978 0)
(34.7459 32.6678 3.29803e-16)
(32.0437 34.7613 0)
(30.1875 36.4427 0)
(29.2662 38.0459 0)
(46.6107 2.64114 6.25971e-16)
(46.3377 6.06323 -6.28039e-15)
(45.3068 10.1337 -1.25875e-15)
(44.0848 14.314 2.51524e-15)
(42.9711 18.4379 -2.50453e-15)
(41.9058 22.4966 -4.91653e-19)
(40.7174 26.4843 -9.90128e-15)
(39.2482 30.3558 0)
(37.459 34.0974 0)
(35.3492 37.7039 -4.87009e-15)
(32.8909 41.1243 4.84601e-15)
(30.1018 44.3439 0)
(26.9834 47.3072 -4.80105e-15)
(23.5649 49.9777 4.78542e-15)
(19.8876 52.3279 -4.76946e-15)
(15.9965 54.3342 9.50785e-15)
(11.9309 55.9822 -4.74287e-15)
(7.72911 57.2576 0)
(3.46217 58.1618 -2.35986e-15)
(-0.462541 58.6168 0)
(49.6095 1.81844 -9.54711e-16)
(50.5862 4.65963 7.31846e-15)
(50.2813 8.07455 5.09146e-15)
(49.4484 11.6544 1.01763e-14)
(48.6008 15.3672 0)
(47.7637 19.2144 0)
(46.7964 23.1444 1.00756e-14)
(45.5676 27.0757 2.50736e-15)
(44.0114 30.9871 -4.99161e-15)
(42.1315 34.8086 2.48529e-15)
(39.8883 38.4968 1.97979e-14)
(37.2966 41.9937 -1.23279e-14)
(34.3534 45.2481 1.22918e-14)
(31.0742 48.2199 -2.45103e-15)
(27.4879 50.8779 -9.78321e-15)
(23.6305 53.1887 -1.70959e-14)
(19.5513 55.1003 -8.5391e-15)
(15.315 56.5163 -1.21998e-15)
(11.0022 57.2609 7.01946e-15)
(6.87855 56.9663 3.06076e-16)
(1.60143 59.1278 0)
(1.28541 56.1398 0)
(1.00472 56.5519 0)
(0.989172 58.559 0)
(1.06806 59.2816 0)
(1.08265 59.0163 0)
(1.08327 58.7696 0)
(1.06858 58.8126 0)
(1.06738 58.9442 0)
(1.0727 58.9833 0)
(1.07392 58.9567 0)
(1.07298 58.9343 0)
(1.07143 58.9309 0)
(1.07053 58.9276 0)
(1.06973 58.9109 0)
(1.06852 58.8854 0)
(1.06684 58.8549 0)
(1.06476 58.8214 0)
(1.06239 58.7859 0)
(1.05982 58.7491 0)
(1.05714 58.7114 0)
(1.05443 58.6732 0)
(1.05175 58.6353 0)
(1.04916 58.5981 0)
(1.0467 58.5621 0)
(1.04442 58.5279 0)
(1.04234 58.4958 0)
(1.04046 58.466 0)
(1.0388 58.4388 0)
(1.03732 58.4143 0)
(1.036 58.3927 0)
(1.03481 58.3737 0)
(1.0337 58.3572 0)
(1.03263 58.3427 0)
(1.03158 58.3296 0)
(1.03051 58.3174 0)
(1.0294 58.3053 0)
(1.02823 58.2925 0)
(1.02698 58.2786 0)
(1.02559 58.2636 0)
(1.02389 58.2491 0)
(1.02121 58.2421 0)
(1.01631 58.2609 0)
(1.01224 58.3106 0)
(1.01141 58.3641 0)
(1.01311 58.3924 0)
(1.01439 58.3891 0)
(1.01391 58.3681 0)
(1.01157 58.344 0)
(1.00755 58.3221 0)
(1.00187 58.3019 0)
(0.994371 58.2832 0)
(0.984812 58.2652 0)
(0.972921 58.2469 0)
(0.958399 58.2271 0)
(0.940942 58.2043 0)
(0.920282 58.1768 0)
(0.896184 58.1421 0)
(0.868506 58.0974 0)
(0.837223 58.0395 0)
(0.802449 57.9649 0)
(0.764449 57.8699 0)
(0.723632 57.7511 0)
(0.680532 57.605 0)
(0.635785 57.4287 0)
(0.590069 57.2194 0)
(0.544054 56.9742 0)
(0.498373 56.6894 0)
(0.453573 56.3601 0)
(0.410081 55.9796 0)
(0.368207 55.5397 0)
(0.328136 55.0311 0)
(0.28993 54.4447 0)
(0.253689 53.7728 0)
(0.219598 53.0115 0)
(0.18757 52.1633 0)
(0.158046 51.2384 0)
(0.131333 50.2552 0)
(0.107668 49.2411 0)
(0.0871254 48.229 0)
(0.0699938 47.2529 0)
(0.0558912 46.3438 0)
(0.0445254 45.5259 0)
(0.0354835 44.8134 0)
(0.0283185 44.2113 0)
(0.0226264 43.7158 0)
(0.0180687 43.3175 0)
(0.0143843 43.0036 0)
(0.0113938 42.7605 0)
(0.00896147 42.5748 0)
(0.00698822 42.4344 0)
(0.00539739 42.3293 0)
(0.00412624 42.2511 0)
(0.00312121 42.193 0)
(0.00233576 42.15 0)
(0.00172929 42.118 0)
(0.00126672 42.0941 0)
(0.000918189 42.0759 0)