/*--------------------------------*- C++ -*----------------------------------*\
| =========                 |                                                 |
| \\      /  F ield         | OpenFOAM: The Open Source CFD Toolbox           |
|  \\    /   O peration     | Version:  3.0.x                                 |
|   \\  /    A nd           | Web:      www.OpenFOAM.org                      |
|    \\/     M anipulation  |                                                 |
\*---------------------------------------------------------------------------*/
FoamFile
{
    version     2.0;
    format      ascii;
    class       volVectorField;
    location    "0.15";
    object      U;
}
// * * * * * * * * * * * * * * * * * * * * * * * * * * * * * * * * * * * * * //

dimensions      [0 1 -1 0 0 0 0];

internalField   nonuniform List<vector> 
13800
(
(42.7001 0.000141889 0)
(42.7046 0.000123576 0)
(42.7088 0.000122328 0)
(42.7125 0.000124543 0)
(42.7163 0.000126381 0)
(42.7199 0.000127905 0)
(42.723 0.000129177 0)
(42.7256 0.000130224 0)
(42.7276 0.000131083 0)
(42.7289 0.000131785 0)
(42.7296 0.00013234 0)
(42.7295 0.000132734 0)
(42.7287 0.000132945 0)
(42.7272 0.00013287 0)
(42.7248 0.00013241 0)
(42.7217 0.000131406 0)
(42.7178 0.000129672 0)
(42.7132 0.00012699 0)
(42.708 0.000123201 0)
(42.7023 0.000118147 0)
(42.696 0.000111769 0)
(42.6893 0.00010411 0)
(42.6822 9.53208e-05 0)
(42.6749 8.5659e-05 0)
(42.6674 7.54597e-05 0)
(42.6597 6.51014e-05 0)
(42.652 5.4964e-05 0)
(42.6442 4.53885e-05 0)
(42.6364 3.66472e-05 0)
(42.6287 2.89252e-05 0)
(42.6209 2.23167e-05 0)
(42.6131 1.68317e-05 0)
(42.6054 1.2412e-05 0)
(42.5977 8.95163e-06 0)
(42.5899 6.31665e-06 0)
(42.5822 4.36377e-06 0)
(42.5744 2.95399e-06 0)
(42.5667 1.96206e-06 0)
(42.5589 1.28148e-06 0)
(42.5511 8.25966e-07 0)
(42.5432 5.28664e-07 0)
(42.5353 3.38789e-07 0)
(42.5275 2.14741e-07 0)
(42.5195 1.57639e-07 0)
(42.5113 1.1348e-07 0)
(42.5031 8.85844e-08 0)
(42.4948 7.69311e-08 0)
(42.4864 7.23858e-08 0)
(42.478 7.14387e-08 0)
(42.4695 7.22707e-08 0)
(42.4609 7.3931e-08 0)
(42.4523 7.58801e-08 0)
(42.4437 7.77718e-08 0)
(42.435 7.94299e-08 0)
(42.4264 8.07369e-08 0)
(42.4178 8.16892e-08 0)
(42.4093 8.21738e-08 0)
(42.401 8.21823e-08 0)
(42.3928 8.17468e-08 0)
(42.3849 8.08159e-08 0)
(42.3773 7.93997e-08 0)
(42.37 7.75298e-08 0)
(42.3632 7.5229e-08 0)
(42.3568 7.25304e-08 0)
(42.3509 6.94495e-08 0)
(42.3455 6.60311e-08 0)
(42.3408 6.2247e-08 0)
(42.3367 5.80506e-08 0)
(42.3333 5.34422e-08 0)
(42.3306 4.83771e-08 0)
(42.3286 4.28137e-08 0)
(42.3273 3.67632e-08 0)
(42.3268 3.09711e-08 0)
(42.327 2.48851e-08 0)
(42.3278 1.60847e-08 0)
(42.3294 8.45708e-09 0)
(42.3317 1.32884e-09 0)
(42.3346 -2.71449e-09 0)
(42.338 -6.89403e-09 0)
(42.342 -9.91263e-09 0)
(42.3465 -1.27638e-08 0)
(42.3514 -1.52982e-08 0)
(42.3567 -1.68791e-08 0)
(42.3622 -1.84833e-08 0)
(42.3679 -1.91743e-08 0)
(42.3738 -1.93786e-08 0)
(42.3798 -1.94217e-08 0)
(42.3858 -1.84454e-08 0)
(42.3918 -1.74331e-08 0)
(42.3976 -1.6019e-08 0)
(42.4033 -1.44476e-08 0)
(42.4089 -1.29351e-08 0)
(42.4142 -1.08337e-08 0)
(42.4192 -8.47108e-09 0)
(42.424 -5.64626e-09 0)
(42.4284 -2.57696e-09 0)
(42.4326 8.7145e-10 0)
(42.4364 3.98885e-09 0)
(42.4399 6.82729e-09 0)
(42.4431 9.67291e-09 0)
(42.446 1.25694e-08 0)
(42.4485 1.54257e-08 0)
(42.4508 1.81074e-08 0)
(42.4528 2.07479e-08 0)
(42.4546 2.32568e-08 0)
(42.4562 2.54779e-08 0)
(42.4575 2.76364e-08 0)
(42.4587 2.95448e-08 0)
(42.4597 3.12915e-08 0)
(42.4605 3.28375e-08 0)
(42.4613 3.42151e-08 0)
(42.4619 3.54547e-08 0)
(42.4625 3.65339e-08 0)
(42.463 3.74697e-08 0)
(42.4634 3.82243e-08 0)
(42.4638 3.88361e-08 0)
(42.4642 3.94044e-08 0)
(42.4646 3.99508e-08 0)
(42.4649 4.0321e-08 0)
(42.4653 4.06329e-08 0)
(42.4656 4.08795e-08 0)
(42.466 4.10762e-08 0)
(42.4664 4.14532e-08 0)
(42.4668 4.15475e-08 0)
(42.4672 4.14846e-08 0)
(42.4676 4.19815e-08 0)
(42.468 4.25879e-08 0)
(42.4684 4.35271e-08 0)
(42.4688 4.52811e-08 0)
(42.4692 4.14298e-08 0)
(42.4697 4.69148e-08 0)
(42.4701 4.72833e-08 0)
(42.4705 4.58311e-08 0)
(42.4709 4.55035e-08 0)
(42.4713 4.62991e-08 0)
(42.4717 4.71655e-08 0)
(42.4721 4.75869e-08 0)
(42.4725 4.76953e-08 0)
(42.4728 4.78495e-08 0)
(42.4732 4.80963e-08 0)
(42.4735 4.84595e-08 0)
(42.4739 4.89133e-08 0)
(42.4742 4.94729e-08 0)
(42.4745 5.00223e-08 0)
(42.4749 5.06426e-08 0)
(42.4753 5.13116e-08 0)
(42.4757 5.20381e-08 0)
(42.4761 5.29309e-08 0)
(42.4766 5.38161e-08 0)
(42.4771 5.44674e-08 0)
(42.4777 5.53915e-08 0)
(42.4784 5.6298e-08 0)
(42.4793 5.73108e-08 0)
(42.4802 5.82962e-08 0)
(42.4813 5.93639e-08 0)
(42.4825 6.03989e-08 0)
(42.4839 6.153e-08 0)
(42.4855 6.25763e-08 0)
(42.4872 6.37241e-08 0)
(42.4892 6.47413e-08 0)
(42.4914 6.58491e-08 0)
(42.4938 6.68428e-08 0)
(42.4965 6.78639e-08 0)
(42.4994 6.88732e-08 0)
(42.5026 6.97101e-08 0)
(42.506 7.06102e-08 0)
(42.5097 7.12775e-08 0)
(42.5136 7.18021e-08 0)
(42.5177 7.22793e-08 0)
(42.522 7.23852e-08 0)
(42.5266 7.23646e-08 0)
(42.5313 7.22506e-08 0)
(42.5361 7.15947e-08 0)
(42.541 7.09288e-08 0)
(42.546 6.99487e-08 0)
(42.551 6.85302e-08 0)
(42.556 6.71216e-08 0)
(42.561 6.51897e-08 0)
(42.5658 6.31032e-08 0)
(42.5705 6.10298e-08 0)
(42.575 5.80643e-08 0)
(42.5792 5.56531e-08 0)
(42.5832 5.20495e-08 0)
(42.5867 4.92214e-08 0)
(42.5899 4.56463e-08 0)
(42.5926 4.20146e-08 0)
(42.5947 3.82569e-08 0)
(42.5964 3.59295e-08 0)
(42.5974 3.35145e-08 0)
(42.5978 4.25367e-08 0)
(42.5976 1.06732e-07 0)
(42.5966 4.4824e-07 0)
(42.5949 2.10001e-06 0)
(42.5922 1.00573e-05 0)
(42.5876 4.82166e-05 0)
(42.5771 0.000231301 0)
(42.5415 0.0011025 0)
(42.3923 0.00521775 0)
(41.9244 0.026789 0)
(37.5135 0.105758 0)
(42.704 0.000222593 0)
(42.7124 0.000162226 0)
(42.7205 0.000149778 0)
(42.7281 0.000147916 0)
(42.7358 0.000146125 0)
(42.7433 0.000144677 0)
(42.7503 0.000143578 0)
(42.7568 0.000142685 0)
(42.7627 0.000141933 0)
(42.7679 0.000141285 0)
(42.7725 0.0001407 0)
(42.7764 0.000140119 0)
(42.7794 0.000139505 0)
(42.7817 0.000138702 0)
(42.7833 0.000137607 0)
(42.784 0.000136039 0)
(42.7839 0.000133797 0)
(42.7831 0.000130637 0)
(42.7815 0.000126413 0)
(42.7792 0.000120945 0)
(42.7762 0.000114175 0)
(42.7726 0.000106145 0)
(42.7684 9.70106e-05 0)
(42.7637 8.70311e-05 0)
(42.7585 7.65468e-05 0)
(42.7529 6.59397e-05 0)
(42.7469 5.55909e-05 0)
(42.7406 4.58416e-05 0)
(42.7339 3.69622e-05 0)
(42.7271 2.91343e-05 0)
(42.72 2.24478e-05 0)
(42.7128 1.69075e-05 0)
(42.7055 1.24507e-05 0)
(42.6981 8.96674e-06 0)
(42.6905 6.31795e-06 0)
(42.6829 4.35801e-06 0)
(42.6753 2.94561e-06 0)
(42.6676 1.95393e-06 0)
(42.6599 1.27548e-06 0)
(42.6521 8.23301e-07 0)
(42.6442 5.30157e-07 0)
(42.6363 3.44305e-07 0)
(42.6285 2.20421e-07 0)
(42.6205 1.81439e-07 0)
(42.6123 1.38984e-07 0)
(42.6041 1.15783e-07 0)
(42.5958 1.0654e-07 0)
(42.5875 1.04047e-07 0)
(42.579 1.04744e-07 0)
(42.5705 1.07033e-07 0)
(42.562 1.10031e-07 0)
(42.5533 1.13184e-07 0)
(42.5447 1.16076e-07 0)
(42.536 1.18523e-07 0)
(42.5274 1.20342e-07 0)
(42.5188 1.21537e-07 0)
(42.5103 1.21929e-07 0)
(42.502 1.21515e-07 0)
(42.4938 1.2033e-07 0)
(42.4859 1.18306e-07 0)
(42.4783 1.1544e-07 0)
(42.471 1.11777e-07 0)
(42.4642 1.07336e-07 0)
(42.4578 1.02158e-07 0)
(42.4519 9.6294e-08 0)
(42.4465 8.98152e-08 0)
(42.4418 8.2679e-08 0)
(42.4377 7.49408e-08 0)
(42.4343 6.65999e-08 0)
(42.4315 5.77066e-08 0)
(42.4295 4.82711e-08 0)
(42.4283 3.83867e-08 0)
(42.4278 2.95503e-08 0)
(42.4279 2.01358e-08 0)
(42.4288 7.02611e-09 0)
(42.4304 -1.72593e-09 0)
(42.4326 -1.00129e-08 0)
(42.4355 -1.59134e-08 0)
(42.439 -2.23265e-08 0)
(42.443 -2.71991e-08 0)
(42.4475 -3.16265e-08 0)
(42.4524 -3.56145e-08 0)
(42.4576 -3.81129e-08 0)
(42.4631 -4.0593e-08 0)
(42.4689 -4.16165e-08 0)
(42.4748 -4.18733e-08 0)
(42.4807 -4.16747e-08 0)
(42.4867 -3.98263e-08 0)
(42.4927 -3.77412e-08 0)
(42.4985 -3.48062e-08 0)
(42.5043 -3.15728e-08 0)
(42.5098 -2.83207e-08 0)
(42.5151 -2.40317e-08 0)
(42.5201 -1.93027e-08 0)
(42.5249 -1.36907e-08 0)
(42.5293 -7.45922e-09 0)
(42.5335 -4.72703e-10 0)
(42.5373 5.09986e-09 0)
(42.5408 9.82013e-09 0)
(42.544 1.43881e-08 0)
(42.5469 1.89149e-08 0)
(42.5494 2.33623e-08 0)
(42.5517 2.74918e-08 0)
(42.5537 3.14935e-08 0)
(42.5555 3.52509e-08 0)
(42.557 3.85638e-08 0)
(42.5584 4.16942e-08 0)
(42.5595 4.44284e-08 0)
(42.5605 4.68886e-08 0)
(42.5614 4.89644e-08 0)
(42.5621 5.08017e-08 0)
(42.5628 5.23667e-08 0)
(42.5633 5.36668e-08 0)
(42.5638 5.47089e-08 0)
(42.5643 5.54696e-08 0)
(42.5647 5.59926e-08 0)
(42.5651 5.64474e-08 0)
(42.5654 5.68209e-08 0)
(42.5658 5.69392e-08 0)
(42.5661 5.69256e-08 0)
(42.5665 5.67783e-08 0)
(42.5669 5.65394e-08 0)
(42.5672 5.65997e-08 0)
(42.5676 5.60979e-08 0)
(42.568 5.52281e-08 0)
(42.5684 5.49921e-08 0)
(42.5688 5.4323e-08 0)
(42.5692 5.3632e-08 0)
(42.5696 5.3772e-08 0)
(42.5701 4.55891e-08 0)
(42.5705 5.48415e-08 0)
(42.571 5.41234e-08 0)
(42.5713 5.10449e-08 0)
(42.5718 5.04026e-08 0)
(42.5722 5.15506e-08 0)
(42.5725 5.26441e-08 0)
(42.5729 5.29963e-08 0)
(42.5733 5.28576e-08 0)
(42.5737 5.27872e-08 0)
(42.574 5.28359e-08 0)
(42.5743 5.30478e-08 0)
(42.5747 5.34028e-08 0)
(42.575 5.39778e-08 0)
(42.5754 5.45617e-08 0)
(42.5757 5.53068e-08 0)
(42.5761 5.61683e-08 0)
(42.5765 5.71675e-08 0)
(42.5769 5.85402e-08 0)
(42.5774 5.99409e-08 0)
(42.5779 6.09365e-08 0)
(42.5785 6.24737e-08 0)
(42.5792 6.40436e-08 0)
(42.5801 6.58566e-08 0)
(42.581 6.76928e-08 0)
(42.5821 6.97509e-08 0)
(42.5833 7.18392e-08 0)
(42.5847 7.41512e-08 0)
(42.5862 7.64322e-08 0)
(42.588 7.89663e-08 0)
(42.59 8.13995e-08 0)
(42.5922 8.40834e-08 0)
(42.5946 8.66423e-08 0)
(42.5973 8.92899e-08 0)
(42.6002 9.19478e-08 0)
(42.6034 9.43668e-08 0)
(42.6068 9.69383e-08 0)
(42.6105 9.92154e-08 0)
(42.6144 1.0135e-07 0)
(42.6185 1.03478e-07 0)
(42.6228 1.05105e-07 0)
(42.6273 1.06609e-07 0)
(42.632 1.0799e-07 0)
(42.6368 1.08566e-07 0)
(42.6418 1.09186e-07 0)
(42.6468 1.09311e-07 0)
(42.6518 1.08791e-07 0)
(42.6568 1.08218e-07 0)
(42.6617 1.06665e-07 0)
(42.6666 1.05029e-07 0)
(42.6713 1.02869e-07 0)
(42.6758 9.99008e-08 0)
(42.68 9.75307e-08 0)
(42.6839 9.34922e-08 0)
(42.6875 8.98523e-08 0)
(42.6906 8.57152e-08 0)
(42.6933 8.13119e-08 0)
(42.6955 7.64988e-08 0)
(42.6971 7.4989e-08 0)
(42.6982 8.07505e-08 0)
(42.6986 1.24355e-07 0)
(42.6983 3.55613e-07 0)
(42.6973 1.52163e-06 0)
(42.6956 7.14778e-06 0)
(42.6929 3.4258e-05 0)
(42.6883 0.000164263 0)
(42.6778 0.000787981 0)
(42.6424 0.00375694 0)
(42.4939 0.0177475 0)
(42.0278 0.0893296 0)
(37.8535 0.33358 0)
(42.704 0.000163898 0)
(42.7124 0.000113336 0)
(42.7205 0.000107093 0)
(42.7281 0.000110503 0)
(42.7358 0.000111597 0)
(42.7433 0.000112061 0)
(42.7503 0.000112469 0)
(42.7568 0.0001128 0)
(42.7627 0.000113061 0)
(42.7679 0.000113267 0)
(42.7725 0.000113413 0)
(42.7764 0.000113473 0)
(42.7795 0.000113433 0)
(42.7818 0.000113174 0)
(42.7833 0.000112624 0)
(42.784 0.000111637 0)
(42.7839 0.000110055 0)
(42.7831 0.000107676 0)
(42.7815 0.000104387 0)
(42.7792 0.000100034 0)
(42.7763 9.45737e-05 0)
(42.7727 8.80391e-05 0)
(42.7685 8.05611e-05 0)
(42.7638 7.23543e-05 0)
(42.7586 6.37051e-05 0)
(42.753 5.49325e-05 0)
(42.7469 4.63558e-05 0)
(42.7406 3.82619e-05 0)
(42.734 3.08791e-05 0)
(42.7271 2.43618e-05 0)
(42.7201 1.87878e-05 0)
(42.7129 1.41639e-05 0)
(42.7055 1.04401e-05 0)
(42.6981 7.52588e-06 0)
(42.6906 5.3079e-06 0)
(42.683 3.66506e-06 0)
(42.6753 2.48004e-06 0)
(42.6676 1.64734e-06 0)
(42.6599 1.07727e-06 0)
(42.6521 6.96999e-07 0)
(42.6443 4.49695e-07 0)
(42.6364 2.91329e-07 0)
(42.6285 1.84349e-07 0)
(42.6205 1.48243e-07 0)
(42.6123 1.07791e-07 0)
(42.6041 8.51581e-08 0)
(42.5958 7.56698e-08 0)
(42.5875 7.24597e-08 0)
(42.5791 7.21941e-08 0)
(42.5706 7.33605e-08 0)
(42.562 7.51446e-08 0)
(42.5534 7.7056e-08 0)
(42.5447 7.87568e-08 0)
(42.5361 8.00928e-08 0)
(42.5274 8.09291e-08 0)
(42.5188 8.12693e-08 0)
(42.5104 8.09821e-08 0)
(42.502 8.00683e-08 0)
(42.4939 7.85522e-08 0)
(42.486 7.63962e-08 0)
(42.4784 7.35924e-08 0)
(42.4711 7.01922e-08 0)
(42.4642 6.62031e-08 0)
(42.4578 6.16603e-08 0)
(42.4519 5.66004e-08 0)
(42.4466 5.11121e-08 0)
(42.4418 4.5227e-08 0)
(42.4377 3.90316e-08 0)
(42.4343 3.26325e-08 0)
(42.4316 2.61408e-08 0)
(42.4296 1.96456e-08 0)
(42.4283 1.33093e-08 0)
(42.4278 8.42178e-09 0)
(42.428 3.07881e-09 0)
(42.4289 -4.07933e-09 0)
(42.4304 -6.61557e-09 0)
(42.4327 -1.01929e-08 0)
(42.4356 -1.44166e-08 0)
(42.439 -1.90951e-08 0)
(42.443 -2.25375e-08 0)
(42.4475 -2.55911e-08 0)
(42.4524 -2.81313e-08 0)
(42.4576 -2.9484e-08 0)
(42.4632 -3.06997e-08 0)
(42.4689 -3.07866e-08 0)
(42.4748 -3.02786e-08 0)
(42.4808 -2.94292e-08 0)
(42.4868 -2.74951e-08 0)
(42.4927 -2.5402e-08 0)
(42.4986 -2.28299e-08 0)
(42.5043 -2.01414e-08 0)
(42.5098 -1.74787e-08 0)
(42.5151 -1.42257e-08 0)
(42.5202 -1.07627e-08 0)
(42.5249 -6.88633e-09 0)
(42.5294 -3.05976e-09 0)
(42.5335 5.05009e-10 0)
(42.5373 3.70923e-09 0)
(42.5408 7.39612e-09 0)
(42.544 1.10493e-08 0)
(42.5469 1.459e-08 0)
(42.5495 1.8014e-08 0)
(42.5517 2.11515e-08 0)
(42.5538 2.4141e-08 0)
(42.5555 2.68767e-08 0)
(42.5571 2.92627e-08 0)
(42.5584 3.14534e-08 0)
(42.5596 3.33162e-08 0)
(42.5606 3.49411e-08 0)
(42.5614 3.62625e-08 0)
(42.5622 3.73881e-08 0)
(42.5628 3.82966e-08 0)
(42.5634 3.90047e-08 0)
(42.5639 3.95257e-08 0)
(42.5643 3.98407e-08 0)
(42.5647 3.99888e-08 0)
(42.5651 4.01117e-08 0)
(42.5655 4.02023e-08 0)
(42.5658 4.01464e-08 0)
(42.5662 3.99939e-08 0)
(42.5665 3.97923e-08 0)
(42.5669 3.95574e-08 0)
(42.5673 3.95959e-08 0)
(42.5676 3.91945e-08 0)
(42.568 3.85721e-08 0)
(42.5684 3.86608e-08 0)
(42.5689 3.8678e-08 0)
(42.5693 3.88574e-08 0)
(42.5697 3.93855e-08 0)
(42.5701 3.395e-08 0)
(42.5706 4.10557e-08 0)
(42.571 3.89641e-08 0)
(42.5714 3.57313e-08 0)
(42.5718 3.50228e-08 0)
(42.5722 3.56569e-08 0)
(42.5726 3.61638e-08 0)
(42.573 3.61501e-08 0)
(42.5733 3.58474e-08 0)
(42.5737 3.56323e-08 0)
(42.574 3.55179e-08 0)
(42.5744 3.55161e-08 0)
(42.5747 3.56091e-08 0)
(42.575 3.58419e-08 0)
(42.5754 3.6065e-08 0)
(42.5757 3.63735e-08 0)
(42.5761 3.67586e-08 0)
(42.5765 3.72239e-08 0)
(42.5769 3.8036e-08 0)
(42.5774 3.88188e-08 0)
(42.578 3.92325e-08 0)
(42.5786 4.00905e-08 0)
(42.5793 4.09968e-08 0)
(42.5801 4.20799e-08 0)
(42.581 4.31999e-08 0)
(42.5821 4.44946e-08 0)
(42.5833 4.58339e-08 0)
(42.5847 4.73567e-08 0)
(42.5863 4.88715e-08 0)
(42.588 5.05836e-08 0)
(42.59 5.22391e-08 0)
(42.5922 5.40739e-08 0)
(42.5947 5.58442e-08 0)
(42.5973 5.77057e-08 0)
(42.6003 5.95925e-08 0)
(42.6034 6.13524e-08 0)
(42.6068 6.32355e-08 0)
(42.6105 6.49197e-08 0)
(42.6144 6.65249e-08 0)
(42.6185 6.81179e-08 0)
(42.6229 6.93717e-08 0)
(42.6274 7.05408e-08 0)
(42.6321 7.16231e-08 0)
(42.6369 7.21504e-08 0)
(42.6418 7.26972e-08 0)
(42.6468 7.28969e-08 0)
(42.6518 7.26329e-08 0)
(42.6568 7.22482e-08 0)
(42.6618 7.14426e-08 0)
(42.6666 7.02615e-08 0)
(42.6713 6.90103e-08 0)
(42.6758 6.69819e-08 0)
(42.68 6.53565e-08 0)
(42.6839 6.24649e-08 0)
(42.6875 5.95533e-08 0)
(42.6907 5.67118e-08 0)
(42.6933 5.33334e-08 0)
(42.6955 5.01303e-08 0)
(42.6972 5.17592e-08 0)
(42.6982 6.98814e-08 0)
(42.6986 1.66775e-07 0)
(42.6983 6.39478e-07 0)
(42.6974 2.96093e-06 0)
(42.6956 1.41301e-05 0)
(42.6929 6.7936e-05 0)
(42.6884 0.000325948 0)
(42.6781 0.00156397 0)
(42.6433 0.0074621 0)
(42.4984 0.0352473 0)
(42.0447 0.176617 0)
(38.0928 0.64481 0)
(42.704 0.000119224 0)
(42.7123 0.000102767 0)
(42.7205 9.93379e-05 0)
(42.7281 0.000103786 0)
(42.7358 0.000106035 0)
(42.7433 0.000107287 0)
(42.7503 0.000108346 0)
(42.7568 0.00010924 0)
(42.7626 0.000109976 0)
(42.7679 0.000110581 0)
(42.7725 0.000111067 0)
(42.7763 0.000111421 0)
(42.7794 0.00011163 0)
(42.7817 0.000111599 0)
(42.7833 0.000111254 0)
(42.784 0.00011046 0)
(42.7839 0.000109062 0)
(42.7831 0.000106872 0)
(42.7815 0.000103763 0)
(42.7792 9.95924e-05 0)
(42.7762 9.43094e-05 0)
(42.7726 8.79428e-05 0)
(42.7685 8.06169e-05 0)
(42.7638 7.25394e-05 0)
(42.7586 6.39922e-05 0)
(42.7529 5.52914e-05 0)
(42.7469 4.67559e-05 0)
(42.7406 3.8675e-05 0)
(42.734 3.12817e-05 0)
(42.7271 2.47361e-05 0)
(42.7201 1.9122e-05 0)
(42.7129 1.44521e-05 0)
(42.7055 1.0681e-05 0)
(42.6981 7.72207e-06 0)
(42.6906 5.4641e-06 0)
(42.683 3.78716e-06 0)
(42.6753 2.57417e-06 0)
(42.6676 1.71915e-06 0)
(42.6599 1.13151e-06 0)
(42.6521 7.37437e-07 0)
(42.6443 4.79236e-07 0)
(42.6364 3.12656e-07 0)
(42.6285 2.02867e-07 0)
(42.6205 1.54428e-07 0)
(42.6123 1.13729e-07 0)
(42.6041 9.07452e-08 0)
(42.5958 8.04459e-08 0)
(42.5875 7.65623e-08 0)
(42.5791 7.58111e-08 0)
(42.5706 7.66218e-08 0)
(42.562 7.81544e-08 0)
(42.5534 7.9932e-08 0)
(42.5447 8.1648e-08 0)
(42.5361 8.31493e-08 0)
(42.5274 8.432e-08 0)
(42.5188 8.51433e-08 0)
(42.5104 8.55282e-08 0)
(42.502 8.54649e-08 0)
(42.4939 8.4967e-08 0)
(42.486 8.4009e-08 0)
(42.4784 8.2582e-08 0)
(42.4711 8.07091e-08 0)
(42.4642 7.83993e-08 0)
(42.4578 7.56727e-08 0)
(42.4519 7.25452e-08 0)
(42.4466 6.90843e-08 0)
(42.4418 6.5311e-08 0)
(42.4377 6.12781e-08 0)
(42.4343 5.7038e-08 0)
(42.4316 5.26465e-08 0)
(42.4296 4.81505e-08 0)
(42.4283 4.36336e-08 0)
(42.4278 3.98973e-08 0)
(42.428 3.5816e-08 0)
(42.4289 3.01456e-08 0)
(42.4304 2.59226e-08 0)
(42.4327 2.10847e-08 0)
(42.4356 1.71196e-08 0)
(42.439 1.31555e-08 0)
(42.443 1.01142e-08 0)
(42.4475 7.39718e-09 0)
(42.4524 5.05871e-09 0)
(42.4576 3.49285e-09 0)
(42.4632 2.08579e-09 0)
(42.4689 1.41281e-09 0)
(42.4748 1.19251e-09 0)
(42.4808 1.23531e-09 0)
(42.4868 2.01571e-09 0)
(42.4927 2.98815e-09 0)
(42.4986 4.26203e-09 0)
(42.5043 5.62888e-09 0)
(42.5098 7.01992e-09 0)
(42.5151 8.80803e-09 0)
(42.5202 1.08677e-08 0)
(42.5249 1.3245e-08 0)
(42.5294 1.56472e-08 0)
(42.5335 1.76356e-08 0)
(42.5373 2.01173e-08 0)
(42.5408 2.28957e-08 0)
(42.544 2.55207e-08 0)
(42.5469 2.8111e-08 0)
(42.5495 3.06035e-08 0)
(42.5517 3.2886e-08 0)
(42.5538 3.50919e-08 0)
(42.5555 3.71091e-08 0)
(42.5571 3.88938e-08 0)
(42.5584 4.05521e-08 0)
(42.5596 4.20003e-08 0)
(42.5606 4.32809e-08 0)
(42.5614 4.43621e-08 0)
(42.5622 4.5312e-08 0)
(42.5628 4.61353e-08 0)
(42.5634 4.68223e-08 0)
(42.5639 4.7381e-08 0)
(42.5643 4.77975e-08 0)
(42.5647 4.80945e-08 0)
(42.5651 4.83786e-08 0)
(42.5655 4.86508e-08 0)
(42.5658 4.88276e-08 0)
(42.5662 4.89284e-08 0)
(42.5665 4.90096e-08 0)
(42.5669 4.90821e-08 0)
(42.5673 4.93313e-08 0)
(42.5676 4.93073e-08 0)
(42.568 4.91429e-08 0)
(42.5684 4.95702e-08 0)
(42.5689 5.01634e-08 0)
(42.5693 5.10679e-08 0)
(42.5697 5.22258e-08 0)
(42.5701 4.95795e-08 0)
(42.5706 5.38004e-08 0)
(42.571 5.30945e-08 0)
(42.5714 5.13159e-08 0)
(42.5718 5.11006e-08 0)
(42.5722 5.18197e-08 0)
(42.5726 5.24497e-08 0)
(42.573 5.26958e-08 0)
(42.5733 5.27005e-08 0)
(42.5737 5.27341e-08 0)
(42.574 5.2844e-08 0)
(42.5744 5.3032e-08 0)
(42.5747 5.3278e-08 0)
(42.575 5.36176e-08 0)
(42.5754 5.39378e-08 0)
(42.5757 5.42924e-08 0)
(42.5761 5.47035e-08 0)
(42.5765 5.51461e-08 0)
(42.5769 5.58219e-08 0)
(42.5774 5.64662e-08 0)
(42.578 5.68537e-08 0)
(42.5786 5.75269e-08 0)
(42.5793 5.82245e-08 0)
(42.5801 5.90259e-08 0)
(42.581 5.98596e-08 0)
(42.5821 6.07921e-08 0)
(42.5833 6.1755e-08 0)
(42.5847 6.2823e-08 0)
(42.5863 6.38888e-08 0)
(42.588 6.50554e-08 0)
(42.59 6.61818e-08 0)
(42.5922 6.73993e-08 0)
(42.5947 6.85751e-08 0)
(42.5973 6.9785e-08 0)
(42.6003 7.10094e-08 0)
(42.6034 7.21355e-08 0)
(42.6068 7.33003e-08 0)
(42.6105 7.4321e-08 0)
(42.6144 7.5241e-08 0)
(42.6185 7.61273e-08 0)
(42.6229 7.67534e-08 0)
(42.6274 7.72743e-08 0)
(42.6321 7.77174e-08 0)
(42.6369 7.77464e-08 0)
(42.6418 7.77564e-08 0)
(42.6468 7.75048e-08 0)
(42.6518 7.71829e-08 0)
(42.6568 7.59711e-08 0)
(42.6618 7.59241e-08 0)
(42.6666 7.30418e-08 0)
(42.6713 7.38506e-08 0)
(42.6758 6.85353e-08 0)
(42.68 7.126e-08 0)
(42.6839 6.58286e-08 0)
(42.6875 6.6803e-08 0)
(42.6907 6.04179e-08 0)
(42.6933 6.27796e-08 0)
(42.6955 5.38484e-08 0)
(42.6972 8.10667e-08 0)
(42.6982 1.14724e-07 0)
(42.6986 3.84221e-07 0)
(42.6983 1.57656e-06 0)
(42.6974 7.46427e-06 0)
(42.6957 3.57987e-05 0)
(42.693 0.000172251 0)
(42.6886 0.000826487 0)
(42.679 0.00396424 0)
(42.6476 0.0188641 0)
(42.5203 0.0880828 0)
(42.1262 0.40662 0)
(39.1196 1.46052 0)
(42.704 3.6029e-05 0)
(42.7123 2.80581e-05 0)
(42.7204 1.96474e-05 0)
(42.7281 1.65864e-05 0)
(42.7358 1.40955e-05 0)
(42.7433 1.1895e-05 0)
(42.7503 1.01614e-05 0)
(42.7567 8.77e-06 0)
(42.7626 7.61934e-06 0)
(42.7679 6.65498e-06 0)
(42.7725 5.83872e-06 0)
(42.7763 5.14119e-06 0)
(42.7794 4.5456e-06 0)
(42.7817 4.02556e-06 0)
(42.7832 3.5734e-06 0)
(42.784 3.17628e-06 0)
(42.7839 2.82476e-06 0)
(42.783 2.50476e-06 0)
(42.7815 2.21836e-06 0)
(42.7792 1.95366e-06 0)
(42.7762 1.70759e-06 0)
(42.7726 1.47749e-06 0)
(42.7684 1.26274e-06 0)
(42.7637 1.06252e-06 0)
(42.7585 8.79053e-07 0)
(42.7529 7.13323e-07 0)
(42.7469 5.66405e-07 0)
(42.7406 4.39185e-07 0)
(42.734 3.31812e-07 0)
(42.7271 2.43512e-07 0)
(42.7201 1.7287e-07 0)
(42.7129 1.17907e-07 0)
(42.7055 7.63685e-08 0)
(42.6981 4.59087e-08 0)
(42.6906 2.42682e-08 0)
(42.683 9.42014e-09 0)
(42.6753 -3.8332e-10 0)
(42.6676 -6.56222e-09 0)
(42.6599 -1.02369e-08 0)
(42.6521 -1.22271e-08 0)
(42.6443 -1.3068e-08 0)
(42.6364 -1.32383e-08 0)
(42.6285 -1.32648e-08 0)
(42.6205 -5.88268e-09 0)
(42.6123 -3.53635e-09 0)
(42.6041 -1.7305e-09 0)
(42.5958 1.3705e-11 0)
(42.5875 1.31288e-09 0)
(42.5791 2.2378e-09 0)
(42.5706 2.9734e-09 0)
(42.562 3.61799e-09 0)
(42.5534 4.18272e-09 0)
(42.5447 4.64445e-09 0)
(42.5361 4.99189e-09 0)
(42.5274 5.20324e-09 0)
(42.5188 5.27315e-09 0)
(42.5104 5.18322e-09 0)
(42.502 4.92882e-09 0)
(42.4939 4.50719e-09 0)
(42.486 3.91698e-09 0)
(42.4784 3.15212e-09 0)
(42.4711 2.2199e-09 0)
(42.4642 1.12165e-09 0)
(42.4578 -1.32936e-10 0)
(42.4519 -1.54289e-09 0)
(42.4466 -3.08814e-09 0)
(42.4418 -4.76086e-09 0)
(42.4377 -6.55285e-09 0)
(42.4343 -8.4481e-09 0)
(42.4316 -1.04309e-08 0)
(42.4296 -1.24913e-08 0)
(42.4283 -1.46041e-08 0)
(42.4278 -1.65469e-08 0)
(42.428 -1.85838e-08 0)
(42.4289 -2.12965e-08 0)
(42.4304 -2.39319e-08 0)
(42.4327 -2.60994e-08 0)
(42.4356 -2.73713e-08 0)
(42.439 -2.8531e-08 0)
(42.443 -2.95514e-08 0)
(42.4475 -3.03149e-08 0)
(42.4524 -3.10268e-08 0)
(42.4576 -3.15839e-08 0)
(42.4632 -3.20584e-08 0)
(42.4689 -3.23452e-08 0)
(42.4748 -3.24872e-08 0)
(42.4808 -3.24154e-08 0)
(42.4868 -3.20685e-08 0)
(42.4927 -3.14917e-08 0)
(42.4986 -3.06648e-08 0)
(42.5043 -2.97264e-08 0)
(42.5098 -2.86785e-08 0)
(42.5151 -2.73725e-08 0)
(42.5202 -2.58648e-08 0)
(42.5249 -2.4062e-08 0)
(42.5294 -2.18663e-08 0)
(42.5335 -1.94824e-08 0)
(42.5373 -1.73586e-08 0)
(42.5408 -1.60289e-08 0)
(42.544 -1.49948e-08 0)
(42.5469 -1.4027e-08 0)
(42.5495 -1.31083e-08 0)
(42.5517 -1.22926e-08 0)
(42.5538 -1.15258e-08 0)
(42.5555 -1.08172e-08 0)
(42.5571 -1.01918e-08 0)
(42.5584 -9.63022e-09 0)
(42.5596 -9.12492e-09 0)
(42.5606 -8.68185e-09 0)
(42.5614 -8.2985e-09 0)
(42.5622 -7.97299e-09 0)
(42.5628 -7.7022e-09 0)
(42.5634 -7.48421e-09 0)
(42.5639 -7.31753e-09 0)
(42.5643 -7.19993e-09 0)
(42.5647 -7.1321e-09 0)
(42.5651 -7.08691e-09 0)
(42.5655 -7.06955e-09 0)
(42.5658 -7.09551e-09 0)
(42.5662 -7.17215e-09 0)
(42.5665 -7.28648e-09 0)
(42.5669 -7.42091e-09 0)
(42.5673 -7.53141e-09 0)
(42.5676 -7.75731e-09 0)
(42.568 -8.09556e-09 0)
(42.5684 -8.46605e-09 0)
(42.5689 -9.15811e-09 0)
(42.5693 -1.00828e-08 0)
(42.5697 -1.10537e-08 0)
(42.5701 -1.25434e-08 0)
(42.5706 -1.16071e-08 0)
(42.571 -1.1318e-08 0)
(42.5714 -1.14832e-08 0)
(42.5718 -1.12459e-08 0)
(42.5722 -1.07767e-08 0)
(42.5726 -1.04066e-08 0)
(42.573 -1.02098e-08 0)
(42.5733 -1.01264e-08 0)
(42.5737 -1.00735e-08 0)
(42.574 -1.00175e-08 0)
(42.5744 -9.95118e-09 0)
(42.5747 -9.8605e-09 0)
(42.575 -9.72825e-09 0)
(42.5754 -9.5751e-09 0)
(42.5757 -9.39519e-09 0)
(42.5761 -9.17089e-09 0)
(42.5765 -8.91906e-09 0)
(42.5769 -8.57085e-09 0)
(42.5774 -8.2233e-09 0)
(42.578 -7.93243e-09 0)
(42.5786 -7.5444e-09 0)
(42.5793 -7.12701e-09 0)
(42.5801 -6.66538e-09 0)
(42.581 -6.17526e-09 0)
(42.5821 -5.64347e-09 0)
(42.5833 -5.08384e-09 0)
(42.5847 -4.48353e-09 0)
(42.5863 -3.86484e-09 0)
(42.588 -3.20152e-09 0)
(42.59 -2.51688e-09 0)
(42.5922 -1.79365e-09 0)
(42.5947 -1.08237e-09 0)
(42.5973 -3.91857e-10 0)
(42.6003 2.6592e-10 0)
(42.6034 8.64189e-10 0)
(42.6068 1.45139e-09 0)
(42.6105 1.99334e-09 0)
(42.6144 2.49807e-09 0)
(42.6185 2.98504e-09 0)
(42.6229 3.39952e-09 0)
(42.6274 3.77796e-09 0)
(42.6321 4.11647e-09 0)
(42.6369 4.31366e-09 0)
(42.6418 4.52893e-09 0)
(42.6468 4.5694e-09 0)
(42.6518 4.91968e-09 0)
(42.6568 3.8161e-09 0)
(42.6618 4.74519e-09 0)
(42.6666 2.33395e-09 0)
(42.6713 4.76459e-09 0)
(42.6758 6.71315e-10 0)
(42.68 4.87635e-09 0)
(42.6839 6.24781e-10 0)
(42.6875 1.23256e-09 0)
(42.6907 -3.44135e-09 0)
(42.6933 2.21397e-09 0)
(42.6955 -5.81614e-09 0)
(42.6972 2.35328e-08 0)
(42.6982 1.13358e-07 0)
(42.6986 4.97567e-07 0)
(42.6983 2.52616e-06 0)
(42.6974 1.23309e-05 0)
(42.6957 5.93563e-05 0)
(42.6932 0.000286207 0)
(42.6895 0.00137618 0)
(42.6833 0.0066048 0)
(42.6678 0.0315118 0)
(42.61 0.147336 0)
(42.4344 0.662861 0)
(40.6413 2.35506 0)
(42.704 -3.6029e-05 0)
(42.7123 -2.80581e-05 0)
(42.7204 -1.96474e-05 0)
(42.7281 -1.65864e-05 0)
(42.7358 -1.40955e-05 0)
(42.7433 -1.1895e-05 0)
(42.7503 -1.01614e-05 0)
(42.7567 -8.77e-06 0)
(42.7626 -7.61934e-06 0)
(42.7679 -6.65498e-06 0)
(42.7725 -5.83872e-06 0)
(42.7763 -5.14119e-06 0)
(42.7794 -4.5456e-06 0)
(42.7817 -4.02556e-06 0)
(42.7832 -3.5734e-06 0)
(42.784 -3.17628e-06 0)
(42.7839 -2.82476e-06 0)
(42.783 -2.50477e-06 0)
(42.7815 -2.21837e-06 0)
(42.7792 -1.95367e-06 0)
(42.7762 -1.70759e-06 0)
(42.7726 -1.47749e-06 0)
(42.7684 -1.26274e-06 0)
(42.7637 -1.06252e-06 0)
(42.7585 -8.79053e-07 0)
(42.7529 -7.13324e-07 0)
(42.7469 -5.66405e-07 0)
(42.7406 -4.39188e-07 0)
(42.734 -3.31812e-07 0)
(42.7271 -2.43512e-07 0)
(42.7201 -1.7287e-07 0)
(42.7129 -1.17907e-07 0)
(42.7055 -7.6367e-08 0)
(42.6981 -4.59099e-08 0)
(42.6906 -2.42665e-08 0)
(42.683 -9.42171e-09 0)
(42.6753 3.81303e-10 0)
(42.6676 6.56285e-09 0)
(42.6599 1.02368e-08 0)
(42.6521 1.22283e-08 0)
(42.6443 1.30669e-08 0)
(42.6364 1.32396e-08 0)
(42.6285 1.32633e-08 0)
(42.6205 5.88161e-09 0)
(42.6123 3.53752e-09 0)
(42.6041 1.7306e-09 0)
(42.5958 -1.42471e-11 0)
(42.5875 -1.3122e-09 0)
(42.5791 -2.23857e-09 0)
(42.5706 -2.97443e-09 0)
(42.562 -3.61695e-09 0)
(42.5534 -4.1816e-09 0)
(42.5447 -4.64662e-09 0)
(42.5361 -4.99247e-09 0)
(42.5274 -5.20239e-09 0)
(42.5188 -5.27359e-09 0)
(42.5104 -5.18309e-09 0)
(42.502 -4.92635e-09 0)
(42.4939 -4.50804e-09 0)
(42.486 -3.9157e-09 0)
(42.4784 -3.1512e-09 0)
(42.4711 -2.21924e-09 0)
(42.4642 -1.12282e-09 0)
(42.4578 1.35146e-10 0)
(42.4519 1.5418e-09 0)
(42.4466 3.08765e-09 0)
(42.4418 4.76222e-09 0)
(42.4377 6.55357e-09 0)
(42.4343 8.44892e-09 0)
(42.4316 1.04303e-08 0)
(42.4296 1.24913e-08 0)
(42.4283 1.46037e-08 0)
(42.4278 1.65459e-08 0)
(42.428 1.85796e-08 0)
(42.4289 2.12958e-08 0)
(42.4304 2.39309e-08 0)
(42.4327 2.60974e-08 0)
(42.4356 2.73697e-08 0)
(42.439 2.85305e-08 0)
(42.443 2.95514e-08 0)
(42.4475 3.03133e-08 0)
(42.4524 3.10245e-08 0)
(42.4576 3.15836e-08 0)
(42.4632 3.20591e-08 0)
(42.4689 3.23462e-08 0)
(42.4748 3.24853e-08 0)
(42.4808 3.24135e-08 0)
(42.4868 3.20689e-08 0)
(42.4927 3.14921e-08 0)
(42.4986 3.06636e-08 0)
(42.5043 2.9725e-08 0)
(42.5098 2.86776e-08 0)
(42.5151 2.73714e-08 0)
(42.5202 2.58623e-08 0)
(42.5249 2.40604e-08 0)
(42.5294 2.18631e-08 0)
(42.5335 1.94821e-08 0)
(42.5373 1.73586e-08 0)
(42.5408 1.60271e-08 0)
(42.544 1.49937e-08 0)
(42.5469 1.40239e-08 0)
(42.5495 1.31074e-08 0)
(42.5517 1.22905e-08 0)
(42.5538 1.15266e-08 0)
(42.5555 1.08165e-08 0)
(42.5571 1.01915e-08 0)
(42.5584 9.63086e-09 0)
(42.5596 9.126e-09 0)
(42.5606 8.6837e-09 0)
(42.5614 8.29876e-09 0)
(42.5622 7.97538e-09 0)
(42.5628 7.70088e-09 0)
(42.5634 7.48382e-09 0)
(42.5639 7.31971e-09 0)
(42.5643 7.20046e-09 0)
(42.5647 7.13239e-09 0)
(42.5651 7.08848e-09 0)
(42.5655 7.07211e-09 0)
(42.5658 7.0951e-09 0)
(42.5662 7.1715e-09 0)
(42.5665 7.28551e-09 0)
(42.5669 7.42145e-09 0)
(42.5673 7.53385e-09 0)
(42.5676 7.7578e-09 0)
(42.568 8.09765e-09 0)
(42.5684 8.46721e-09 0)
(42.5689 9.15714e-09 0)
(42.5693 1.00826e-08 0)
(42.5697 1.10541e-08 0)
(42.5701 1.25434e-08 0)
(42.5706 1.16078e-08 0)
(42.571 1.13197e-08 0)
(42.5714 1.14836e-08 0)
(42.5718 1.12461e-08 0)
(42.5722 1.07791e-08 0)
(42.5726 1.04038e-08 0)
(42.573 1.0207e-08 0)
(42.5733 1.0127e-08 0)
(42.5737 1.00722e-08 0)
(42.574 1.00178e-08 0)
(42.5744 9.95092e-09 0)
(42.5747 9.86102e-09 0)
(42.575 9.72678e-09 0)
(42.5754 9.57531e-09 0)
(42.5757 9.39322e-09 0)
(42.5761 9.16956e-09 0)
(42.5765 8.92139e-09 0)
(42.5769 8.57326e-09 0)
(42.5774 8.2233e-09 0)
(42.578 7.93387e-09 0)
(42.5786 7.54536e-09 0)
(42.5793 7.12806e-09 0)
(42.5801 6.66478e-09 0)
(42.581 6.17278e-09 0)
(42.5821 5.64335e-09 0)
(42.5833 5.08534e-09 0)
(42.5847 4.48375e-09 0)
(42.5863 3.86439e-09 0)
(42.588 3.199e-09 0)
(42.59 2.51686e-09 0)
(42.5922 1.79379e-09 0)
(42.5947 1.08282e-09 0)
(42.5973 3.923e-10 0)
(42.6003 -2.65275e-10 0)
(42.6034 -8.62932e-10 0)
(42.6068 -1.44872e-09 0)
(42.6105 -1.99102e-09 0)
(42.6144 -2.49921e-09 0)
(42.6185 -2.98511e-09 0)
(42.6229 -3.40004e-09 0)
(42.6274 -3.77768e-09 0)
(42.6321 -4.11243e-09 0)
(42.6369 -4.33521e-09 0)
(42.6418 -4.48175e-09 0)
(42.6468 -4.62956e-09 0)
(42.6518 -4.30582e-09 0)
(42.6568 -5.22683e-09 0)
(42.6618 -3.45828e-09 0)
(42.6666 -5.02239e-09 0)
(42.6713 -1.85102e-09 0)
(42.6758 -4.2247e-09 0)
(42.68 5.08863e-10 0)
(42.6839 -1.48218e-09 0)
(42.6875 6.9623e-10 0)
(42.6907 -8.08665e-10 0)
(42.6933 3.32874e-09 0)
(42.6955 -3.25845e-09 0)
(42.6972 2.59981e-08 0)
(42.6982 1.19001e-07 0)
(42.6986 5.06688e-07 0)
(42.6984 2.54613e-06 0)
(42.6974 1.23527e-05 0)
(42.6957 5.94417e-05 0)
(42.6934 0.000287032 0)
(42.6907 0.00138619 0)
(42.6887 0.00669748 0)
(42.6933 0.0324857 0)
(42.7266 0.1568 0)
(42.8569 0.753591 0)
(43.354 2.64948 0)
(42.704 -0.000119224 0)
(42.7123 -0.000102767 0)
(42.7205 -9.93379e-05 0)
(42.7281 -0.000103786 0)
(42.7358 -0.000106035 0)
(42.7433 -0.000107287 0)
(42.7503 -0.000108346 0)
(42.7568 -0.00010924 0)
(42.7626 -0.000109976 0)
(42.7679 -0.000110581 0)
(42.7725 -0.000111067 0)
(42.7763 -0.000111421 0)
(42.7794 -0.00011163 0)
(42.7817 -0.000111599 0)
(42.7833 -0.000111254 0)
(42.784 -0.00011046 0)
(42.7839 -0.000109062 0)
(42.7831 -0.000106872 0)