/*--------------------------------*- C++ -*----------------------------------*\
| =========                 |                                                 |
| \\      /  F ield         | OpenFOAM: The Open Source CFD Toolbox           |
|  \\    /   O peration     | Version:  3.0.x                                 |
|   \\  /    A nd           | Web:      www.OpenFOAM.org                      |
|    \\/     M anipulation  |                                                 |
\*---------------------------------------------------------------------------*/
FoamFile
{
    version     2.0;
    format      ascii;
    class       volScalarField;
    location    "0.44";
    object      p;
}
// * * * * * * * * * * * * * * * * * * * * * * * * * * * * * * * * * * * * * //

dimensions      [1 -1 -2 0 0 0 0];

internalField   nonuniform List<scalar> 
13800
(
1.80184e+07
1.80184e+07
1.80184e+07
1.80184e+07
1.80184e+07
1.80184e+07
1.80184e+07
1.80184e+07
1.80184e+07
1.80184e+07
1.80184e+07
1.80184e+07
1.80184e+07
1.80184e+07
1.80184e+07
1.80184e+07
1.80184e+07
1.80184e+07
1.80184e+07
1.80184e+07
1.80184e+07
1.80184e+07
1.80184e+07
1.80184e+07
1.80184e+07
1.80184e+07
1.80184e+07
1.80184e+07
1.80184e+07
1.80184e+07
1.80184e+07
1.80184e+07
1.80184e+07
1.80184e+07
1.80184e+07
1.80184e+07
1.80184e+07
1.80184e+07
1.80184e+07
1.80184e+07
1.80184e+07
1.80184e+07
1.80184e+07
1.80184e+07
1.80184e+07
1.80184e+07
1.80184e+07
1.80184e+07
1.80184e+07
1.80184e+07
1.80184e+07
1.80184e+07
1.80184e+07
1.80184e+07
1.80184e+07
1.80184e+07
1.80184e+07
1.80184e+07
1.80184e+07
1.80184e+07
1.80184e+07
1.80184e+07
1.80184e+07
1.80184e+07
1.80184e+07
1.80184e+07
1.80184e+07
1.80184e+07
1.80184e+07
1.80184e+07
1.80184e+07
1.80184e+07
1.80184e+07
1.80184e+07
1.80184e+07
1.80184e+07
1.80185e+07
1.80185e+07
1.80185e+07
1.80185e+07
1.80185e+07
1.80185e+07
1.80185e+07
1.80186e+07
1.80186e+07
1.80186e+07
1.80186e+07
1.80187e+07
1.80187e+07
1.80187e+07
1.80188e+07
1.80188e+07
1.80188e+07
1.80189e+07
1.80189e+07
1.8019e+07
1.8019e+07
1.80191e+07
1.80192e+07
1.80192e+07
1.80193e+07
1.80194e+07
1.80195e+07
1.80196e+07
1.80196e+07
1.80197e+07
1.80198e+07
1.802e+07
1.80201e+07
1.80202e+07
1.80203e+07
1.80205e+07
1.80206e+07
1.80208e+07
1.80209e+07
1.80211e+07
1.80213e+07
1.80215e+07
1.80217e+07
1.80219e+07
1.80221e+07
1.80224e+07
1.80226e+07
1.80229e+07
1.80231e+07
1.80234e+07
1.80237e+07
1.8024e+07
1.80243e+07
1.80247e+07
1.8025e+07
1.80254e+07
1.80258e+07
1.80262e+07
1.80266e+07
1.8027e+07
1.80274e+07
1.80279e+07
1.80284e+07
1.80289e+07
1.80294e+07
1.80299e+07
1.80305e+07
1.8031e+07
1.80316e+07
1.80322e+07
1.80329e+07
1.80335e+07
1.80342e+07
1.80349e+07
1.80356e+07
1.80363e+07
1.80371e+07
1.80379e+07
1.80387e+07
1.80395e+07
1.80403e+07
1.80412e+07
1.80421e+07
1.8043e+07
1.80439e+07
1.80449e+07
1.80459e+07
1.80469e+07
1.80479e+07
1.8049e+07
1.80501e+07
1.80512e+07
1.80523e+07
1.80535e+07
1.80547e+07
1.80559e+07
1.80571e+07
1.80584e+07
1.80597e+07
1.8061e+07
1.80624e+07
1.80637e+07
1.80651e+07
1.80666e+07
1.8068e+07
1.80695e+07
1.8071e+07
1.80726e+07
1.80741e+07
1.80757e+07
1.80773e+07
1.8079e+07
1.80807e+07
1.80824e+07
1.80841e+07
1.80859e+07
1.80877e+07
1.80895e+07
1.80914e+07
1.80932e+07
1.80952e+07
1.80972e+07
1.80996e+07
1.81029e+07
1.80184e+07
1.80184e+07
1.80184e+07
1.80184e+07
1.80184e+07
1.80184e+07
1.80184e+07
1.80184e+07
1.80184e+07
1.80184e+07
1.80184e+07
1.80184e+07
1.80184e+07
1.80184e+07
1.80184e+07
1.80184e+07
1.80184e+07
1.80184e+07
1.80184e+07
1.80184e+07
1.80184e+07
1.80184e+07
1.80184e+07
1.80184e+07
1.80184e+07
1.80184e+07
1.80184e+07
1.80184e+07
1.80184e+07
1.80184e+07
1.80184e+07
1.80184e+07
1.80184e+07
1.80184e+07
1.80184e+07
1.80184e+07
1.80184e+07
1.80184e+07
1.80184e+07
1.80184e+07
1.80184e+07
1.80184e+07
1.80184e+07
1.80184e+07
1.80184e+07
1.80184e+07
1.80184e+07
1.80184e+07
1.80184e+07
1.80184e+07
1.80184e+07
1.80184e+07
1.80184e+07
1.80184e+07
1.80184e+07
1.80184e+07
1.80184e+07
1.80184e+07
1.80184e+07
1.80184e+07
1.80184e+07
1.80184e+07
1.80184e+07
1.80184e+07
1.80184e+07
1.80184e+07
1.80184e+07
1.80184e+07
1.80184e+07
1.80184e+07
1.80184e+07
1.80184e+07
1.80184e+07
1.80184e+07
1.80184e+07
1.80184e+07
1.80185e+07
1.80185e+07
1.80185e+07
1.80185e+07
1.80185e+07
1.80185e+07
1.80185e+07
1.80186e+07
1.80186e+07
1.80186e+07
1.80186e+07
1.80187e+07
1.80187e+07
1.80187e+07
1.80188e+07
1.80188e+07
1.80188e+07
1.80189e+07
1.80189e+07
1.8019e+07
1.8019e+07
1.80191e+07
1.80192e+07
1.80192e+07
1.80193e+07
1.80194e+07
1.80195e+07
1.80196e+07
1.80196e+07
1.80197e+07
1.80198e+07
1.802e+07
1.80201e+07
1.80202e+07
1.80203e+07
1.80205e+07
1.80206e+07
1.80208e+07
1.80209e+07
1.80211e+07
1.80213e+07
1.80215e+07
1.80217e+07
1.80219e+07
1.80221e+07
1.80224e+07
1.80226e+07
1.80229e+07
1.80231e+07
1.80234e+07
1.80237e+07
1.8024e+07
1.80243e+07
1.80247e+07
1.8025e+07
1.80254e+07
1.80258e+07
1.80262e+07
1.80266e+07
1.8027e+07
1.80274e+07
1.80279e+07
1.80284e+07
1.80289e+07
1.80294e+07
1.80299e+07
1.80305e+07
1.8031e+07
1.80316e+07
1.80322e+07
1.80329e+07
1.80335e+07
1.80342e+07
1.80349e+07
1.80356e+07
1.80363e+07
1.80371e+07
1.80379e+07
1.80387e+07
1.80395e+07
1.80403e+07
1.80412e+07
1.80421e+07
1.8043e+07
1.80439e+07
1.80449e+07
1.80459e+07
1.80469e+07
1.80479e+07
1.8049e+07
1.80501e+07
1.80512e+07
1.80523e+07
1.80535e+07
1.80547e+07
1.80559e+07
1.80571e+07
1.80584e+07
1.80597e+07
1.8061e+07
1.80624e+07
1.80637e+07
1.80651e+07
1.80666e+07
1.8068e+07
1.80695e+07
1.8071e+07
1.80726e+07
1.80741e+07
1.80757e+07
1.80773e+07
1.8079e+07
1.80807e+07
1.80824e+07
1.80841e+07
1.80859e+07
1.80877e+07
1.80895e+07
1.80914e+07
1.80932e+07
1.80952e+07
1.80972e+07
1.80996e+07
1.81029e+07
1.80184e+07
1.80184e+07
1.80184e+07
1.80184e+07
1.80184e+07
1.80184e+07
1.80184e+07
1.80184e+07
1.80184e+07
1.80184e+07
1.80184e+07
1.80184e+07
1.80184e+07
1.80184e+07
1.80184e+07
1.80184e+07
1.80184e+07
1.80184e+07
1.80184e+07
1.80184e+07
1.80184e+07
1.80184e+07
1.80184e+07
1.80184e+07
1.80184e+07
1.80184e+07
1.80184e+07
1.80184e+07
1.80184e+07
1.80184e+07
1.80184e+07
1.80184e+07
1.80184e+07
1.80184e+07
1.80184e+07
1.80184e+07
1.80184e+07
1.80184e+07
1.80184e+07
1.80184e+07
1.80184e+07
1.80184e+07
1.80184e+07
1.80184e+07
1.80184e+07
1.80184e+07
1.80184e+07
1.80184e+07
1.80184e+07
1.80184e+07
1.80184e+07
1.80184e+07
1.80184e+07
1.80184e+07
1.80184e+07
1.80184e+07
1.80184e+07
1.80184e+07
1.80184e+07
1.80184e+07
1.80184e+07
1.80184e+07
1.80184e+07
1.80184e+07
1.80184e+07
1.80184e+07
1.80184e+07
1.80184e+07
1.80184e+07
1.80184e+07
1.80184e+07
1.80184e+07
1.80184e+07
1.80184e+07
1.80184e+07
1.80184e+07
1.80185e+07
1.80185e+07
1.80185e+07
1.80185e+07
1.80185e+07
1.80185e+07
1.80185e+07
1.80186e+07
1.80186e+07
1.80186e+07
1.80186e+07
1.80187e+07
1.80187e+07
1.80187e+07
1.80188e+07
1.80188e+07
1.80188e+07
1.80189e+07
1.80189e+07
1.8019e+07
1.8019e+07
1.80191e+07
1.80192e+07
1.80192e+07
1.80193e+07
1.80194e+07
1.80195e+07
1.80196e+07
1.80196e+07
1.80197e+07
1.80198e+07
1.802e+07
1.80201e+07
1.80202e+07
1.80203e+07
1.80205e+07
1.80206e+07
1.80208e+07
1.80209e+07
1.80211e+07
1.80213e+07
1.80215e+07
1.80217e+07
1.80219e+07
1.80221e+07
1.80224e+07
1.80226e+07
1.80229e+07
1.80231e+07
1.80234e+07
1.80237e+07
1.8024e+07
1.80243e+07
1.80247e+07
1.8025e+07
1.80254e+07
1.80258e+07
1.80262e+07
1.80266e+07
1.8027e+07
1.80274e+07
1.80279e+07
1.80284e+07
1.80289e+07
1.80294e+07
1.80299e+07
1.80305e+07
1.8031e+07
1.80316e+07
1.80322e+07
1.80329e+07
1.80335e+07
1.80342e+07
1.80349e+07
1.80356e+07
1.80363e+07
1.80371e+07
1.80379e+07
1.80387e+07
1.80395e+07
1.80403e+07
1.80412e+07
1.80421e+07
1.8043e+07
1.80439e+07
1.80449e+07
1.80459e+07
1.80469e+07
1.80479e+07
1.8049e+07
1.80501e+07
1.80512e+07
1.80523e+07
1.80535e+07
1.80547e+07
1.80559e+07
1.80571e+07
1.80584e+07
1.80597e+07
1.8061e+07
1.80624e+07
1.80637e+07
1.80651e+07
1.80666e+07
1.8068e+07
1.80695e+07
1.8071e+07
1.80726e+07
1.80741e+07
1.80757e+07
1.80773e+07
1.8079e+07
1.80807e+07
1.80824e+07
1.80841e+07
1.80859e+07
1.80877e+07
1.80895e+07
1.80914e+07
1.80932e+07
1.80952e+07
1.80972e+07
1.80996e+07
1.81028e+07
1.80184e+07
1.80184e+07
1.80184e+07
1.80184e+07
1.80184e+07
1.80184e+07
1.80184e+07
1.80184e+07
1.80184e+07
1.80184e+07
1.80184e+07
1.80184e+07
1.80184e+07
1.80184e+07
1.80184e+07
1.80184e+07
1.80184e+07
1.80184e+07
1.80184e+07
1.80184e+07
1.80184e+07
1.80184e+07
1.80184e+07
1.80184e+07
1.80184e+07
1.80184e+07
1.80184e+07
1.80184e+07
1.80184e+07
1.80184e+07
1.80184e+07
1.80184e+07
1.80184e+07
1.80184e+07
1.80184e+07
1.80184e+07
1.80184e+07
1.80184e+07
1.80184e+07
1.80184e+07
1.80184e+07
1.80184e+07
1.80184e+07
1.80184e+07
1.80184e+07
1.80184e+07
1.80184e+07
1.80184e+07
1.80184e+07
1.80184e+07
1.80184e+07
1.80184e+07
1.80184e+07
1.80184e+07
1.80184e+07
1.80184e+07
1.80184e+07
1.80184e+07
1.80184e+07
1.80184e+07
1.80184e+07
1.80184e+07
1.80184e+07
1.80184e+07
1.80184e+07
1.80184e+07
1.80184e+07
1.80184e+07
1.80184e+07
1.80184e+07
1.80184e+07
1.80184e+07
1.80184e+07
1.80184e+07
1.80184e+07
1.80184e+07
1.80185e+07
1.80185e+07
1.80185e+07
1.80185e+07
1.80185e+07
1.80185e+07
1.80185e+07
1.80186e+07
1.80186e+07
1.80186e+07
1.80186e+07
1.80187e+07
1.80187e+07
1.80187e+07
1.80188e+07
1.80188e+07
1.80188e+07
1.80189e+07
1.80189e+07
1.8019e+07
1.8019e+07
1.80191e+07
1.80192e+07
1.80192e+07
1.80193e+07
1.80194e+07
1.80195e+07
1.80196e+07
1.80196e+07
1.80197e+07
1.80198e+07
1.802e+07
1.80201e+07
1.80202e+07
1.80203e+07
1.80205e+07
1.80206e+07
1.80208e+07
1.80209e+07
1.80211e+07
1.80213e+07
1.80215e+07
1.80217e+07
1.80219e+07
1.80221e+07
1.80224e+07
1.80226e+07
1.80229e+07
1.80231e+07
1.80234e+07
1.80237e+07
1.8024e+07
1.80243e+07
1.80247e+07
1.8025e+07
1.80254e+07
1.80258e+07
1.80262e+07
1.80266e+07
1.8027e+07
1.80274e+07
1.80279e+07
1.80284e+07
1.80289e+07
1.80294e+07
1.80299e+07
1.80305e+07
1.8031e+07
1.80316e+07
1.80322e+07
1.80329e+07
1.80335e+07
1.80342e+07
1.80349e+07
1.80356e+07
1.80363e+07
1.80371e+07
1.80379e+07
1.80387e+07
1.80395e+07
1.80403e+07
1.80412e+07
1.80421e+07
1.8043e+07
1.80439e+07
1.80449e+07
1.80459e+07
1.80469e+07
1.80479e+07
1.8049e+07
1.80501e+07
1.80512e+07
1.80523e+07
1.80535e+07
1.80547e+07
1.80559e+07
1.80571e+07
1.80584e+07
1.80597e+07
1.8061e+07
1.80624e+07
1.80637e+07
1.80651e+07
1.80666e+07
1.8068e+07
1.80695e+07
1.8071e+07
1.80726e+07
1.80741e+07
1.80757e+07
1.80773e+07
1.8079e+07
1.80807e+07
1.80824e+07
1.80841e+07
1.80859e+07
1.80877e+07
1.80895e+07
1.80914e+07
1.80932e+07
1.80952e+07
1.80972e+07
1.80996e+07
1.81026e+07
1.80184e+07
1.80184e+07
1.80184e+07
1.80184e+07
1.80184e+07
1.80184e+07
1.80184e+07
1.80184e+07
1.80184e+07
1.80184e+07
1.80184e+07
1.80184e+07
1.80184e+07
1.80184e+07
1.80184e+07
1.80184e+07
1.80184e+07
1.80184e+07
1.80184e+07
1.80184e+07
1.80184e+07
1.80184e+07
1.80184e+07
1.80184e+07
1.80184e+07
1.80184e+07
1.80184e+07
1.80184e+07
1.80184e+07
1.80184e+07
1.80184e+07
1.80184e+07
1.80184e+07
1.80184e+07
1.80184e+07
1.80184e+07
1.80184e+07
1.80184e+07
1.80184e+07
1.80184e+07
1.80184e+07
1.80184e+07
1.80184e+07
1.80184e+07
1.80184e+07
1.80184e+07
1.80184e+07
1.80184e+07
1.80184e+07
1.80184e+07
1.80184e+07
1.80184e+07
1.80184e+07
1.80184e+07
1.80184e+07
1.80184e+07
1.80184e+07
1.80184e+07
1.80184e+07
1.80184e+07
1.80184e+07
1.80184e+07
1.80184e+07
1.80184e+07
1.80184e+07
1.80184e+07
1.80184e+07
1.80184e+07
1.80184e+07
1.80184e+07
1.80184e+07
1.80184e+07
1.80184e+07
1.80184e+07
1.80184e+07
1.80184e+07
1.80185e+07
1.80185e+07
1.80185e+07
1.80185e+07
1.80185e+07
1.80185e+07
1.80185e+07
1.80186e+07
1.80186e+07
1.80186e+07
1.80186e+07
1.80187e+07
1.80187e+07
1.80187e+07
1.80188e+07
1.80188e+07
1.80188e+07
1.80189e+07
1.80189e+07
1.8019e+07
1.8019e+07
1.80191e+07
1.80192e+07
1.80192e+07
1.80193e+07
1.80194e+07
1.80195e+07
1.80196e+07
1.80196e+07
1.80197e+07
1.80198e+07
1.802e+07
1.80201e+07
1.80202e+07
1.80203e+07
1.80205e+07
1.80206e+07
1.80208e+07
1.80209e+07
1.80211e+07
1.80213e+07
1.80215e+07
1.80217e+07
1.80219e+07
1.80221e+07
1.80224e+07
1.80226e+07
1.80229e+07
1.80231e+07
1.80234e+07
1.80237e+07
1.8024e+07
1.80243e+07
1.80247e+07
1.8025e+07
1.80254e+07
1.80258e+07
1.80262e+07
1.80266e+07
1.8027e+07
1.80274e+07
1.80279e+07
1.80284e+07
1.80289e+07
1.80294e+07
1.80299e+07
1.80305e+07
1.8031e+07
1.80316e+07
1.80322e+07
1.80329e+07
1.80335e+07
1.80342e+07
1.80349e+07
1.80356e+07
1.80363e+07
1.80371e+07
1.80379e+07
1.80387e+07
1.80395e+07
1.80403e+07
1.80412e+07
1.80421e+07
1.8043e+07
1.80439e+07
1.80449e+07
1.80459e+07
1.80469e+07
1.80479e+07
1.8049e+07
1.80501e+07
1.80512e+07
1.80523e+07
1.80535e+07
1.80547e+07
1.80559e+07
1.80571e+07
1.80584e+07
1.80597e+07
1.8061e+07
1.80624e+07
1.80637e+07
1.80651e+07
1.80666e+07
1.8068e+07
1.80695e+07
1.8071e+07
1.80726e+07
1.80741e+07
1.80757e+07
1.80773e+07
1.8079e+07
1.80807e+07
1.80824e+07
1.80841e+07
1.80859e+07
1.80877e+07
1.80895e+07
1.80914e+07
1.80932e+07
1.80952e+07
1.80971e+07
1.80993e+07
1.81017e+07
1.80184e+07
1.80184e+07
1.80184e+07
1.80184e+07
1.80184e+07
1.80184e+07
1.80184e+07
1.80184e+07
1.80184e+07
1.80184e+07
1.80184e+07
1.80184e+07
1.80184e+07
1.80184e+07
1.80184e+07
1.80184e+07
1.80184e+07
1.80184e+07
1.80184e+07
1.80184e+07
1.80184e+07
1.80184e+07
1.80184e+07
1.80184e+07
1.80184e+07
1.80184e+07
1.80184e+07
1.80184e+07
1.80184e+07
1.80184e+07
1.80184e+07
1.80184e+07
1.80184e+07
1.80184e+07
1.80184e+07
1.80184e+07
1.80184e+07
1.80184e+07
1.80184e+07
1.80184e+07
1.80184e+07
1.80184e+07
1.80184e+07
1.80184e+07
1.80184e+07
1.80184e+07
1.80184e+07
1.80184e+07
1.80184e+07
1.80184e+07
1.80184e+07
1.80184e+07
1.80184e+07
1.80184e+07
1.80184e+07
1.80184e+07
1.80184e+07
1.80184e+07
1.80184e+07
1.80184e+07
1.80184e+07
1.80184e+07
1.80184e+07
1.80184e+07
1.80184e+07
1.80184e+07
1.80184e+07
1.80184e+07
1.80184e+07
1.80184e+07
1.80184e+07
1.80184e+07
1.80184e+07
1.80184e+07
1.80184e+07
1.80184e+07
1.80185e+07
1.80185e+07
1.80185e+07
1.80185e+07
1.80185e+07
1.80185e+07
1.80185e+07
1.80186e+07
1.80186e+07
1.80186e+07
1.80186e+07
1.80187e+07
1.80187e+07
1.80187e+07
1.80188e+07
1.80188e+07
1.80188e+07
1.80189e+07
1.80189e+07
1.8019e+07
1.8019e+07
1.80191e+07
1.80192e+07
1.80192e+07
1.80193e+07
1.80194e+07
1.80195e+07
1.80196e+07
1.80196e+07
1.80197e+07
1.80198e+07
1.802e+07
1.80201e+07
1.80202e+07
1.80203e+07
1.80205e+07
1.80206e+07
1.80208e+07
1.80209e+07
1.80211e+07
1.80213e+07
1.80215e+07
1.80217e+07
1.80219e+07
1.80221e+07
1.80224e+07
1.80226e+07
1.80229e+07
1.80231e+07
1.80234e+07
1.80237e+07
1.8024e+07
1.80243e+07
1.80247e+07
1.8025e+07
1.80254e+07
1.80258e+07
1.80262e+07
1.80266e+07
1.8027e+07
1.80274e+07
1.80279e+07
1.80284e+07
1.80289e+07
1.80294e+07
1.80299e+07
1.80305e+07
1.8031e+07
1.80316e+07
1.80322e+07
1.80329e+07
1.80335e+07
1.80342e+07
1.80349e+07
1.80356e+07
1.80363e+07
1.80371e+07
1.80379e+07
1.80387e+07
1.80395e+07
1.80403e+07
1.80412e+07
1.80421e+07
1.8043e+07
1.80439e+07
1.80449e+07
1.80459e+07
1.80469e+07
1.80479e+07
1.8049e+07
1.80501e+07
1.80512e+07
1.80523e+07
1.80535e+07
1.80547e+07
1.80559e+07
1.80571e+07
1.80584e+07
1.80597e+07
1.8061e+07
1.80624e+07
1.80637e+07
1.80651e+07
1.80666e+07
1.8068e+07
1.80695e+07
1.8071e+07
1.80726e+07
1.80741e+07
1.80757e+07
1.80773e+07
1.8079e+07
1.80807e+07
1.80824e+07
1.80841e+07
1.80859e+07
1.80877e+07
1.80895e+07
1.80914e+07
1.80932e+07
1.80951e+07
1.80971e+07
1.80989e+07
1.81004e+07
1.80184e+07
1.80184e+07
1.80184e+07
1.80184e+07
1.80184e+07
1.80184e+07
1.80184e+07
1.80184e+07
1.80184e+07
1.80184e+07
1.80184e+07
1.80184e+07
1.80184e+07
1.80184e+07
1.80184e+07
1.80184e+07
1.80184e+07
1.80184e+07
1.80184e+07
1.80184e+07
1.80184e+07
1.80184e+07
1.80184e+07
1.80184e+07
1.80184e+07
1.80184e+07
1.80184e+07
1.80184e+07
1.80184e+07
1.80184e+07
1.80184e+07
1.80184e+07
1.80184e+07
1.80184e+07
1.80184e+07
1.80184e+07
1.80184e+07
1.80184e+07
1.80184e+07
1.80184e+07
1.80184e+07
1.80184e+07
1.80184e+07
1.80184e+07
1.80184e+07
1.80184e+07
1.80184e+07
1.80184e+07
1.80184e+07
1.80184e+07
1.80184e+07
1.80184e+07
1.80184e+07
1.80184e+07
1.80184e+07
1.80184e+07
1.80184e+07
1.80184e+07
1.80184e+07
1.80184e+07
1.80184e+07
1.80184e+07
1.80184e+07
1.80184e+07
1.80184e+07
1.80184e+07
1.80184e+07
1.80184e+07
1.80184e+07
1.80184e+07
1.80184e+07
1.80184e+07
1.80184e+07
1.80184e+07
1.80184e+07
1.80184e+07
1.80185e+07
1.80185e+07
1.80185e+07
1.80185e+07
1.80185e+07
1.80185e+07
1.80185e+07
1.80186e+07
1.80186e+07
1.80186e+07
1.80186e+07
1.80187e+07
1.80187e+07
1.80187e+07
1.80188e+07
1.80188e+07
1.80188e+07
1.80189e+07
1.80189e+07
1.8019e+07
1.8019e+07
1.80191e+07
1.80192e+07
1.80192e+07
1.80193e+07
1.80194e+07
1.80195e+07
1.80196e+07
1.80196e+07
1.80197e+07
1.80198e+07
1.802e+07
1.80201e+07
1.80202e+07
1.80203e+07
1.80205e+07
1.80206e+07
1.80208e+07
1.80209e+07
1.80211e+07
1.80213e+07
1.80215e+07
1.80217e+07
1.80219e+07
1.80221e+07
1.80224e+07
1.80226e+07
1.80229e+07
1.80231e+07
1.80234e+07
1.80237e+07
1.8024e+07
1.80243e+07
1.80247e+07
1.8025e+07
1.80254e+07
1.80258e+07
1.80262e+07
1.80266e+07
1.8027e+07
1.80274e+07
1.80279e+07
1.80284e+07
1.80289e+07
1.80294e+07
1.80299e+07
1.80305e+07
1.8031e+07
1.80316e+07
1.80322e+07
1.80329e+07
1.80335e+07
1.80342e+07
1.80349e+07
1.80356e+07
1.80363e+07
1.80371e+07
1.80379e+07
1.80387e+07
1.80395e+07
1.80403e+07
1.80412e+07
1.80421e+07
1.8043e+07
1.80439e+07
1.80449e+07
1.80459e+07
1.80469e+07
1.80479e+07
1.8049e+07
1.80501e+07
1.80512e+07
1.80523e+07
1.80535e+07
1.80547e+07
1.80559e+07
1.80571e+07
1.80584e+07
1.80597e+07
1.8061e+07
1.80624e+07
1.80637e+07
1.80651e+07
1.80666e+07
1.8068e+07
1.80695e+07
1.8071e+07
1.80726e+07
1.80741e+07
1.80757e+07
1.80773e+07
1.8079e+07
1.80807e+07
1.80824e+07
1.80841e+07
1.80859e+07
1.80877e+07
1.80895e+07
1.80914e+07
1.80932e+07
1.80951e+07
1.8097e+07
1.80985e+07
1.80993e+07
1.80184e+07
1.80184e+07
1.80184e+07
1.80184e+07
1.80184e+07
1.80184e+07
1.80184e+07
1.80184e+07
1.80184e+07
1.80184e+07
1.80184e+07
1.80184e+07
1.80184e+07
1.80184e+07
1.80184e+07
1.80184e+07
1.80184e+07
1.80184e+07
1.80184e+07
1.80184e+07
1.80184e+07
1.80184e+07
1.80184e+07
1.80184e+07
1.80184e+07
1.80184e+07
1.80184e+07
1.80184e+07
1.80184e+07
1.80184e+07
1.80184e+07
1.80184e+07
1.80184e+07
1.80184e+07
1.80184e+07
1.80184e+07
1.80184e+07
1.80184e+07
1.80184e+07
1.80184e+07
1.80184e+07
1.80184e+07
1.80184e+07
1.80184e+07
1.80184e+07
1.80184e+07
1.80184e+07
1.80184e+07
1.80184e+07
1.80184e+07
1.80184e+07
1.80184e+07
1.80184e+07
1.80184e+07
1.80184e+07
1.80184e+07
1.80184e+07
1.80184e+07
1.80184e+07
1.80184e+07
1.80184e+07
1.80184e+07
1.80184e+07
1.80184e+07
1.80184e+07
1.80184e+07
1.80184e+07
1.80184e+07
1.80184e+07
1.80184e+07
1.80184e+07
1.80184e+07
1.80184e+07
1.80184e+07
1.80184e+07
1.80184e+07
1.80185e+07
1.80185e+07
1.80185e+07
1.80185e+07
1.80185e+07
1.80185e+07
1.80185e+07
1.80186e+07
1.80186e+07
1.80186e+07
1.80186e+07
1.80187e+07
1.80187e+07
1.80187e+07
1.80188e+07
1.80188e+07
1.80188e+07
1.80189e+07
1.80189e+07
1.8019e+07
1.8019e+07
1.80191e+07
1.80192e+07
1.80192e+07
1.80193e+07
1.80194e+07
1.80195e+07
1.80196e+07
1.80196e+07
1.80197e+07
1.80198e+07
1.802e+07
1.80201e+07
1.80202e+07
1.80203e+07
1.80205e+07
1.80206e+07
1.80208e+07
1.80209e+07
1.80211e+07
1.80213e+07
1.80215e+07
1.80217e+07
1.80219e+07
1.80221e+07
1.80224e+07
1.80226e+07
1.80229e+07
1.80231e+07
1.80234e+07
1.80237e+07
1.8024e+07
1.80243e+07
1.80247e+07
1.8025e+07
1.80254e+07
1.80258e+07
1.80262e+07
1.80266e+07
1.8027e+07
1.80274e+07
1.80279e+07
1.80284e+07
1.80289e+07
1.80294e+07
1.80299e+07
1.80305e+07
1.8031e+07
1.80316e+07
1.80322e+07
1.80329e+07
1.80335e+07
1.80342e+07
1.80349e+07
1.80356e+07
1.80363e+07
1.80371e+07
1.80379e+07
1.80387e+07
1.80395e+07
1.80403e+07
1.80412e+07
1.80421e+07
1.8043e+07
1.80439e+07
1.80449e+07
1.80459e+07
1.80469e+07
1.80479e+07
1.8049e+07
1.80501e+07
1.80512e+07
1.80523e+07
1.80535e+07
1.80547e+07
1.80559e+07
1.80571e+07
1.80584e+07
1.80597e+07
1.8061e+07
1.80624e+07
1.80637e+07
1.80651e+07
1.80666e+07
1.8068e+07
1.80695e+07
1.8071e+07
1.80726e+07
1.80741e+07
1.80757e+07
1.80773e+07
1.8079e+07
1.80807e+07
1.80824e+07
1.80841e+07
1.80859e+07
1.80877e+07
1.80895e+07
1.80914e+07
1.80932e+07
1.80951e+07
1.8097e+07
1.80984e+07
1.80991e+07
1.80184e+07
1.80184e+07
1.80184e+07
1.80184e+07
1.80184e+07
1.80184e+07
1.80184e+07
1.80184e+07
1.80184e+07
1.80184e+07
1.80184e+07
1.80184e+07
1.80184e+07
1.80184e+07
1.80184e+07
1.80184e+07
1.80184e+07
1.80184e+07
1.80184e+07
1.80184e+07
1.80184e+07
1.80184e+07
1.80184e+07
1.80184e+07
1.80184e+07
1.80184e+07
1.80184e+07
1.80184e+07
1.80184e+07
1.80184e+07
1.80184e+07
1.80184e+07
1.80184e+07
1.80184e+07
1.80184e+07
1.80184e+07
1.80184e+07
1.80184e+07
1.80184e+07
1.80184e+07
1.80184e+07
1.80184e+07
1.80184e+07
1.80184e+07
1.80184e+07
1.80184e+07
1.80184e+07
1.80184e+07
1.80184e+07
1.80184e+07
1.80184e+07
1.80184e+07
1.80184e+07
1.80184e+07
1.80184e+07
1.80184e+07
1.80184e+07
1.80184e+07
1.80184e+07
1.80184e+07
1.80184e+07
1.80184e+07
1.80184e+07
1.80184e+07
1.80184e+07
1.80184e+07
1.80184e+07
1.80184e+07
1.80184e+07
1.80184e+07
1.80184e+07
1.80184e+07
1.80184e+07
1.80184e+07
1.80184e+07
1.80184e+07
1.80185e+07
1.80185e+07
1.80185e+07
1.80185e+07
1.80185e+07
1.80185e+07
1.80185e+07
1.80186e+07
1.80186e+07
1.80186e+07
1.80186e+07
1.80187e+07
1.80187e+07
1.80187e+07
1.80188e+07
1.80188e+07
1.80188e+07
1.80189e+07
1.80189e+07
1.8019e+07
1.8019e+07
1.80191e+07
1.80192e+07
1.80192e+07
1.80193e+07
1.80194e+07
1.80195e+07
1.80196e+07
1.80196e+07
1.80197e+07
1.80198e+07
1.802e+07
1.80201e+07
1.80202e+07
1.80203e+07
1.80205e+07
1.80206e+07
1.80208e+07
1.80209e+07
1.80211e+07
1.80213e+07
1.80215e+07
1.80217e+07
1.80219e+07
1.80221e+07
1.80224e+07
1.80226e+07
1.80229e+07
1.80231e+07
1.80234e+07
1.80237e+07
1.8024e+07
1.80243e+07
1.80247e+07
1.8025e+07
1.80254e+07
1.80258e+07
1.80262e+07
1.80266e+07
1.8027e+07
1.80274e+07
1.80279e+07
1.80284e+07
1.80289e+07
1.80294e+07
1.80299e+07
1.80305e+07
1.8031e+07
1.80316e+07
1.80322e+07
1.80329e+07
1.80335e+07
1.80342e+07
1.80349e+07
1.80356e+07
1.80363e+07
1.80371e+07
1.80379e+07
1.80387e+07
1.80395e+07
1.80403e+07
1.80412e+07
1.80421e+07
1.8043e+07
1.80439e+07
1.80449e+07
1.80459e+07
1.80469e+07
1.80479e+07
1.8049e+07
1.80501e+07
1.80512e+07
1.80523e+07
1.80535e+07
1.80547e+07
1.80559e+07
1.80571e+07
1.80584e+07
1.80597e+07
1.8061e+07
1.80624e+07
1.80637e+07
1.80651e+07
1.80666e+07
1.8068e+07
1.80695e+07
1.8071e+07
1.80726e+07
1.80741e+07
1.80757e+07
1.80773e+07
1.8079e+07
1.80807e+07
1.80824e+07
1.80841e+07
1.80859e+07
1.80877e+07
1.80895e+07
1.80914e+07
1.80932e+07
1.80951e+07
1.8097e+07
1.80984e+07
1.80991e+07
1.80184e+07
1.80184e+07
1.80184e+07
1.80184e+07
1.80184e+07
1.80184e+07
1.80184e+07
1.80184e+07
1.80184e+07
1.80184e+07
1.80184e+07
1.80184e+07
1.80184e+07
1.80184e+07
1.80184e+07
1.80184e+07
1.80184e+07
1.80184e+07
1.80184e+07
1.80184e+07
1.80184e+07
1.80184e+07
1.80184e+07
1.80184e+07
1.80184e+07
1.80184e+07
1.80184e+07
1.80184e+07
1.80184e+07
1.80184e+07
1.80184e+07
1.80184e+07
1.80184e+07
1.80184e+07
1.80184e+07
1.80184e+07
1.80184e+07
1.80184e+07
1.80184e+07
1.80184e+07
1.80184e+07
1.80184e+07
1.80184e+07
1.80184e+07
1.80184e+07
1.80184e+07
1.80184e+07
1.80184e+07
1.80184e+07
1.80184e+07
1.80184e+07
1.80184e+07
1.80184e+07
1.80184e+07
1.80184e+07
1.80184e+07
1.80184e+07
1.80184e+07
1.80184e+07
1.80184e+07
1.80184e+07
1.80184e+07
1.80184e+07
1.80184e+07
1.80184e+07
1.80184e+07
1.80184e+07
1.80184e+07
1.80184e+07
1.80184e+07
1.80184e+07
1.80184e+07
1.80184e+07
1.80184e+07
1.80184e+07
1.80184e+07
1.80185e+07
1.80185e+07
1.80185e+07
1.80185e+07
1.80185e+07
1.80185e+07
1.80185e+07
1.80186e+07
1.80186e+07
1.80186e+07
1.80186e+07
1.80187e+07
1.80187e+07
1.80187e+07
1.80188e+07
1.80188e+07
1.80188e+07
1.80189e+07
1.80189e+07
1.8019e+07
1.8019e+07
1.80191e+07
1.80192e+07
1.80192e+07
1.80193e+07
1.80194e+07
1.80195e+07
1.80196e+07
1.80196e+07
1.80197e+07
1.80198e+07
1.802e+07
1.80201e+07
1.80202e+07
1.80203e+07
1.80205e+07
1.80206e+07
1.80208e+07
1.80209e+07
1.80211e+07
1.80213e+07
1.80215e+07
1.80217e+07
1.80219e+07
1.80221e+07
1.80224e+07
1.80226e+07
1.80229e+07
1.80231e+07
1.80234e+07
1.80237e+07
1.8024e+07
1.80243e+07
1.80247e+07
1.8025e+07
1.80254e+07
1.80258e+07
1.80262e+07
1.80266e+07
1.8027e+07
1.80274e+07
1.80279e+07
1.80284e+07
1.80289e+07
1.80294e+07
1.80299e+07
1.80305e+07
1.8031e+07
1.80316e+07
1.80322e+07
1.80329e+07
1.80335e+07
1.80342e+07
1.80349e+07
1.80356e+07
1.80363e+07
1.80371e+07
1.80379e+07
1.80387e+07
1.80395e+07
1.80403e+07
1.80412e+07
1.80421e+07
1.8043e+07
1.80439e+07
1.80449e+07
1.80459e+07
1.80469e+07
1.80479e+07
1.8049e+07
1.80501e+07
1.80512e+07
1.80523e+07
1.80535e+07
1.80547e+07
1.80559e+07
1.80571e+07
1.80584e+07
1.80597e+07
1.8061e+07
1.80624e+07
1.80637e+07
1.80651e+07
1.80666e+07
1.8068e+07
1.80695e+07
1.8071e+07
1.80726e+07
1.80741e+07
1.80757e+07
1.80773e+07
1.8079e+07
1.80807e+07
1.80824e+07
1.80841e+07
1.80859e+07
1.80877e+07
1.80895e+07
1.80914e+07
1.80932e+07
1.80951e+07
1.8097e+07
1.80984e+07
1.80991e+07
1.81134e+07
1.81179e+07
1.81198e+07
1.81205e+07
1.81209e+07
1.81213e+07
1.81216e+07
1.81219e+07
1.81222e+07
1.81224e+07
1.81226e+07
1.81228e+07
1.81229e+07
1.8123e+07
1.81231e+07
1.8123e+07
1.81227e+07
1.81222e+07
1.81214e+07
1.81197e+07
1.81127e+07
1.81167e+07
1.81186e+07
1.81192e+07
1.81196e+07
1.812e+07
1.81204e+07
1.81207e+07
1.81209e+07
1.81212e+07
1.81214e+07
1.81216e+07
1.81217e+07
1.81218e+07
1.81219e+07
1.81218e+07
1.81215e+07
1.8121e+07
1.81201e+07
1.81186e+07
1.81122e+07
1.81162e+07
1.81183e+07
1.81191e+07
1.81195e+07
1.81199e+07
1.81203e+07
1.81206e+07
1.81208e+07
1.8121e+07
1.81213e+07
1.81214e+07
1.81216e+07
1.81216e+07
1.81217e+07
1.81215e+07
1.81212e+07
1.81206e+07
1.81197e+07
1.8118e+07
1.81098e+07
1.81122e+07
1.81131e+07
1.81135e+07
1.81138e+07
1.81141e+07
1.81144e+07
1.81147e+07
1.81149e+07
1.81152e+07
1.81154e+07
1.81156e+07
1.81158e+07
1.81159e+07
1.8116e+07
1.81159e+07
1.81157e+07
1.81153e+07
1.81145e+07
1.81133e+07
1.81063e+07
1.81081e+07
1.81096e+07
1.81108e+07
1.81117e+07
1.81125e+07
1.8113e+07
1.81134e+07
1.81137e+07
1.81139e+07
1.81141e+07
1.81143e+07
1.81142e+07
1.81141e+07
1.81139e+07
1.81136e+07
1.81132e+07
1.81127e+07
1.81121e+07
1.81113e+07
1.80996e+07
1.80989e+07
1.8098e+07
1.80972e+07
1.80964e+07
1.80959e+07
1.80957e+07
1.80956e+07
1.80956e+07
1.80958e+07
1.8096e+07
1.80963e+07
1.80968e+07
1.80973e+07
1.80978e+07
1.80983e+07
1.80988e+07
1.80995e+07
1.81001e+07
1.8101e+07
1.80925e+07
1.8091e+07
1.80908e+07
1.80914e+07
1.80919e+07
1.80923e+07
1.80927e+07
1.8093e+07
1.80933e+07
1.80935e+07
1.80937e+07
1.80939e+07
1.8094e+07
1.80941e+07
1.80943e+07
1.80946e+07
1.80951e+07
1.80958e+07
1.8097e+07
1.80986e+07
1.80834e+07
1.8078e+07
1.80736e+07
1.80707e+07
1.80689e+07
1.80676e+07
1.80668e+07
1.80664e+07
1.80663e+07
1.80665e+07
1.80669e+07
1.80676e+07
1.80685e+07
1.80698e+07
1.80713e+07
1.80732e+07
1.80755e+07
1.80783e+07
1.80817e+07
1.80858e+07
1.80806e+07
1.80749e+07
1.80711e+07
1.80688e+07
1.80674e+07
1.80665e+07
1.80658e+07
1.80655e+07
1.80654e+07
1.80656e+07
1.80661e+07
1.80667e+07
1.80676e+07
1.80687e+07
1.80701e+07
1.80719e+07
1.80741e+07
1.80767e+07
1.80801e+07
1.80842e+07
1.80781e+07
1.80696e+07
1.80645e+07
1.80616e+07
1.80598e+07
1.80585e+07
1.80577e+07
1.80573e+07
1.80572e+07
1.80575e+07
1.80579e+07
1.80587e+07
1.80597e+07
1.8061e+07
1.80627e+07
1.80648e+07
1.80672e+07
1.80703e+07
1.80742e+07
1.8079e+07
1.81124e+07
1.81097e+07
1.81102e+07
1.81116e+07
1.81132e+07
1.8115e+07
1.81168e+07
1.81186e+07
1.81204e+07
1.81223e+07
1.81241e+07
1.8126e+07
1.81279e+07
1.81299e+07
1.81318e+07
1.81338e+07
1.81358e+07
1.81378e+07
1.81398e+07
1.81419e+07
1.81439e+07
1.8146e+07
1.81481e+07
1.81503e+07
1.81524e+07
1.81546e+07
1.81568e+07
1.8159e+07
1.81612e+07
1.81634e+07
1.81657e+07
1.8168e+07
1.81703e+07
1.81726e+07
1.81749e+07
1.81773e+07
1.81797e+07
1.81821e+07
1.81845e+07
1.81869e+07
1.81894e+07
1.81919e+07
1.81944e+07
1.81969e+07
1.81995e+07
1.8202e+07
1.82046e+07
1.82072e+07
1.82098e+07
1.82125e+07
1.82151e+07
1.82178e+07
1.82205e+07
1.82232e+07
1.8226e+07
1.82287e+07
1.82315e+07
1.82343e+07
1.82371e+07
1.82399e+07
1.82428e+07
1.82457e+07
1.82486e+07
1.82515e+07
1.82544e+07
1.82574e+07
1.82604e+07
1.82634e+07
1.82664e+07
1.82694e+07
1.82725e+07
1.82756e+07
1.82786e+07
1.82818e+07
1.82849e+07
1.82881e+07
1.82912e+07
1.82944e+07
1.82976e+07
1.83009e+07
1.83041e+07
1.83074e+07
1.83107e+07
1.8314e+07
1.83173e+07
1.83207e+07
1.8324e+07
1.83274e+07
1.83308e+07
1.83342e+07
1.83376e+07
1.83411e+07
1.83445e+07
1.8348e+07
1.83515e+07
1.8355e+07
1.83585e+07
1.8362e+07
1.83656e+07
1.83691e+07
1.83727e+07
1.83763e+07
1.83799e+07
1.83836e+07
1.83872e+07
1.83909e+07
1.83946e+07
1.83983e+07
1.8402e+07
1.84057e+07
1.84094e+07
1.84132e+07
1.8417e+07
1.84207e+07
1.84245e+07
1.84284e+07
1.84322e+07
1.8436e+07
1.84399e+07
1.84438e+07
1.84476e+07
1.84515e+07
1.84555e+07
1.84594e+07
1.84633e+07
1.84673e+07
1.84712e+07
1.84752e+07
1.84792e+07
1.84832e+07
1.84872e+07
1.84913e+07
1.84953e+07
1.84994e+07
1.85034e+07
1.85075e+07
1.85116e+07
1.85157e+07
1.85198e+07
1.8524e+07
1.85281e+07
1.85322e+07
1.85364e+07
1.85406e+07
1.85447e+07
1.85489e+07
1.85531e+07
1.85573e+07
1.85615e+07
1.85658e+07
1.857e+07
1.85742e+07
1.85785e+07
1.85827e+07
1.8587e+07
1.85913e+07
1.85956e+07
1.85999e+07
1.86042e+07
1.86085e+07
1.86128e+07
1.86171e+07
1.86214e+07
1.86258e+07
1.86301e+07
1.86344e+07
1.86388e+07
1.86431e+07
1.86475e+07
1.86519e+07
1.86562e+07
1.86606e+07
1.8665e+07
1.86694e+07
1.86738e+07
1.86782e+07
1.86825e+07
1.86869e+07
1.86913e+07
1.86958e+07
1.87002e+07
1.87046e+07
1.8709e+07
1.87134e+07
1.87178e+07
1.87222e+07
1.87266e+07
1.87311e+07
1.87355e+07
1.87399e+07
1.87443e+07
1.87488e+07
1.87532e+07
1.87576e+07
1.8762e+07
1.87664e+07
1.87708e+07
1.87752e+07
1.87795e+07
1.87836e+07
1.81121e+07
1.81096e+07
1.81101e+07
1.81116e+07
1.81132e+07
1.8115e+07
1.81168e+07
1.81186e+07
1.81204e+07
1.81223e+07
1.81241e+07
1.8126e+07
1.81279e+07
1.81299e+07
1.81318e+07
1.81338e+07
1.81358e+07
1.81378e+07
1.81398e+07
1.81419e+07
1.81439e+07
1.8146e+07
1.81481e+07
1.81503e+07
1.81524e+07
1.81546e+07
1.81568e+07
1.8159e+07
1.81612e+07
1.81634e+07
1.81657e+07
1.8168e+07
1.81703e+07
1.81726e+07
1.81749e+07
1.81773e+07
1.81797e+07
1.81821e+07
1.81845e+07
1.81869e+07
1.81894e+07
1.81919e+07
1.81944e+07
1.81969e+07