/*--------------------------------*- C++ -*----------------------------------*\
| =========                 |                                                 |
| \\      /  F ield         | OpenFOAM: The Open Source CFD Toolbox           |
|  \\    /   O peration     | Version:  3.0.x                                 |
|   \\  /    A nd           | Web:      www.OpenFOAM.org                      |
|    \\/     M anipulation  |                                                 |
\*---------------------------------------------------------------------------*/
FoamFile
{
    version     2.0;
    format      ascii;
    class       volScalarField;
    location    "0.44";
    object      rho;
}
// * * * * * * * * * * * * * * * * * * * * * * * * * * * * * * * * * * * * * //

dimensions      [1 -3 0 0 0 0 0];

internalField   nonuniform List<scalar> 
13800
(
50.5097
50.5097
50.5097
50.5097
50.5097
50.5097
50.5097
50.5097
50.5097
50.5097
50.5097
50.5097
50.5097
50.5097
50.5097
50.5097
50.5097
50.5097
50.5097
50.5097
50.5097
50.5097
50.5097
50.5097
50.5097
50.5097
50.5097
50.5097
50.5097
50.5097
50.5097
50.5097
50.5097
50.5097
50.5097
50.5097
50.5097
50.5098
50.5098
50.5098
50.5098
50.5098
50.5098
50.5098
50.5098
50.5098
50.5098
50.5098
50.5098
50.5098
50.5099
50.5099
50.51
50.51
50.51
50.51
50.51
50.51
50.51
50.5101
50.5101
50.5101
50.5101
50.5101
50.5102
50.5102
50.5102
50.5103
50.5103
50.5103
50.5103
50.5104
50.5104
50.5104
50.5104
50.5104
50.5105
50.5105
50.5105
50.5106
50.5106
50.5106
50.5107
50.5107
50.5108
50.5108
50.5109
50.511
50.511
50.5111
50.5112
50.5113
50.5114
50.5115
50.5116
50.5117
50.5118
50.512
50.5121
50.5123
50.5125
50.5126
50.5128
50.513
50.5132
50.5135
50.5137
50.514
50.5143
50.5145
50.5149
50.5152
50.5155
50.5159
50.5163
50.5167
50.5171
50.5175
50.518
50.5185
50.519
50.5196
50.5202
50.5208
50.5214
50.522
50.5227
50.5235
50.5242
50.525
50.5258
50.5267
50.5275
50.5285
50.5294
50.5304
50.5315
50.5325
50.5337
50.5348
50.536
50.5372
50.5385
50.5399
50.5412
50.5427
50.5441
50.5456
50.5472
50.5488
50.5505
50.5522
50.554
50.5558
50.5576
50.5596
50.5615
50.5636
50.5656
50.5678
50.57
50.5722
50.5745
50.5769
50.5793
50.5818
50.5843
50.5869
50.5895
50.5923
50.595
50.5979
50.6008
50.6037
50.6067
50.6098
50.613
50.6162
50.6194
50.6228
50.6262
50.6296
50.6332
50.6368
50.6404
50.6441
50.6479
50.6518
50.6557
50.6597
50.6638
50.6679
50.6721
50.6763
50.6807
50.6849
50.6897
50.694
50.7
50.7014
50.5101
50.5101
50.5101
50.5101
50.5101
50.5101
50.5101
50.5101
50.5101
50.5101
50.5101
50.5101
50.5101
50.5101
50.5101
50.5101
50.5101
50.5101
50.5101
50.5101
50.5101
50.5101
50.5101
50.5101
50.5101
50.5101
50.5101
50.5101
50.5101
50.5101
50.5101
50.5101
50.5101
50.5101
50.5101
50.5101
50.5101
50.5101
50.5102
50.5102
50.5102
50.5102
50.5102
50.5102
50.5101
50.5101
50.5101
50.5101
50.5102
50.5102
50.5102
50.5103
50.5103
50.5103
50.5104
50.5104
50.5104
50.5104
50.5104
50.5104
50.5104
50.5104
50.5104
50.5104
50.5105
50.5105
50.5105
50.5106
50.5106
50.5106
50.5106
50.5107
50.5107
50.5107
50.5107
50.5107
50.5108
50.5108
50.5108
50.5109
50.5109
50.5109
50.511
50.511
50.5111
50.5111
50.5112
50.5113
50.5113
50.5114
50.5115
50.5116
50.5117
50.5118
50.5119
50.512
50.5121
50.5123
50.5124
50.5126
50.5128
50.5129
50.5131
50.5133
50.5135
50.5138
50.514
50.5143
50.5145
50.5148
50.5151
50.5155
50.5158
50.5162
50.5166
50.517
50.5174
50.5178
50.5183
50.5188
50.5193
50.5199
50.5205
50.5211
50.5217
50.5223
50.523
50.5237
50.5245
50.5253
50.5261
50.5269
50.5278
50.5288
50.5297
50.5307
50.5318
50.5328
50.5339
50.5351
50.5363
50.5375
50.5388
50.5402
50.5415
50.543
50.5444
50.5459
50.5475
50.5491
50.5508
50.5525
50.5543
50.5561
50.5579
50.5599
50.5618
50.5639
50.5659
50.5681
50.5703
50.5725
50.5748
50.5772
50.5796
50.5821
50.5846
50.5872
50.5898
50.5926
50.5953
50.5982
50.6011
50.604
50.607
50.6101
50.6133
50.6165
50.6197
50.6231
50.6265
50.6299
50.6335
50.6371
50.6407
50.6444
50.6482
50.6521
50.656
50.66
50.664
50.6681
50.6724
50.6766
50.681
50.6852
50.69
50.6942
50.7003
50.7007
50.5101
50.5101
50.5101
50.5101
50.5101
50.5101
50.5101
50.5101
50.5101
50.5101
50.5101
50.5101
50.5101
50.5101
50.5101
50.5101
50.5101
50.5101
50.5101
50.5101
50.5101
50.5101
50.5101
50.5101
50.5101
50.5101
50.5101
50.5101
50.5101
50.5101
50.5101
50.5101
50.5101
50.5101
50.5101
50.5101
50.5101
50.5101
50.5102
50.5102
50.5102
50.5102
50.5102
50.5102
50.5101
50.5101
50.5101
50.5101
50.5102
50.5102
50.5102
50.5103
50.5103
50.5103
50.5104
50.5104
50.5104
50.5104
50.5104
50.5104
50.5104
50.5104
50.5104
50.5104
50.5105
50.5105
50.5105
50.5106
50.5106
50.5106
50.5106
50.5107
50.5107
50.5107
50.5107
50.5107
50.5108
50.5108
50.5108
50.5109
50.5109
50.5109
50.511
50.511
50.5111
50.5111
50.5112
50.5113
50.5113
50.5114
50.5115
50.5116
50.5117
50.5118
50.5119
50.512
50.5121
50.5123
50.5124
50.5126
50.5128
50.5129
50.5131
50.5133
50.5135
50.5138
50.514
50.5143
50.5145
50.5148
50.5151
50.5155
50.5158
50.5162
50.5166
50.517
50.5174
50.5178
50.5183
50.5188
50.5193
50.5199
50.5205
50.5211
50.5217
50.5223
50.523
50.5237
50.5245
50.5253
50.5261
50.527
50.5278
50.5288
50.5297
50.5307
50.5318
50.5328
50.5339
50.5351
50.5363
50.5375
50.5388
50.5402
50.5415
50.543
50.5444
50.5459
50.5475
50.5491
50.5508
50.5525
50.5543
50.5561
50.5579
50.5599
50.5618
50.5639
50.5659
50.5681
50.5703
50.5725
50.5748
50.5772
50.5796
50.5821
50.5846
50.5872
50.5898
50.5926
50.5953
50.5982
50.6011
50.604
50.607
50.6101
50.6133
50.6165
50.6197
50.6231
50.6265
50.6299
50.6335
50.6371
50.6407
50.6444
50.6482
50.6521
50.656
50.66
50.664
50.6681
50.6724
50.6766
50.681
50.6852
50.69
50.6942
50.7003
50.7008
50.5101
50.5101
50.5101
50.5101
50.5101
50.5101
50.5101
50.5101
50.5101
50.5101
50.5101
50.5101
50.5101
50.5101
50.5101
50.5101
50.5101
50.5101
50.5101
50.5101
50.5101
50.5101
50.5101
50.5101
50.5101
50.5101
50.5101
50.5101
50.5101
50.5101
50.5101
50.5101
50.5101
50.51
50.5101
50.5101
50.5101
50.5101
50.5102
50.5102
50.5102
50.5102
50.5102
50.5102
50.5101
50.5101
50.5101
50.5101
50.5102
50.5102
50.5102
50.5103
50.5103
50.5103
50.5104
50.5104
50.5104
50.5104
50.5104
50.5104
50.5104
50.5104
50.5104
50.5104
50.5105
50.5105
50.5105
50.5106
50.5106
50.5106
50.5106
50.5107
50.5107
50.5107
50.5107
50.5107
50.5108
50.5108
50.5108
50.5109
50.5109
50.5109
50.511
50.511
50.5111
50.5111
50.5112
50.5113
50.5113
50.5114
50.5115
50.5116
50.5117
50.5118
50.5119
50.512
50.5121
50.5123
50.5124
50.5126
50.5128
50.5129
50.5131
50.5133
50.5135
50.5138
50.514
50.5143
50.5145
50.5148
50.5151
50.5155
50.5158
50.5162
50.5166
50.517
50.5174
50.5178
50.5183
50.5188
50.5193
50.5199
50.5205
50.5211
50.5217
50.5223
50.523
50.5237
50.5245
50.5253
50.5261
50.527
50.5278
50.5288
50.5297
50.5307
50.5318
50.5328
50.5339
50.5351
50.5363
50.5375
50.5388
50.5402
50.5415
50.543
50.5444
50.5459
50.5475
50.5491
50.5508
50.5525
50.5543
50.5561
50.5579
50.5599
50.5618
50.5639
50.5659
50.5681
50.5703
50.5725
50.5748
50.5772
50.5796
50.5821
50.5846
50.5872
50.5898
50.5926
50.5953
50.5982
50.6011
50.604
50.607
50.6101
50.6133
50.6165
50.6197
50.6231
50.6265
50.6299
50.6335
50.6371
50.6407
50.6444
50.6482
50.6521
50.656
50.66
50.664
50.6681
50.6724
50.6766
50.681
50.6852
50.69
50.6943
50.7001
50.702
50.5101
50.5101
50.5101
50.5101
50.5101
50.5101
50.5101
50.5101
50.5101
50.5101
50.5101
50.5101
50.5101
50.5101
50.5101
50.5101
50.5101
50.5101
50.5101
50.5101
50.5101
50.5101
50.5101
50.5101
50.5101
50.5101
50.5101
50.5101
50.5101
50.5101
50.5101
50.5101
50.51
50.51
50.5101
50.5101
50.5101
50.5101
50.5102
50.5102
50.5102
50.5102
50.5102
50.5101
50.5101
50.5101
50.5101
50.5101
50.5101
50.5102
50.5102
50.5103
50.5103
50.5103
50.5104
50.5104
50.5104
50.5104
50.5104
50.5104
50.5104
50.5104
50.5104
50.5104
50.5105
50.5105
50.5105
50.5106
50.5106
50.5106
50.5106
50.5107
50.5107
50.5107
50.5107
50.5107
50.5108
50.5108
50.5108
50.5109
50.5109
50.5109
50.511
50.511
50.5111
50.5111
50.5112
50.5113
50.5113
50.5114
50.5115
50.5116
50.5117
50.5118
50.5119
50.512
50.5121
50.5123
50.5124
50.5126
50.5128
50.5129
50.5131
50.5133
50.5135
50.5138
50.514
50.5143
50.5145
50.5148
50.5151
50.5155
50.5158
50.5162
50.5166
50.517
50.5174
50.5178
50.5183
50.5188
50.5193
50.5199
50.5205
50.5211
50.5217
50.5223
50.523
50.5237
50.5245
50.5253
50.5261
50.527
50.5278
50.5288
50.5297
50.5307
50.5318
50.5328
50.5339
50.5351
50.5363
50.5375
50.5388
50.5402
50.5415
50.543
50.5444
50.5459
50.5475
50.5491
50.5508
50.5525
50.5543
50.5561
50.5579
50.5599
50.5618
50.5639
50.5659
50.5681
50.5703
50.5725
50.5748
50.5772
50.5796
50.5821
50.5846
50.5872
50.5898
50.5926
50.5953
50.5982
50.6011
50.604
50.607
50.6101
50.6133
50.6165
50.6197
50.6231
50.6265
50.6299
50.6335
50.6371
50.6407
50.6444
50.6482
50.6521
50.656
50.66
50.6641
50.6681
50.6724
50.6766
50.681
50.6852
50.69
50.6942
50.6995
50.7017
50.5101
50.5101
50.5101
50.5101
50.5101
50.5101
50.5101
50.5101
50.5101
50.5101
50.5101
50.5101
50.5101
50.5101
50.5101
50.5101
50.5101
50.5101
50.5101
50.5101
50.5101
50.5101
50.5101
50.5101
50.5101
50.5101
50.5101
50.5101
50.5101
50.5101
50.5101
50.5101
50.51
50.51
50.5101
50.5101
50.5101
50.5101
50.5102
50.5102
50.5102
50.5102
50.5102
50.5101
50.5101
50.5101
50.5101
50.5101
50.5101
50.5102
50.5102
50.5103
50.5103
50.5103
50.5104
50.5104
50.5104
50.5104
50.5104
50.5104
50.5104
50.5104
50.5104
50.5104
50.5105
50.5105
50.5105
50.5106
50.5106
50.5106
50.5106
50.5107
50.5107
50.5107
50.5107
50.5107
50.5108
50.5108
50.5108
50.5109
50.5109
50.5109
50.511
50.511
50.5111
50.5111
50.5112
50.5113
50.5113
50.5114
50.5115
50.5116
50.5117
50.5118
50.5119
50.512
50.5121
50.5123
50.5124
50.5126
50.5128
50.5129
50.5131
50.5133
50.5135
50.5138
50.514
50.5143
50.5145
50.5148
50.5151
50.5155
50.5158
50.5162
50.5166
50.517
50.5174
50.5178
50.5183
50.5188
50.5193
50.5199
50.5205
50.5211
50.5217
50.5223
50.523
50.5237
50.5245
50.5253
50.5261
50.527
50.5278
50.5288
50.5297
50.5307
50.5318
50.5328
50.5339
50.5351
50.5363
50.5375
50.5388
50.5402
50.5415
50.543
50.5444
50.5459
50.5475
50.5491
50.5508
50.5525
50.5543
50.5561
50.5579
50.5599
50.5618
50.5639
50.5659
50.5681
50.5703
50.5725
50.5748
50.5772
50.5796
50.5821
50.5846
50.5872
50.5898
50.5926
50.5953
50.5982
50.6011
50.604
50.607
50.6101
50.6133
50.6165
50.6197
50.6231
50.6265
50.6299
50.6335
50.6371
50.6407
50.6444
50.6482
50.6521
50.656
50.66
50.664
50.6682
50.6723
50.6766
50.681
50.6853
50.6898
50.6944
50.6984
50.7025
50.5101
50.5101
50.5101
50.5101
50.5101
50.5101
50.5101
50.5101
50.5101
50.5101
50.5101
50.5101
50.5101
50.5101
50.5101
50.5101
50.5101
50.5101
50.5101
50.5101
50.5101
50.5101
50.5101
50.5101
50.5101
50.5101
50.5101
50.5101
50.5101
50.5101
50.5101
50.5101
50.5101
50.51
50.5101
50.5101
50.5101
50.5101
50.5102
50.5102
50.5102
50.5102
50.5102
50.5102
50.5101
50.5101
50.5101
50.5101
50.5102
50.5102
50.5102
50.5103
50.5103
50.5103
50.5104
50.5104
50.5104
50.5104
50.5104
50.5104
50.5104
50.5104
50.5104
50.5104
50.5105
50.5105
50.5105
50.5106
50.5106
50.5106
50.5106
50.5107
50.5107
50.5107
50.5107
50.5107
50.5108
50.5108
50.5108
50.5109
50.5109
50.5109
50.511
50.511
50.5111
50.5111
50.5112
50.5113
50.5113
50.5114
50.5115
50.5116
50.5117
50.5118
50.5119
50.512
50.5121
50.5123
50.5124
50.5126
50.5128
50.5129
50.5131
50.5133
50.5135
50.5138
50.514
50.5143
50.5145
50.5148
50.5151
50.5155
50.5158
50.5162
50.5166
50.517
50.5174
50.5178
50.5183
50.5188
50.5193
50.5199
50.5205
50.5211
50.5217
50.5223
50.523
50.5237
50.5245
50.5253
50.5261
50.527
50.5278
50.5288
50.5297
50.5307
50.5318
50.5328
50.5339
50.5351
50.5363
50.5375
50.5388
50.5402
50.5415
50.543
50.5444
50.5459
50.5475
50.5491
50.5508
50.5525
50.5543
50.5561
50.5579
50.5599
50.5618
50.5639
50.5659
50.5681
50.5703
50.5725
50.5748
50.5772
50.5796
50.5821
50.5846
50.5872
50.5898
50.5926
50.5953
50.5982
50.6011
50.604
50.607
50.6101
50.6133
50.6165
50.6197
50.6231
50.6265
50.6299
50.6335
50.6371
50.6407
50.6444
50.6482
50.6521
50.656
50.66
50.664
50.6682
50.6723
50.6767
50.6808
50.6855
50.6896
50.6943
50.6973
50.7061
50.5101
50.5101
50.5101
50.5101
50.5101
50.5101
50.5101
50.5101
50.5101
50.5101
50.5101
50.5101
50.5101
50.5101
50.5101
50.5101
50.5101
50.5101
50.5101
50.5101
50.5101
50.5101
50.5101
50.5101
50.5101
50.5101
50.5101
50.5101
50.5101
50.5101
50.5101
50.5101
50.5101
50.5101
50.5101
50.5101
50.5101
50.5101
50.5102
50.5102
50.5102
50.5102
50.5102
50.5102
50.5101
50.5101
50.5101
50.5101
50.5102
50.5102
50.5102
50.5103
50.5103
50.5103
50.5104
50.5104
50.5104
50.5104
50.5104
50.5104
50.5104
50.5104
50.5104
50.5104
50.5105
50.5105
50.5105
50.5106
50.5106
50.5106
50.5106
50.5107
50.5107
50.5107
50.5107
50.5107
50.5108
50.5108
50.5108
50.5109
50.5109
50.5109
50.511
50.511
50.5111
50.5111
50.5112
50.5113
50.5113
50.5114
50.5115
50.5116
50.5117
50.5118
50.5119
50.512
50.5121
50.5123
50.5124
50.5126
50.5128
50.5129
50.5131
50.5133
50.5135
50.5138
50.514
50.5143
50.5145
50.5148
50.5151
50.5155
50.5158
50.5162
50.5166
50.517
50.5174
50.5178
50.5183
50.5188
50.5193
50.5199
50.5205
50.5211
50.5217
50.5223
50.523
50.5237
50.5245
50.5253
50.5261
50.527
50.5278
50.5288
50.5297
50.5307
50.5318
50.5328
50.5339
50.5351
50.5363
50.5375
50.5388
50.5402
50.5415
50.543
50.5444
50.5459
50.5475
50.5491
50.5508
50.5525
50.5543
50.5561
50.5579
50.5599
50.5618
50.5639
50.5659
50.5681
50.5703
50.5725
50.5748
50.5772
50.5796
50.5821
50.5846
50.5872
50.5898
50.5926
50.5953
50.5982
50.6011
50.604
50.607
50.6101
50.6133
50.6165
50.6197
50.6231
50.6265
50.6299
50.6335
50.6371
50.6407
50.6444
50.6482
50.6521
50.656
50.66
50.664
50.6682
50.6723
50.6767
50.6808
50.6855
50.6895
50.6943
50.6964
50.7149
50.5101
50.5101
50.5101
50.5101
50.5101
50.5101
50.5101
50.5101
50.5101
50.5101
50.5101
50.5101
50.5101
50.5101
50.5101
50.5101
50.5101
50.5101
50.5101
50.5101
50.5101
50.5101
50.5101
50.5101
50.5101
50.5101
50.5101
50.5101
50.5101
50.5101
50.5101
50.5101
50.5101
50.5101
50.5101
50.5101
50.5101
50.5101
50.5102
50.5102
50.5102
50.5102
50.5102
50.5102
50.5101
50.5101
50.5101
50.5101
50.5102
50.5102
50.5102
50.5103
50.5103
50.5103
50.5104
50.5104
50.5104
50.5104
50.5104
50.5104
50.5104
50.5104
50.5104
50.5104
50.5105
50.5105
50.5105
50.5106
50.5106
50.5106
50.5106
50.5107
50.5107
50.5107
50.5107
50.5107
50.5108
50.5108
50.5108
50.5109
50.5109
50.5109
50.511
50.511
50.5111
50.5111
50.5112
50.5113
50.5113
50.5114
50.5115
50.5116
50.5117
50.5118
50.5119
50.512
50.5121
50.5123
50.5124
50.5126
50.5128
50.5129
50.5131
50.5133
50.5135
50.5138
50.514
50.5143
50.5145
50.5148
50.5151
50.5155
50.5158
50.5162
50.5166
50.517
50.5174
50.5178
50.5183
50.5188
50.5193
50.5199
50.5205
50.5211
50.5217
50.5223
50.523
50.5237
50.5245
50.5253
50.5261
50.5269
50.5278
50.5288
50.5297
50.5307
50.5318
50.5328
50.5339
50.5351
50.5363
50.5375
50.5388
50.5402
50.5415
50.543
50.5444
50.5459
50.5475
50.5491
50.5508
50.5525
50.5543
50.5561
50.5579
50.5599
50.5618
50.5639
50.5659
50.5681
50.5703
50.5725
50.5748
50.5772
50.5796
50.5821
50.5846
50.5872
50.5898
50.5926
50.5953
50.5982
50.6011
50.604
50.607
50.6101
50.6133
50.6165
50.6197
50.6231
50.6265
50.6299
50.6335
50.6371
50.6407
50.6444
50.6482
50.6521
50.656
50.66
50.664
50.6682
50.6723
50.6767
50.6808
50.6855
50.6895
50.6943
50.6958
50.7194
50.5097
50.5097
50.5097
50.5097
50.5097
50.5097
50.5097
50.5097
50.5097
50.5097
50.5097
50.5097
50.5097
50.5097
50.5097
50.5097
50.5097
50.5097
50.5097
50.5097
50.5097
50.5097
50.5097
50.5097
50.5097
50.5097
50.5097
50.5097
50.5097
50.5097
50.5097
50.5097
50.5097
50.5097
50.5097
50.5097
50.5097
50.5098
50.5098
50.5098
50.5098
50.5098
50.5098
50.5098
50.5098
50.5098
50.5098
50.5098
50.5098
50.5098
50.5099
50.5099
50.51
50.51
50.51
50.51
50.51
50.51
50.51
50.5101
50.5101
50.5101
50.5101
50.5101
50.5102
50.5102
50.5102
50.5103
50.5103
50.5103
50.5103
50.5104
50.5104
50.5104
50.5104
50.5104
50.5105
50.5105
50.5105
50.5106
50.5106
50.5106
50.5107
50.5107
50.5108
50.5108
50.5109
50.511
50.511
50.5111
50.5112
50.5113
50.5114
50.5115
50.5116
50.5117
50.5118
50.512
50.5121
50.5123
50.5125
50.5126
50.5128
50.513
50.5132
50.5135
50.5137
50.514
50.5143
50.5145
50.5149
50.5152
50.5155
50.5159
50.5163
50.5167
50.5171
50.5175
50.518
50.5185
50.519
50.5196
50.5202
50.5208
50.5214
50.522
50.5227
50.5235
50.5242
50.525
50.5258
50.5267
50.5275
50.5285
50.5294
50.5304
50.5315
50.5325
50.5337
50.5348
50.536
50.5372
50.5385
50.5399
50.5412
50.5427
50.5441
50.5456
50.5472
50.5488
50.5505
50.5522
50.554
50.5558
50.5576
50.5596
50.5615
50.5636
50.5656
50.5678
50.57
50.5722
50.5745
50.5769
50.5793
50.5818
50.5843
50.5869
50.5895
50.5923
50.595
50.5979
50.6008
50.6037
50.6067
50.6098
50.613
50.6162
50.6194
50.6228
50.6262
50.6296
50.6332
50.6368
50.6404
50.6441
50.6479
50.6518
50.6557
50.6597
50.6637
50.6679
50.672
50.6764
50.6805
50.6852
50.6892
50.694
50.6951
50.7237
50.7312
50.7427
50.7471
50.7485
50.7493
50.7501
50.7507
50.7512
50.7517
50.7522
50.7526
50.753
50.7533
50.7535
50.7535
50.7533
50.7527
50.7516
50.7497
50.7463
50.7298
50.74
50.7445
50.7461
50.7469
50.7478
50.7486
50.7492
50.7498
50.7503
50.7508
50.7512
50.7516
50.7518
50.7518
50.7516
50.751
50.7499
50.7479
50.7445
50.7283
50.7387
50.7437
50.7456
50.7465
50.7474
50.7481
50.7487
50.7492
50.7497
50.7502
50.7506
50.7509
50.7511
50.7511
50.7508
50.7502
50.7489
50.7468
50.743
50.7231
50.7291
50.7316
50.7323
50.7328
50.7335
50.7341
50.7346
50.735
50.7354
50.7358
50.7361
50.7363
50.7364
50.7362
50.7358
50.7353
50.7341
50.7324
50.7295
50.7148
50.7193
50.7228
50.7257
50.728
50.7297
50.7309
50.7318
50.7327
50.7335
50.7341
50.7346
50.7346
50.7347
50.7345
50.734
50.733
50.7319
50.7303
50.7285
50.6998
50.698
50.6958
50.6936
50.6915
50.69
50.6892
50.6887
50.6885
50.6885
50.6886
50.6887
50.6894
50.69
50.6905
50.6911
50.6918
50.693
50.6941
50.6962
50.6841
50.6799
50.6791
50.6804
50.6818
50.6829
50.6839
50.685
50.6859
50.687
50.6878
50.6887
50.6895
50.6903
50.6911
50.6922
50.6934
50.6953
50.698
50.7017
50.6641
50.6502
50.6392
50.6315
50.6267
50.6232
50.6208
50.6193
50.6186
50.6186
50.619
50.6201
50.6217
50.6241
50.6272
50.6315
50.6359
50.6426
50.6501
50.6598
50.66
50.6451
50.6358
50.6303
50.6269
50.6246
50.6231
50.6224
50.6224
50.6228
50.6238
50.6254
50.6273
50.63
50.6334
50.6376
50.6425
50.6484
50.6558
50.6649
50.6548
50.6331
50.6209
50.6137
50.609
50.6053
50.6025
50.6011
50.6
50.5999
50.6
50.601
50.6024
50.6048
50.608
50.6122
50.6172
50.6236
50.6318
50.6425
50.7295
50.7222
50.7232
50.7266
50.7306
50.7346
50.7388
50.743
50.7473
50.7516
50.756
50.7604
50.7648
50.7693
50.7739
50.7785
50.7831
50.7878
50.7926
50.7973
50.8022
50.807
50.812
50.8169
50.8219
50.827
50.832
50.8372
50.8424
50.8476
50.8529
50.8582
50.8636
50.869
50.8744
50.8799
50.8855
50.8911
50.8967
50.9024
50.9081
50.9139
50.9198
50.9257
50.9316
50.9376
50.9436
50.9496
50.9557
50.9619
50.968
50.9743
50.9806
50.9869
50.9933
50.9997
51.0062
51.0127
51.0193
51.0259
51.0325
51.0392
51.046
51.0528
51.0596
51.0665
51.0735
51.0805
51.0875
51.0946
51.1017
51.1089
51.1162
51.1235
51.131
51.1385
51.1461
51.1536
51.1611
51.1687
51.1765
51.1846
51.1926
51.1998
51.2045
51.2006
51.171
51.1235
51.079
51.0429
51.0182
51.0058
51.0048
51.0119
51.0239
51.0512
51.1167
51.1899
51.2501
51.2963
51.3296
51.3524
51.3678
51.3791
51.3888
51.3957
51.3993
51.404
51.4099
51.4166
51.4241
51.432
51.4402
51.4487
51.4574
51.4661
51.4749
51.4838
51.4927
51.5017
51.5107
51.5198
51.5288
51.538
51.5471
51.5563
51.5655
51.5748
51.5841
51.5934
51.6027
51.6121
51.6215
51.6309
51.6404
51.6499
51.6594
51.6689
51.6785
51.688
51.6977
51.7073
51.7169
51.7266
51.7363
51.7461
51.7558
51.7656
51.7754
51.7852
51.795
51.8049
51.8148
51.8247
51.8346
51.8445
51.8544
51.8644
51.8744
51.8844
51.8944
51.9044
51.9145
51.9245
51.9346
51.9447
51.9548
51.9649
51.975
51.9852
51.9953
52.0055
52.0156
52.0258
52.036
52.0462
52.0564
52.0666
52.0768
52.087
52.0972
52.1075
52.1177
52.128
52.1381
52.1486
52.1585
52.1692
52.179
52.1897
52.1995
52.2103
52.2199
52.2308
52.2404
52.2514
52.2609
52.2718
52.28
52.2955
50.7296
50.723
50.7241
50.7275
50.7315
50.7356
50.7398
50.744
50.7483
50.7526
50.757
50.7614
50.7658
50.7703
50.7749
50.7795
50.7841
50.7888
50.7936
50.7983
50.8032
50.808
50.813
50.8179
50.8229
50.828
50.8331
50.8382
50.8434
50.8486
50.8539
50.8592
50.8646
50.87
50.8755
50.881
50.8865
50.8921
50.8978
50.9034
50.9092
50.915
50.9208
50.9267
50.9326
50.9386
50.9446
50.9507
50.9568
50.9629
50.9691
50.9753
50.9816
50.988
50.9943
51.0008
51.0072
51.0138
51.0203
51.0269
51.0336
51.0403
51.0471
51.0539
51.0607
51.0676
51.0745
51.0815
51.0885
51.0956
51.1027
51.1099
51.1172
51.1245
51.1318
51.1392
51.1466
51.1541
51.1616
51.1692
51.177
51.1852
51.1937
51.2024
51.2112
51.22
51.2288
51.2376
51.2462
51.2536
51.2575
51.2569
51.256
51.2564
51.2589
51.264
51.2717
51.2812
51.2923
51.3079
51.325
51.3396
51.3518
51.3624
51.3725
51.3822
51.3907
51.3986
51.4066
51.4148
51.4231
51.4316
51.4401
51.4488
51.4575
51.4663
51.4752
51.4841
51.493
51.502
51.511
51.52
51.5291
51.5383
51.5474
51.5566
51.5658
51.5751
51.5844
51.5937
51.603
51.6124
51.6218
51.6312
51.6407
51.6501
51.6597
51.6692
51.6788
51.6883
51.6979
51.7076
51.7172
51.7269
51.7366
51.7464
51.7561
51.7659
51.7757
51.7855
51.7953
51.8052
51.8151
51.8249
51.8349
51.8448
51.8547
51.8647
51.8747
51.8847
51.8947
51.9047
51.9148
51.9248
51.9349
51.945
51.9551
51.9652
51.9753
51.9855
51.9956
52.0058
52.0159
52.0261
52.0363
52.0465
52.0567
52.0669
52.0771
52.0873
52.0975
52.1078
52.118
52.1283
52.1384
52.1489
52.1588
52.1694
52.1793
52.19
52.1998
52.2106
52.2202
52.2311
52.2407
52.2516
52.2612
52.2721
52.2804
52.2944
50.7297
50.7233
50.7242
50.7275
50.7314
50.7354
50.7396
50.7438
50.7481
50.7524
50.7568
50.7612
50.7657
50.7702
50.7747
50.7793
50.7839
50.7886
50.7934
50.7981
50.803
50.8079
50.8128
50.8177
50.8227
50.8278
50.8329
50.838
50.8432
50.8484
50.8537
50.859
50.8644
50.8698
50.8753
50.8808
50.8863
50.8919
50.8976
50.9033
50.909
50.9148
50.9206
50.9265
50.9324
50.9384
50.9444
50.9505
50.9566
50.9627
50.9689
50.9752
50.9814
50.9878
50.9942
51.0006
51.0071
51.0136
51.0202
51.0268
51.0334
51.0401
51.0469
51.0537
51.0605
51.0674
51.0743
51.0813
51.0883
51.0954
51.1025
51.1097
51.1169
51.1242
51.1316
51.139
51.1464
51.154
51.1614
51.1689
51.1763
51.1841
51.1923
51.2013
51.2108
51.222
51.2351
51.247
51.2575
51.2671
51.2765
51.2856
51.2938
51.2995
51.3014
51.3032
51.306
51.3102
51.3158
51.3227
51.3308
51.3397
51.349
51.3586
51.3682
51.3778
51.387
51.396
51.4049
51.4137
51.4224
51.4312
51.4399
51.4487
51.4575
51.4663
51.4751
51.484
51.493
51.502
51.511
51.52
51.5291
51.5383
51.5474
51.5566
51.5658
51.5751
51.5844
51.5937
51.603
51.6124
51.6218
51.6312
51.6407
51.6501
51.6597
51.6692
51.6788
51.6883
51.6979
51.7076
51.7172
51.7269
51.7366
51.7464
51.7561
51.7659
51.7757
51.7855
51.7953
51.8052
51.8151
51.8249
51.8349
51.8448
51.8547
51.8647
51.8747
51.8847
51.8947
51.9047
51.9148
51.9248
51.9349
51.945
51.9551
51.9652
51.9753
51.9855
51.9956
52.0058
52.0159
52.0261
52.0363
52.0465
52.0567
52.0669
52.0771
52.0873
52.0975
52.1078
52.118
52.1283
52.1384
52.1489
52.1588
52.1694
52.1793
52.19
52.1998
52.2106
52.2202
52.2311
52.2407
52.2516
52.2612
52.2721
52.2806
52.2931
50.721
50.7178
50.7203
50.7242
50.7285
50.7328
50.7371
50.7414
50.7457
50.75
50.7544
50.7588
50.7633
50.7678
50.7723
50.7769
50.7816
50.7862
50.791
50.7958
50.8006
50.8055
50.8104
50.8153
50.8204
50.8254
50.8305
50.8356
50.8408
50.846
50.8513
50.8566
50.862
50.8674
50.8729
50.8784
50.8839
50.8895
50.8952
50.9009
50.9066
50.9124
50.9182
50.9241
50.93
50.936
50.942
50.9481
50.9542
50.9603
50.9665
50.9728
50.979
50.9854
50.9918
50.9982
51.0047
51.0112
51.0178
51.0244
51.031
51.0377
51.0445
51.0513
51.0582
51.0651
51.072
51.079
51.086
51.0931
51.1003
51.1075
51.1148
51.1222
51.1296
51.137
51.1445
51.152
51.1595
51.1669
51.1745
51.1825
51.1911
51.2003
51.2103
51.2223
51.2344
51.2451
51.2549
51.2643
51.2735
51.2824
51.2902
51.2955
51.2997
51.3041
51.3092
51.3149
51.3214
51.3285
51.3362
51.3443
51.3527
51.3613
51.37
51.3787
51.3874
51.3961
51.4048
51.4135
51.4222
51.4309
51.4397
51.4485
51.4573
51.4661
51.475
51.484
51.4929
51.5019
51.5109
51.52
51.5291
51.5382
51.5474
51.5566
51.5658
51.5751
51.5844
51.5937
51.603
51.6124
51.6218
51.6312
51.6407
51.6501
51.6597
51.6692
51.6788
51.6883
51.6979
51.7076
51.7172
51.7269
51.7366
51.7464
51.7561
51.7659
51.7757
51.7855
51.7953
51.8052
51.8151
51.8249
51.8349
51.8448
51.8547
51.8647
51.8747
51.8847
51.8947
51.9047
51.9148
51.9248
51.9349
51.945
51.9551
51.9652
51.9753
51.9855
51.9956
52.0058
52.0159
52.0261
52.0363
52.0465
52.0567
52.0669
52.0771
52.0873
52.0975
52.1078
52.118
52.1283
52.1384
52.1488
52.1589
52.1693
52.1794
52.1899
52.1998
52.2106
52.2202
52.2311
52.2408
52.2516
52.2612
52.2721
52.2812
52.2918
50.7236
50.7247
50.727
50.7296
50.7327
50.7364
50.7403
50.7445
50.7487
50.753
50.7574
50.7618
50.7663
50.7708
50.7753
50.7799
50.7846
50.7892
50.794
50.7987
50.8036
50.8084
50.8134
50.8183
50.8233
50.8284
50.8335
50.8386
50.8438
50.849
50.8543
50.8596
50.865
50.8704
50.8759
50.8814
50.8869
50.8925
50.8982
50.9039
50.9096
50.9154
50.9212
50.9271
50.933
50.939
50.945
50.9511
50.9572
50.9633
50.9695
50.9758
50.982
50.9884
50.9947
51.0012
51.0076
51.0142
51.0207
51.0273
51.034
51.0407
51.0474
51.0542
51.061
51.0679
51.0749
51.0818
51.0888
51.0959
51.103
51.1101
51.1173
51.1246
51.1319
51.1392
51.1465
51.154
51.1615
51.169
51.1765
51.184
51.1916
51.1996
51.2081
51.2171
51.2267
51.2367
51.2463
51.2557
51.2649
51.2738
51.2822
51.2898
51.2967
51.3033
51.3099
51.3166
51.3236
51.3309
51.3385
51.3463
51.3543
51.3625
51.3708
51.3792
51.3877
51.3962
51.4048
51.4135
51.4221
51.4309
51.4396
51.4484
51.4572
51.4661
51.475
51.4839
51.4929
51.5019
51.5109
51.52
51.5291
51.5382
51.5474
51.5566
51.5658
51.5751
51.5844
51.5937
51.603
51.6124
51.6218
51.6312
51.6407
51.6501
51.6597
51.6692
51.6788
51.6883
51.6979
51.7076
51.7172
51.7269
51.7366
51.7464
51.7561
51.7659
51.7757
51.7855
51.7953
51.8052
51.8151
51.8249
51.8349
51.8448
51.8547
51.8647
51.8747
51.8847
51.8947
51.9047
51.9148
51.9248
51.9349
51.945
51.9551
51.9652
51.9753
51.9855
51.9956
52.0058
52.0159
52.0261
52.0363
52.0465
52.0567
52.0669
52.0771
52.0873
52.0975
52.1078
52.118
52.1282
52.1385
52.1487
52.159
52.1692
52.1795
52.1898
52.2
52.2103
52.2206
52.2306
52.2412
52.2512
52.2615
52.2719
52.2819
52.292
50.7006
50.7074
50.7131
50.7184
50.7233
50.7279
50.7323
50.7366
50.7409
50.7452
50.7496
50.754
50.7585
50.763
50.7676
50.7721
50.7768
50.7815
50.7862
50.791
50.7958
50.8007
50.8056
50.8105
50.8155
50.8206
50.8257
50.8308
50.836
50.8412
50.8465
50.8518
50.8572
50.8626
50.8681
50.8736
50.8791
50.8847
50.8904
50.8961
50.9018
50.9076
50.9134
50.9193
50.9253
50.9312
50.9373
50.9433
50.9494
50.9556
50.9618
50.9681
50.9744
50.9807
50.9871
50.9936
51.0001
51.0066
51.0132
51.0199
51.0266
51.0334
51.0402
51.0471
51.054
51.061
51.068
51.0752
51.0824
51.0896
51.0969
51.1042
51.1116
51.119
51.1264
51.1338
51.1412
51.1486
51.1562
51.1642
51.1727
51.1816
51.1909
51.2008
51.2106
51.2199
51.2291
51.238
51.2466
51.2553
51.2638
51.2718
51.2792
51.2863
51.2933
51.3002
51.3072
51.3145
51.3219
51.3296
51.3375
51.3455
51.3537
51.3619
51.3703
51.3788
51.3873
51.3959
51.4045
51.4132
51.4219
51.4306
51.4394
51.4482
51.4571
51.466
51.4749
51.4838
51.4928
51.5018
51.5109
51.52
51.5291
51.5382
51.5474
51.5566
51.5658
51.5751
51.5843
51.5937
51.603
51.6124
51.6218
51.6312
51.6407
51.6501
51.6597
51.6692
51.6788
51.6883
51.6979
51.7076
51.7172
51.7269
51.7366
51.7464
51.7561
51.7659
51.7757
51.7855
51.7953
51.8052
51.8151
51.8249
51.8349
51.8448
51.8547
51.8647
51.8747
51.8847
51.8947
51.9047
51.9148
51.9248
51.9349
51.945
51.9551
51.9652
51.9753
51.9855
51.9956
52.0058
52.0159
52.0261
52.0363
52.0465
52.0567
52.0669
52.0771
52.0873
52.0976
52.1077
52.1181
52.1282
52.1386
52.1486
52.1591
52.1691
52.1797
52.1896
52.2002
52.21
52.2208
52.2305
52.2413
52.251
52.2619
52.2715
52.2825
52.292
50.7141
50.7239
50.7285
50.7321
50.7358
50.7397
50.7438
50.7479
50.7522
50.7565
50.7609
50.7653
50.7698
50.7743
50.7788
50.7834
50.7881
50.7928
50.7975
50.8023
50.8071
50.812
50.8169
50.8218
50.8268
50.8319
50.837
50.8421
50.8473
50.8525
50.8578
50.8631
50.8685
50.8739
50.8794
50.8849
50.8904
50.896
50.9017
50.9074
50.9131
50.9189
50.9247
50.9306
50.9365
50.9425
50.9485
50.9545
50.9606
50.9668
50.973
50.9792
50.9855
50.9919
50.9982
51.0047
51.0111
51.0177
51.0242
51.0308
51.0375
51.0442
51.051
51.0578
51.0646
51.0715
51.0784
51.0854
51.0924
51.0995
51.1066
51.1137
51.1209
51.1282
51.1355
51.1428
51.1501
51.1574
51.1649
51.1724
51.18
51.1876
51.1951
51.2026
51.21
51.2173
51.2248
51.2326
51.2409
51.2498
51.2592
51.2686
51.278
51.2873
51.2964
51.3047
51.3118
51.3185
51.3252
51.3321
51.3393
51.3468
51.3546
51.3626
51.3707
51.379
51.3875
51.396
51.4045
51.4132
51.4219
51.4306
51.4394
51.4482
51.4571
51.466
51.4749
51.4838
51.4928
51.5018
51.5109
51.52
51.5291
51.5382
51.5474
51.5566
51.5658
51.5751
51.5843
51.5937
51.603
51.6124
51.6218
51.6312
51.6407
51.6501
51.6597
51.6692
51.6788
51.6883
51.6979
51.7076
51.7172
51.7269
51.7366
51.7464
51.7561
51.7659
51.7757
51.7855
51.7953
51.8052
51.8151
51.8249
51.8349
51.8448
51.8547
51.8647
51.8747
51.8847
51.8947
51.9047
51.9148
51.9248
51.9349
51.945
51.9551
51.9652
51.9753
51.9855
51.9956
52.0058
52.0159
52.0261
52.0363
52.0465
52.0567
52.0669
52.0771
52.0873
52.0976
52.1077
52.1181
52.1282
52.1386
52.1486
52.1591
52.1691
52.1797
52.1896
52.2002
52.21
52.2208
52.2305
52.2413
52.251
52.2619
52.2716
52.2826
52.2926
50.6924
50.7084
50.7154
50.7203
50.7246
50.7286
50.7328
50.737
50.7412
50.7455
50.7499
50.7543
50.7588
50.7633
50.7678
50.7724
50.7771
50.7818
50.7865
50.7913
50.7961
50.8009
50.8058
50.8108
50.8158
50.8209
50.826
50.8311
50.8363
50.8416
50.8468
50.8521
50.8575
50.8629
50.8684
50.8739
50.8794
50.885
50.8907
50.8964
50.9021
50.9079
50.9138
50.9197
50.9256
50.9316
50.9377
50.9438
50.9499
50.9561
50.9623
50.9685
50.9748
50.9811
50.9875
50.9939
51.0003
51.0068
51.0134
51.0201
51.0267
51.0335
51.0403
51.0471
51.054
51.061
51.0681
51.0752
51.0824
51.0897
51.097
51.1042
51.1115
51.1187
51.1259
51.1332
51.1405
51.1478
51.1552
51.1626
51.1703
51.1783
51.1867
51.1956
51.2049
51.2148
51.2246
51.2341
51.2434
51.2524
51.2613
51.27
51.2783