/*--------------------------------*- C++ -*----------------------------------*\
| =========                 |                                                 |
| \\      /  F ield         | OpenFOAM: The Open Source CFD Toolbox           |
|  \\    /   O peration     | Version:  3.0.x                                 |
|   \\  /    A nd           | Web:      www.OpenFOAM.org                      |
|    \\/     M anipulation  |                                                 |
\*---------------------------------------------------------------------------*/
FoamFile
{
    version     2.0;
    format      ascii;
    class       volScalarField;
    location    "0.44";
    object      T;
}
// * * * * * * * * * * * * * * * * * * * * * * * * * * * * * * * * * * * * * //

dimensions      [0 0 0 1 0 0 0];

internalField   nonuniform List<scalar> 
13800
(
773.145
773.145
773.145
773.145
773.145
773.145
773.145
773.145
773.145
773.145
773.145
773.145
773.145
773.145
773.145
773.145
773.145
773.145
773.145
773.144
773.144
773.144
773.144
773.144
773.144
773.144
773.144
773.144
773.144
773.145
773.145
773.145
773.145
773.145
773.145
773.145
773.144
773.144
773.143
773.143
773.143
773.143
773.143
773.143
773.143
773.143
773.143
773.143
773.143
773.143
773.142
773.141
773.14
773.14
773.14
773.139
773.139
773.139
773.139
773.139
773.139
773.139
773.139
773.139
773.138
773.138
773.137
773.137
773.137
773.137
773.137
773.137
773.137
773.137
773.137
773.137
773.137
773.137
773.137
773.137
773.137
773.137
773.137
773.138
773.138
773.138
773.138
773.138
773.139
773.139
773.139
773.139
773.14
773.14
773.14
773.141
773.141
773.142
773.142
773.142
773.143
773.144
773.144
773.145
773.145
773.146
773.147
773.148
773.149
773.149
773.15
773.151
773.152
773.154
773.155
773.156
773.157
773.159
773.16
773.162
773.163
773.165
773.167
773.168
773.17
773.172
773.175
773.177
773.179
773.181
773.184
773.187
773.189
773.192
773.195
773.198
773.201
773.205
773.208
773.212
773.215
773.219
773.223
773.227
773.231
773.236
773.24
773.245
773.25
773.255
773.26
773.265
773.27
773.276
773.282
773.288
773.294
773.3
773.306
773.313
773.319
773.326
773.333
773.341
773.348
773.356
773.363
773.371
773.38
773.388
773.396
773.405
773.414
773.423
773.432
773.442
773.451
773.461
773.471
773.481
773.492
773.502
773.513
773.524
773.535
773.547
773.558
773.57
773.582
773.594
773.607
773.62
773.632
773.646
773.657
773.674
773.684
773.706
773.717
773.834
773.138
773.138
773.138
773.138
773.138
773.138
773.138
773.138
773.138
773.138
773.138
773.138
773.138
773.138
773.138
773.138
773.138
773.138
773.138
773.138
773.138
773.138
773.138
773.138
773.138
773.138
773.138
773.138
773.138
773.138
773.139
773.139
773.139
773.139
773.139
773.139
773.138
773.138
773.137
773.137
773.137
773.137
773.137
773.137
773.138
773.138
773.138
773.138
773.138
773.137
773.137
773.136
773.135
773.135
773.134
773.134
773.134
773.134
773.134
773.134
773.134
773.134
773.134
773.134
773.133
773.133
773.133
773.132
773.132
773.132
773.132
773.132
773.132
773.132
773.132
773.132
773.132
773.132
773.133
773.133
773.133
773.133
773.133
773.133
773.133
773.133
773.134
773.134
773.134
773.134
773.135
773.135
773.135
773.135
773.136
773.136
773.137
773.137
773.137
773.138
773.138
773.139
773.14
773.14
773.141
773.142
773.142
773.143
773.144
773.145
773.146
773.147
773.148
773.149
773.15
773.151
773.153
773.154
773.156
773.157
773.159
773.16
773.162
773.164
773.166
773.168
773.17
773.172
773.175
773.177
773.179
773.182
773.185
773.188
773.191
773.194
773.197
773.2
773.204
773.207
773.211
773.215
773.219
773.223
773.227
773.231
773.236
773.24
773.245
773.25
773.255
773.26
773.266
773.271
773.277
773.283
773.289
773.295
773.302
773.308
773.315
773.322
773.329
773.336
773.344
773.351
773.359
773.367
773.375
773.383
773.392
773.4
773.409
773.418
773.428
773.437
773.447
773.457
773.467
773.477
773.487
773.498
773.509
773.52
773.531
773.542
773.554
773.566
773.578
773.59
773.602
773.615
773.627
773.642
773.653
773.669
773.68
773.701
773.712
773.845
773.138
773.138
773.138
773.138
773.138
773.138
773.138
773.138
773.138
773.138
773.138
773.138
773.138
773.138
773.138
773.138
773.138
773.138
773.138
773.138
773.138
773.138
773.138
773.138
773.138
773.138
773.138
773.138
773.138
773.138
773.139
773.139
773.139
773.139
773.139
773.139
773.138
773.138
773.137
773.137
773.137
773.137
773.137
773.137
773.138
773.138
773.138
773.138
773.138
773.137
773.137
773.136
773.135
773.135
773.134
773.134
773.134
773.134
773.134
773.134
773.134
773.134
773.134
773.134
773.133
773.133
773.133
773.132
773.132
773.132
773.132
773.132
773.132
773.132
773.132
773.132
773.132
773.132
773.133
773.133
773.133
773.133
773.133
773.133
773.133
773.133
773.134
773.134
773.134
773.134
773.135
773.135
773.135
773.135
773.136
773.136
773.137
773.137
773.137
773.138
773.138
773.139
773.14
773.14
773.141
773.142
773.142
773.143
773.144
773.145
773.146
773.147
773.148
773.149
773.15
773.151
773.153
773.154
773.156
773.157
773.159
773.16
773.162
773.164
773.166
773.168
773.17
773.172
773.175
773.177
773.179
773.182
773.185
773.188
773.191
773.194
773.197
773.2
773.204
773.207
773.211
773.215
773.218
773.223
773.227
773.231
773.236
773.24
773.245
773.25
773.255
773.26
773.266
773.271
773.277
773.283
773.289
773.295
773.302
773.308
773.315
773.322
773.329
773.336
773.344
773.351
773.359
773.367
773.375
773.383
773.392
773.4
773.409
773.418
773.428
773.437
773.447
773.457
773.467
773.477
773.487
773.498
773.509
773.52
773.531
773.542
773.554
773.566
773.578
773.59
773.602
773.615
773.627
773.642
773.653
773.669
773.679
773.701
773.712
773.841
773.138
773.138
773.138
773.138
773.138
773.138
773.138
773.138
773.138
773.138
773.138
773.138
773.138
773.138
773.138
773.138
773.138
773.138
773.138
773.138
773.138
773.138
773.138
773.138
773.138
773.138
773.138
773.138
773.138
773.138
773.139
773.139
773.139
773.139
773.139
773.139
773.138
773.138
773.137
773.137
773.137
773.137
773.137
773.138
773.138
773.138
773.138
773.138
773.138
773.137
773.137
773.136
773.135
773.135
773.134
773.134
773.134
773.134
773.134
773.134
773.134
773.134
773.134
773.134
773.133
773.133
773.133
773.132
773.132
773.132
773.132
773.132
773.132
773.132
773.132
773.132
773.132
773.132
773.133
773.133
773.133
773.133
773.133
773.133
773.133
773.133
773.134
773.134
773.134
773.134
773.135
773.135
773.135
773.135
773.136
773.136
773.137
773.137
773.137
773.138
773.138
773.139
773.14
773.14
773.141
773.142
773.142
773.143
773.144
773.145
773.146
773.147
773.148
773.149
773.15
773.151
773.153
773.154
773.156
773.157
773.159
773.16
773.162
773.164
773.166
773.168
773.17
773.172
773.175
773.177
773.179
773.182
773.185
773.188
773.191
773.194
773.197
773.2
773.204
773.207
773.211
773.215
773.218
773.223
773.227
773.231
773.236
773.24
773.245
773.25
773.255
773.26
773.266
773.271
773.277
773.283
773.289
773.295
773.302
773.308
773.315
773.322
773.329
773.336
773.344
773.351
773.359
773.367
773.375
773.383
773.392
773.4
773.409
773.418
773.428
773.437
773.447
773.457
773.467
773.477
773.487
773.498
773.509
773.52
773.531
773.542
773.554
773.566
773.578
773.59
773.602
773.615
773.627
773.642
773.653
773.669
773.679
773.7
773.712
773.812
773.138
773.138
773.138
773.138
773.138
773.138
773.138
773.138
773.138
773.138
773.138
773.138
773.138
773.138
773.138
773.138
773.138
773.138
773.138
773.138
773.138
773.138
773.138
773.138
773.138
773.138
773.138
773.138
773.138
773.138
773.139
773.139
773.139
773.139
773.139
773.139
773.138
773.138
773.137
773.137
773.137
773.137
773.137
773.138
773.138
773.138
773.138
773.138
773.138
773.137
773.137
773.136
773.135
773.135
773.134
773.134
773.134
773.134
773.134
773.134
773.134
773.134
773.134
773.134
773.133
773.133
773.133
773.132
773.132
773.132
773.132
773.132
773.132
773.132
773.132
773.132
773.132
773.132
773.133
773.133
773.133
773.133
773.133
773.133
773.133
773.133
773.134
773.134
773.134
773.134
773.135
773.135
773.135
773.135
773.136
773.136
773.137
773.137
773.137
773.138
773.138
773.139
773.14
773.14
773.141
773.142
773.142
773.143
773.144
773.145
773.146
773.147
773.148
773.149
773.15
773.151
773.153
773.154
773.156
773.157
773.159
773.16
773.162
773.164
773.166
773.168
773.17
773.172
773.175
773.177
773.179
773.182
773.185
773.188
773.191
773.194
773.197
773.2
773.204
773.207
773.211
773.215
773.218
773.223
773.227
773.231
773.236
773.24
773.245
773.25
773.255
773.26
773.266
773.271
773.277
773.283
773.289
773.295
773.302
773.308
773.315
773.322
773.329
773.336
773.344
773.351
773.359
773.367
773.375
773.383
773.392
773.4
773.409
773.418
773.428
773.437
773.447
773.457
773.467
773.477
773.487
773.498
773.509
773.52
773.531
773.542
773.554
773.566
773.578
773.59
773.602
773.615
773.627
773.642
773.653
773.669
773.679
773.699
773.709
773.779
773.138
773.138
773.138
773.138
773.138
773.138
773.138
773.138
773.138
773.138
773.138
773.138
773.138
773.138
773.138
773.138
773.138
773.138
773.138
773.138
773.138
773.138
773.138
773.138
773.138
773.138
773.138
773.138
773.138
773.138
773.139
773.139
773.139
773.139
773.139
773.139
773.138
773.138
773.137
773.137
773.137
773.137
773.137
773.138
773.138
773.138
773.138
773.138
773.138
773.137
773.137
773.136
773.135
773.135
773.134
773.134
773.134
773.134
773.134
773.134
773.134
773.134
773.134
773.134
773.133
773.133
773.133
773.132
773.132
773.132
773.132
773.132
773.132
773.132
773.132
773.132
773.132
773.132
773.133
773.133
773.133
773.133
773.133
773.133
773.133
773.133
773.134
773.134
773.134
773.134
773.135
773.135
773.135
773.135
773.136
773.136
773.137
773.137
773.137
773.138
773.138
773.139
773.14
773.14
773.141
773.142
773.142
773.143
773.144
773.145
773.146
773.147
773.148
773.149
773.15
773.151
773.153
773.154
773.156
773.157
773.159
773.16
773.162
773.164
773.166
773.168
773.17
773.172
773.175
773.177
773.179
773.182
773.185
773.188
773.191
773.194
773.197
773.2
773.204
773.207
773.211
773.215
773.218
773.223
773.227
773.231
773.236
773.24
773.245
773.25
773.255
773.26
773.266
773.271
773.277
773.283
773.289
773.295
773.302
773.308
773.315
773.322
773.329
773.336
773.344
773.351
773.359
773.367
773.375
773.383
773.392
773.4
773.409
773.418
773.428
773.437
773.447
773.457
773.467
773.477
773.487
773.498
773.509
773.52
773.531
773.542
773.554
773.566
773.578
773.59
773.602
773.615
773.628
773.641
773.654
773.668
773.681
773.693
773.711
773.713
773.138
773.138
773.138
773.138
773.138
773.138
773.138
773.138
773.138
773.138
773.138
773.138
773.138
773.138
773.138
773.138
773.138
773.138
773.138
773.138
773.138
773.138
773.138
773.138
773.138
773.138
773.138
773.138
773.138
773.138
773.139
773.139
773.139
773.139
773.139
773.139
773.138
773.138
773.137
773.137
773.137
773.137
773.137
773.138
773.138
773.138
773.138
773.138
773.138
773.137
773.137
773.136
773.135
773.135
773.134
773.134
773.134
773.134
773.134
773.134
773.134
773.134
773.134
773.134
773.133
773.133
773.133
773.132
773.132
773.132
773.132
773.132
773.132
773.132
773.132
773.132
773.132
773.132
773.133
773.133
773.133
773.133
773.133
773.133
773.133
773.133
773.134
773.134
773.134
773.134
773.135
773.135
773.135
773.135
773.136
773.136
773.137
773.137
773.137
773.138
773.138
773.139
773.14
773.14
773.141
773.142
773.142
773.143
773.144
773.145
773.146
773.147
773.148
773.149
773.15
773.151
773.153
773.154
773.156
773.157
773.159
773.16
773.162
773.164
773.166
773.168
773.17
773.172
773.175
773.177
773.179
773.182
773.185
773.188
773.191
773.194
773.197
773.2
773.204
773.207
773.211
773.215
773.218
773.223
773.227
773.231
773.236
773.24
773.245
773.25
773.255
773.26
773.266
773.271
773.277
773.283
773.289
773.295
773.302
773.308
773.315
773.322
773.329
773.336
773.344
773.351
773.359
773.367
773.375
773.383
773.392
773.4
773.409
773.418
773.428
773.437
773.447
773.457
773.467
773.477
773.487
773.498
773.509
773.52
773.531
773.542
773.554
773.566
773.578
773.59
773.602
773.615
773.628
773.64
773.656
773.665
773.683
773.691
773.71
773.611
773.138
773.138
773.138
773.138
773.138
773.138
773.138
773.138
773.138
773.138
773.138
773.138
773.138
773.138
773.138
773.138
773.138
773.138
773.138
773.138
773.138
773.138
773.138
773.138
773.138
773.138
773.138
773.138
773.138
773.138
773.139
773.139
773.139
773.139
773.139
773.139
773.138
773.138
773.137
773.137
773.137
773.137
773.137
773.137
773.138
773.138
773.138
773.138
773.138
773.137
773.137
773.136
773.135
773.135
773.134
773.134
773.134
773.134
773.134
773.134
773.134
773.134
773.134
773.134
773.133
773.133
773.133
773.132
773.132
773.132
773.132
773.132
773.132
773.132
773.132
773.132
773.132
773.132
773.133
773.133
773.133
773.133
773.133
773.133
773.133
773.133
773.134
773.134
773.134
773.134
773.135
773.135
773.135
773.135
773.136
773.136
773.137
773.137
773.137
773.138
773.138
773.139
773.14
773.14
773.141
773.142
773.142
773.143
773.144
773.145
773.146
773.147
773.148
773.149
773.15
773.151
773.153
773.154
773.156
773.157
773.159
773.16
773.162
773.164
773.166
773.168
773.17
773.172
773.175
773.177
773.179
773.182
773.185
773.188
773.191
773.194
773.197
773.2
773.204
773.207
773.211
773.215
773.218
773.223
773.227
773.231
773.236
773.24
773.245
773.25
773.255
773.26
773.266
773.271
773.277
773.283
773.289
773.295
773.302
773.308
773.315
773.322
773.329
773.336
773.344
773.351
773.359
773.367
773.375
773.383
773.392
773.4
773.409
773.418
773.428
773.437
773.447
773.457
773.467
773.477
773.487
773.498
773.509
773.52
773.531
773.542
773.554
773.566
773.578
773.59
773.602
773.615
773.629
773.639
773.656
773.665
773.684
773.69
773.72
773.467
773.138
773.138
773.138
773.138
773.138
773.138
773.138
773.138
773.138
773.138
773.138
773.138
773.138
773.138
773.138
773.138
773.138
773.138
773.138
773.138
773.138
773.138
773.138
773.138
773.138
773.138
773.138
773.138
773.138
773.138
773.139
773.139
773.139
773.139
773.139
773.139
773.138
773.138
773.137
773.137
773.137
773.137
773.137
773.137
773.138
773.138
773.138
773.138
773.138
773.137
773.137
773.136
773.135
773.135
773.134
773.134
773.134
773.134
773.134
773.134
773.134
773.134
773.134
773.134
773.133
773.133
773.133
773.132
773.132
773.132
773.132
773.132
773.132
773.132
773.132
773.132
773.132
773.132
773.133
773.133
773.133
773.133
773.133
773.133
773.133
773.133
773.134
773.134
773.134
773.134
773.135
773.135
773.135
773.135
773.136
773.136
773.137
773.137
773.137
773.138
773.138
773.139
773.14
773.14
773.141
773.142
773.142
773.143
773.144
773.145
773.146
773.147
773.148
773.149
773.15
773.151
773.153
773.154
773.156
773.157
773.159
773.16
773.162
773.164
773.166
773.168
773.17
773.172
773.175
773.177
773.179
773.182
773.185
773.188
773.191
773.194
773.197
773.2
773.204
773.207
773.211
773.215
773.219
773.223
773.227
773.231
773.236
773.24
773.245
773.25
773.255
773.26
773.266
773.271
773.277
773.283
773.289
773.295
773.302
773.308
773.315
773.322
773.329
773.336
773.344
773.351
773.359
773.367
773.375
773.383
773.392
773.4
773.409
773.418
773.428
773.437
773.447
773.457
773.467
773.477
773.487
773.498
773.509
773.52
773.531
773.542
773.554
773.566
773.578
773.59
773.603
773.615
773.629
773.639
773.656
773.665
773.684
773.69
773.727
773.397
773.145
773.145
773.145
773.145
773.145
773.145
773.145
773.145
773.145
773.145
773.145
773.145
773.145
773.145
773.145
773.145
773.145
773.145
773.145
773.144
773.144
773.144
773.144
773.144
773.144
773.144
773.144
773.144
773.144
773.145
773.145
773.145
773.145
773.145
773.145
773.145
773.144
773.144
773.143
773.143
773.143
773.143
773.143
773.143
773.143
773.143
773.143
773.143
773.143
773.143
773.142
773.141
773.14
773.14
773.14
773.139
773.139
773.139
773.139
773.139
773.139
773.139
773.139
773.139
773.138
773.138
773.137
773.137
773.137
773.137
773.137
773.137
773.137
773.137
773.137
773.137
773.137
773.137
773.137
773.137
773.137
773.137
773.137
773.138
773.138
773.138
773.138
773.138
773.139
773.139
773.139
773.139
773.14
773.14
773.14
773.141
773.141
773.142
773.142
773.142
773.143
773.144
773.144
773.145
773.145
773.146
773.147
773.148
773.149
773.149
773.15
773.151
773.152
773.154
773.155
773.156
773.157
773.159
773.16
773.162
773.163
773.165
773.167
773.168
773.17
773.172
773.175
773.177
773.179
773.181
773.184
773.187
773.189
773.192
773.195
773.198
773.201
773.205
773.208
773.212
773.215
773.219
773.223
773.227
773.231
773.236
773.24
773.245
773.25
773.255
773.26
773.265
773.27
773.276
773.282
773.288
773.294
773.3
773.306
773.313
773.319
773.326
773.333
773.341
773.348
773.356
773.363
773.371
773.38
773.388
773.396
773.405
773.414
773.423
773.432
773.442
773.451
773.461
773.471
773.481
773.492
773.502
773.513
773.524
773.535
773.547
773.558
773.57
773.582
773.594
773.607
773.619
773.633
773.644
773.66
773.67
773.689
773.694
773.738
773.331
773.827
773.846
773.861
773.867
773.873
773.878
773.883
773.887
773.89
773.893
773.896
773.898
773.9
773.901
773.902
773.902
773.901
773.896
773.888
773.87
773.823
773.837
773.846
773.851
773.856
773.86
773.863
773.866
773.868
773.87
773.872
773.873
773.875
773.875
773.876
773.875
773.874
773.87
773.863
773.846
773.822
773.836
773.847
773.852
773.856
773.86
773.865
773.869
773.871
773.873
773.875
773.877
773.878
773.878
773.878
773.877
773.874
773.869
773.859
773.844
773.799
773.807
773.812
773.816
773.82
773.824
773.827
773.831
773.835
773.839
773.844
773.849
773.853
773.857
773.862
773.866
773.866
773.865
773.859
773.85
773.773
773.783
773.793
773.801
773.807
773.811
773.815
773.818
773.819
773.818
773.816
773.814
773.81
773.805
773.801
773.796
773.792
773.787
773.786
773.782
773.72
773.717
773.713
773.709
773.708
773.71
773.713
773.717
773.721
773.728
773.736
773.747
773.759
773.771
773.783
773.795
773.808
773.817
773.828
773.834
773.657
773.654
773.658
773.662
773.664
773.665
773.666
773.663
773.661
773.655
773.65
773.643
773.637
773.63
773.625
773.621
773.623
773.626
773.634
773.646
773.57
773.551
773.533
773.525
773.52
773.521
773.522
773.526
773.533
773.543
773.554
773.567
773.582
773.598
773.619
773.633
773.662
773.681
773.713
773.74
773.516
773.496
773.476
773.463
773.455
773.448
773.444
773.44
773.44
773.441
773.443
773.447
773.454
773.462
773.472
773.484
773.501
773.524
773.555
773.593
773.485
773.455
773.422
773.41
773.403
773.405
773.411
773.415
773.429
773.441
773.46
773.476
773.499
773.518
773.543
773.566
773.596
773.629
773.669
773.712
773.814
773.808
773.814
773.821
773.831
773.844
773.857
773.87
773.883
773.896
773.909
773.923
773.937
773.951
773.965
773.979
773.993
774.008
774.022
774.037
774.051
774.066
774.081
774.096
774.111
774.127
774.143
774.159
774.175
774.19
774.206
774.223
774.239
774.256
774.272
774.289
774.306
774.323
774.341
774.358
774.375
774.393
774.411
774.428
774.446
774.465
774.483
774.502
774.52
774.539
774.558
774.578
774.597
774.616
774.636
774.655
774.675
774.695
774.715
774.735
774.755
774.776
774.796
774.817
774.838
774.859
774.879
774.9
774.922
774.943
774.965
774.987
775.008
775.028
775.048
775.068
775.088
775.109
775.132
775.153
775.173
775.189
775.207
775.238
775.307
775.508
776.098
776.964
777.784
778.479
779.002
779.337
779.499
779.537
779.502
779.234
778.386
777.421
776.659
776.109
775.757
775.565
775.485
775.468
775.475
775.526
775.626
775.71
775.779
775.834
775.879
775.918
775.952
775.984
776.014
776.043
776.071
776.099
776.127
776.154
776.182
776.21
776.237
776.265
776.293
776.321
776.349
776.377
776.405
776.433
776.461
776.49
776.518
776.546
776.575
776.604
776.632
776.661
776.69
776.719
776.748
776.777
776.806
776.835
776.864
776.894
776.923
776.952
776.982
777.011
777.041
777.071
777.1
777.13
777.16
777.19
777.22
777.25
777.28
777.31
777.34
777.37
777.4
777.43
777.46
777.491
777.521
777.551
777.582
777.612
777.643
777.673
777.704
777.734
777.765
777.795
777.826
777.856
777.887
777.917
777.948
777.978
778.01
778.039
778.072
778.099
778.135
778.16
778.197
778.221
778.259
778.281
778.321
778.342
778.383
778.403
778.444
778.463
778.517
778.459
773.797
773.793
773.799
773.807
773.817
773.829
773.842
773.855
773.868
773.881
773.894
773.908
773.922
773.936
773.95
773.964
773.978
773.993
774.007
774.021
774.036
774.051
774.066
774.081
774.096
774.111
774.127
774.143
774.159
774.175
774.191
774.207
774.224
774.24
774.257
774.274
774.29
774.308
774.325
774.342
774.36
774.377
774.395
774.413
774.431
774.449
774.467
774.485
774.504
774.523
774.542
774.561
774.581
774.6
774.62
774.639
774.659
774.679
774.699
774.719
774.739
774.759
774.78
774.801
774.822
774.843
774.864
774.885
774.906
774.928
774.949
774.971
774.992
775.014
775.035
775.057
775.079
775.102
775.124
775.147
775.166
775.18
775.19
775.198
775.206
775.215
775.223
775.232
775.247
775.279
775.365
775.519
775.678
775.82
775.929
776
776.032
776.037
776.019
775.935
775.827
775.758
775.727
775.72
775.721
775.729
775.756
775.793
775.828
775.862
775.894
775.924
775.954
775.983
776.011
776.039
776.067
776.095
776.122
776.15
776.178
776.205
776.233
776.261
776.289
776.317
776.344
776.372
776.401
776.429
776.457
776.485
776.514
776.542
776.571
776.599
776.628
776.657
776.685
776.714
776.743
776.772
776.801
776.831
776.86
776.889
776.919
776.948
776.977
777.007
777.037
777.066
777.096
777.126
777.155
777.185
777.215
777.245
777.275
777.305
777.335
777.365
777.396
777.426
777.456
777.486
777.517
777.547
777.577
777.608
777.638
777.669
777.699
777.73
777.76
777.791
777.821
777.852
777.883
777.913
777.944
777.974
778.006
778.035
778.068
778.095
778.131
778.156
778.192
778.217
778.254
778.277
778.316
778.338
778.378
778.399
778.439
778.459
778.51
778.475
773.798
773.796
773.802
773.809
773.819
773.832
773.845
773.858
773.871
773.884
773.897
773.911
773.925
773.939
773.953
773.967
773.981
773.995
774.01
774.024
774.039
774.054
774.069
774.084
774.099
774.114
774.13
774.146
774.162
774.178
774.194
774.21
774.226
774.243
774.26
774.276
774.293
774.31
774.328
774.345
774.363
774.38
774.398
774.416
774.433
774.452
774.47
774.488
774.507
774.526
774.545
774.564
774.584
774.603
774.622
774.642
774.662
774.681
774.701
774.721
774.742
774.762
774.783
774.804
774.824
774.845
774.867
774.888
774.909
774.931
774.953
774.974
774.996
775.018
775.04
775.061
775.082
775.104
775.126
775.151
775.175
775.197
775.211
775.216
775.212
775.185
775.128
775.091
775.076
775.075
775.077
775.085
775.107
775.167
775.286
775.407
775.513
775.599
775.664
775.71
775.74
775.757
775.769
775.778
775.785
775.796
775.811
775.831
775.853
775.878
775.904
775.93
775.957
775.985
776.012
776.04
776.067
776.095
776.122
776.15
776.178
776.205
776.233
776.261
776.289
776.317
776.344
776.372
776.401
776.429
776.457
776.485
776.514
776.542
776.571
776.599
776.628
776.657
776.685
776.714
776.743
776.772
776.801
776.831
776.86
776.889
776.919
776.948
776.977
777.007
777.037
777.066
777.096
777.126
777.155
777.185
777.215
777.245
777.275
777.305
777.335
777.365
777.396
777.426
777.456
777.486
777.517
777.547
777.577
777.608
777.638
777.669
777.699
777.73
777.76
777.791
777.821
777.852
777.883
777.913
777.944
777.974
778.006
778.035
778.068
778.095
778.131
778.156
778.192
778.217
778.254
778.277
778.316
778.338
778.378
778.399
778.439
778.459
778.508
778.494
773.821
773.826
773.831
773.843
773.856
773.868
773.88
773.893
773.907
773.92
773.934
773.947
773.961
773.975
773.989
774.003
774.017
774.032
774.046
774.061
774.075
774.09
774.105
774.12
774.135
774.151
774.166
774.182
774.198
774.214
774.23
774.246
774.263
774.279
774.296
774.313
774.33
774.347
774.364
774.381
774.399
774.416
774.434
774.452
774.47
774.488
774.506
774.525
774.544
774.562
774.582
774.601
774.62
774.639
774.659
774.678
774.698
774.718
774.738
774.758
774.778
774.798
774.819
774.84
774.86
774.881
774.902
774.923
774.944
774.966
774.987
775.008
775.028
775.049
775.07
775.09
775.111
775.133
775.156
775.18
775.203
775.22
775.229
775.23
775.22
775.18
775.139
775.119
775.115
775.117
775.122
775.134
775.162
775.229
775.311
775.392
775.465
775.528
775.58
775.622
775.657
775.687
775.712
775.736
775.759
775.782
775.805
775.83
775.855
775.881
775.907
775.934
775.961
775.988
776.015
776.042
776.069
776.096
776.124
776.151
776.178
776.206
776.233
776.261
776.289
776.317
776.345
776.373
776.401
776.429
776.457
776.485
776.514
776.542
776.571
776.599
776.628
776.657
776.685
776.714
776.743
776.772
776.801
776.831
776.86
776.889
776.919
776.948
776.977
777.007
777.037
777.066
777.096
777.126
777.155
777.185
777.215
777.245
777.275
777.305
777.335
777.365
777.396
777.426
777.456
777.486
777.517
777.547
777.577
777.608
777.638
777.669
777.699
777.73
777.76
777.791
777.821
777.852
777.883
777.913
777.944
777.974
778.006
778.035
778.068
778.096
778.129
778.157
778.191
778.218
778.254
778.277
778.317
778.338
778.377
778.399
778.439
778.459
778.501
778.516
773.781
773.785
773.793
773.801
773.812
773.824
773.837
773.849
773.862
773.875
773.888
773.902
773.916
773.929
773.943
773.957
773.972
773.986
774.001
774.015
774.03
774.045
774.06
774.075
774.09
774.105
774.121
774.137
774.152
774.168
774.185
774.201
774.217
774.234
774.25
774.267
774.284
774.301
774.318
774.336
774.353
774.371
774.389
774.407
774.425
774.443
774.461
774.48
774.498
774.517
774.536
774.555
774.574
774.594
774.613
774.633
774.653
774.672
774.693
774.713
774.733
774.753
774.774
774.795
774.816
774.837
774.858
774.88
774.901
774.923
774.945
774.968
774.99
775.012
775.035
775.057
775.081
775.103
775.126
775.149
775.174
775.199
775.222
775.241
775.254
775.258
775.255
775.247
775.245
775.247
775.253
775.263
775.283
775.315
775.357
775.405
775.454
775.502
775.546
775.586
775.623
775.657
775.688
775.718
775.746
775.774
775.801
775.828
775.855
775.881
775.908
775.935
775.962
775.989
776.016
776.043
776.07
776.097
776.124
776.151
776.179
776.206
776.234
776.261
776.289
776.317
776.345
776.373
776.401
776.429
776.457
776.485
776.514
776.542
776.571
776.599
776.628
776.657
776.685
776.714
776.743
776.772
776.801
776.831
776.86
776.889
776.919
776.948
776.977
777.007
777.037
777.066
777.096
777.126
777.155
777.185
777.215
777.245
777.275
777.305
777.335
777.365
777.396
777.426
777.456
777.486
777.517
777.547
777.577
777.608
777.638
777.669
777.699
777.73
777.76
777.791
777.821
777.852
777.883
777.913
777.944
777.975
778.005
778.036
778.066
778.098
778.127
778.159
778.189
778.219
778.251
778.282
778.31
778.345
778.371
778.405
778.435
778.464
778.496
778.524
773.853
773.874
773.893
773.91
773.926
773.94
773.953
773.967
773.98
773.994
774.007
774.02
774.034
774.048
774.062
774.076
774.09
774.105
774.119
774.134
774.149
774.163
774.178
774.193
774.209
774.224
774.239
774.255
774.271
774.287
774.303
774.319
774.336
774.352
774.369
774.386
774.403
774.42
774.437
774.454
774.472
774.489
774.507
774.525
774.543
774.561
774.579
774.597
774.616
774.635
774.653
774.672
774.691
774.71
774.73
774.749
774.768
774.787
774.806
774.826
774.845
774.864
774.884
774.903
774.923
774.943
774.962
774.981
775
775.019
775.038
775.058
775.077
775.097
775.118
775.14
775.162
775.185
775.206
775.222
775.231
775.235
775.233
775.222
775.216
775.216
775.219
775.228
775.24
775.252
775.269
775.294
775.327
775.367
775.409
775.453
775.495
775.535
775.572
775.606
775.639
775.669
775.698
775.727
775.754
775.781
775.807
775.834
775.86
775.886
775.912
775.939
775.965
775.991
776.018
776.044
776.071
776.098
776.125
776.152
776.179
776.207
776.234
776.262
776.289
776.317
776.345
776.373
776.401
776.429
776.457
776.485
776.514
776.542
776.571
776.599
776.628
776.657
776.685
776.714
776.743
776.772
776.801
776.831
776.86
776.889
776.919
776.948
776.977
777.007
777.037
777.066
777.096
777.126
777.155
777.185
777.215
777.245
777.275
777.305
777.335
777.365
777.396
777.426
777.456
777.486
777.517
777.547
777.577
777.608
777.638
777.669
777.699
777.73
777.76
777.791
777.821
777.852
777.882
777.913
777.943
777.975
778.004
778.037
778.065
778.099
778.126
778.161
778.187
778.223
778.247
778.285
778.308
778.347
778.369
778.408
778.43
778.471
778.492
778.538
773.695
773.718
773.733
773.745
773.757
773.77
773.783
773.796
773.809
773.822
773.835
773.849
773.862
773.876
773.89
773.904
773.918
773.932
773.947
773.961
773.976
773.991
774.006
774.021
774.037
774.052
774.068
774.083
774.099
774.115
774.131
774.147
774.164
774.18
774.197
774.214
774.231
774.248
774.265
774.282
774.3
774.318
774.335
774.353
774.372
774.39
774.408
774.427
774.445
774.464
774.483
774.502
774.521
774.541
774.56
774.58
774.6
774.619
774.64
774.66
774.68
774.7
774.72
774.741
774.762
774.783
774.805
774.826
774.848
774.87
774.892
774.914
774.936
774.958
774.98
775.003
775.027
775.052
775.075
775.098
775.12
775.144
775.169
775.196
775.225
775.255
775.284
775.31
775.327
775.336
775.34
775.343
775.347
775.352
775.362
775.384
775.426
775.474
775.522
775.568
775.611
775.649
775.684
775.717
775.747
775.777
775.805
775.832
775.859
775.886
775.912
775.939
775.965
775.991
776.018
776.045
776.071
776.098
776.125
776.152
776.179
776.207
776.234
776.262
776.289
776.317
776.345
776.373
776.401
776.429
776.457
776.485
776.514
776.542
776.571
776.599
776.628
776.657
776.685
776.714
776.743
776.772
776.801
776.831
776.86
776.889
776.919
776.948
776.977
777.007
777.037
777.066
777.096
777.126
777.155
777.185
777.215
777.245
777.275
777.305
777.335
777.365
777.396
777.426
777.456
777.486
777.517
777.547
777.577
777.608
777.638
777.669
777.699
777.73
777.76
777.791
777.821
777.852
777.883
777.913
777.944
777.975
778.004
778.037
778.065
778.099
778.126
778.161
778.187
778.223
778.247
778.285
778.308
778.347
778.369
778.408
778.43
778.471
778.494
778.536
773.833
773.867
773.888
773.906
773.921
773.935
773.949
773.963
773.976
773.989
774.003
774.016
774.03
774.044
774.057
774.071
774.086
774.1
774.114
774.129
774.144
774.159
774.174
774.189
774.205
774.22
774.235
774.25
774.266
774.282
774.298
774.315
774.331
774.348
774.365
774.381
774.398
774.415
774.432
774.45
774.467
774.484
774.502
774.52
774.537
774.555
774.573
774.591
774.609
774.627
774.646
774.665
774.685
774.704
774.724
774.744
774.764
774.784
774.804
774.824
774.844
774.863
774.884
774.904
774.924
774.943
774.962
774.981
775
775.019
775.038
775.058
775.08
775.103
775.126
775.15
775.174
775.198
775.223
775.247
775.269
775.286
775.297
775.303