/*--------------------------------*- C++ -*----------------------------------*\
| =========                 |                                                 |
| \\      /  F ield         | OpenFOAM: The Open Source CFD Toolbox           |
|  \\    /   O peration     | Version:  3.0.x                                 |
|   \\  /    A nd           | Web:      www.OpenFOAM.org                      |
|    \\/     M anipulation  |                                                 |
\*---------------------------------------------------------------------------*/
FoamFile
{
    version     2.0;
    format      ascii;
    class       volScalarField;
    location    "0.43";
    object      T;
}
// * * * * * * * * * * * * * * * * * * * * * * * * * * * * * * * * * * * * * //

dimensions      [0 0 0 1 0 0 0];

internalField   nonuniform List<scalar> 
13800
(
773.145
773.145
773.145
773.145
773.145
773.145
773.145
773.145
773.145
773.145
773.145
773.145
773.145
773.144
773.144
773.144
773.144
773.144
773.144
773.144
773.144
773.144
773.144
773.144
773.144
773.144
773.144
773.144
773.144
773.145
773.145
773.145
773.145
773.145
773.144
773.143
773.143
773.143
773.143
773.143
773.143
773.143
773.143
773.143
773.143
773.143
773.143
773.142
773.142
773.141
773.14
773.14
773.139
773.139
773.139
773.139
773.139
773.139
773.139
773.139
773.139
773.138
773.138
773.137
773.137
773.136
773.136
773.136
773.136
773.136
773.136
773.136
773.136
773.136
773.136
773.136
773.136
773.136
773.136
773.136
773.136
773.136
773.136
773.136
773.136
773.136
773.136
773.136
773.136
773.136
773.136
773.136
773.136
773.136
773.136
773.136
773.136
773.136
773.136
773.136
773.136
773.136
773.137
773.137
773.137
773.137
773.137
773.137
773.137
773.137
773.138
773.138
773.138
773.138
773.138
773.139
773.139
773.139
773.14
773.14
773.14
773.141
773.141
773.141
773.142
773.142
773.143
773.144
773.144
773.145
773.146
773.146
773.147
773.148
773.149
773.15
773.151
773.152
773.153
773.154
773.155
773.157
773.158
773.16
773.161
773.163
773.164
773.166
773.168
773.17
773.172
773.174
773.176
773.179
773.181
773.183
773.186
773.189
773.192
773.195
773.198
773.201
773.204
773.208
773.211
773.215
773.219
773.223
773.227
773.231
773.235
773.24
773.244
773.249
773.254
773.259
773.265
773.27
773.276
773.281
773.287
773.293
773.3
773.306
773.312
773.319
773.326
773.333
773.34
773.348
773.355
773.363
773.371
773.38
773.387
773.397
773.404
773.419
773.427
773.544
773.138
773.138
773.138
773.138
773.138
773.138
773.138
773.138
773.138
773.138
773.138
773.138
773.138
773.138
773.138
773.138
773.138
773.138
773.138
773.138
773.138
773.138
773.138
773.138
773.138
773.138
773.138
773.138
773.138
773.139
773.139
773.139
773.139
773.139
773.138
773.138
773.137
773.137
773.137
773.137
773.137
773.137
773.137
773.137
773.137
773.137
773.137
773.137
773.137
773.136
773.135
773.134
773.134
773.134
773.134
773.134
773.134
773.134
773.134
773.134
773.134
773.134
773.133
773.133
773.132
773.132
773.132
773.132
773.131
773.131
773.131
773.131
773.131
773.131
773.131
773.131
773.131
773.131
773.131
773.131
773.131
773.131
773.131
773.131
773.131
773.131
773.131
773.131
773.131
773.131
773.131
773.131
773.132
773.132
773.132
773.132
773.132
773.132
773.132
773.132
773.132
773.132
773.132
773.132
773.132
773.132
773.132
773.133
773.133
773.133
773.133
773.133
773.133
773.134
773.134
773.134
773.134
773.135
773.135
773.135
773.136
773.136
773.137
773.137
773.138
773.138
773.139
773.139
773.14
773.14
773.141
773.142
773.143
773.144
773.144
773.145
773.146
773.147
773.149
773.15
773.151
773.152
773.154
773.155
773.157
773.158
773.16
773.162
773.164
773.165
773.167
773.17
773.172
773.174
773.177
773.179
773.182
773.184
773.187
773.19
773.193
773.196
773.2
773.203
773.207
773.21
773.214
773.218
773.222
773.227
773.231
773.235
773.24
773.245
773.25
773.255
773.26
773.266
773.271
773.277
773.283
773.289
773.295
773.302
773.308
773.315
773.322
773.329
773.336
773.343
773.351
773.359
773.367
773.375
773.383
773.393
773.4
773.415
773.422
773.556
773.138
773.138
773.138
773.138
773.138
773.138
773.138
773.138
773.138
773.138
773.138
773.138
773.138
773.138
773.138
773.138
773.138
773.138
773.138
773.138
773.138
773.138
773.138
773.138
773.138
773.138
773.138
773.138
773.138
773.139
773.139
773.139
773.139
773.139
773.138
773.138
773.137
773.137
773.137
773.137
773.137
773.137
773.137
773.137
773.137
773.137
773.137
773.137
773.137
773.136
773.135
773.134
773.134
773.134
773.134
773.134
773.134
773.134
773.134
773.134
773.134
773.133
773.133
773.133
773.132
773.132
773.132
773.132
773.131
773.131
773.131
773.131
773.131
773.131
773.131
773.131
773.131
773.131
773.131
773.131
773.131
773.131
773.131
773.131
773.131
773.131
773.131
773.131
773.131
773.131
773.131
773.131
773.132
773.132
773.132
773.132
773.132
773.132
773.132
773.132
773.132
773.132
773.132
773.132
773.132
773.132
773.132
773.133
773.133
773.133
773.133
773.133
773.133
773.134
773.134
773.134
773.134
773.135
773.135
773.135
773.136
773.136
773.137
773.137
773.138
773.138
773.139
773.139
773.14
773.14
773.141
773.142
773.143
773.144
773.144
773.145
773.146
773.147
773.149
773.15
773.151
773.152
773.154
773.155
773.157
773.158
773.16
773.162
773.163
773.165
773.167
773.17
773.172
773.174
773.177
773.179
773.182
773.184
773.187
773.19
773.193
773.196
773.2
773.203
773.207
773.21
773.214
773.218
773.222
773.227
773.231
773.235
773.24
773.245
773.25
773.255
773.26
773.266
773.271
773.277
773.283
773.289
773.295
773.302
773.308
773.315
773.322
773.329
773.336
773.343
773.351
773.359
773.367
773.375
773.383
773.393
773.4
773.415
773.422
773.552
773.138
773.138
773.138
773.138
773.138
773.138
773.138
773.138
773.138
773.138
773.138
773.138
773.138
773.138
773.138
773.138
773.138
773.138
773.138
773.138
773.138
773.138
773.138
773.138
773.138
773.138
773.138
773.138
773.138
773.139
773.139
773.139
773.139
773.139
773.138
773.138
773.137
773.137
773.137
773.137
773.137
773.137
773.137
773.137
773.137
773.137
773.137
773.137
773.137
773.136
773.135
773.134
773.134
773.134
773.134
773.134
773.134
773.134
773.134
773.134
773.134
773.134
773.133
773.133
773.132
773.132
773.132
773.132
773.131
773.131
773.131
773.131
773.131
773.131
773.131
773.131
773.131
773.131
773.131
773.131
773.131
773.131
773.131
773.131
773.131
773.131
773.131
773.131
773.131
773.131
773.131
773.131
773.132
773.132
773.132
773.132
773.132
773.132
773.132
773.132
773.132
773.132
773.132
773.132
773.132
773.132
773.132
773.133
773.133
773.133
773.133
773.133
773.133
773.134
773.134
773.134
773.134
773.135
773.135
773.135
773.136
773.136
773.137
773.137
773.138
773.138
773.139
773.139
773.14
773.14
773.141
773.142
773.143
773.144
773.144
773.145
773.146
773.147
773.149
773.15
773.151
773.152
773.154
773.155
773.157
773.158
773.16
773.162
773.163
773.165
773.167
773.17
773.172
773.174
773.177
773.179
773.182
773.184
773.187
773.19
773.193
773.196
773.2
773.203
773.207
773.21
773.214
773.218
773.222
773.227
773.231
773.235
773.24
773.245
773.25
773.255
773.26
773.266
773.271
773.277
773.283
773.289
773.295
773.302
773.308
773.315
773.322
773.329
773.336
773.343
773.351
773.359
773.367
773.375
773.383
773.393
773.4
773.414
773.422
773.522
773.138
773.138
773.138
773.138
773.138
773.138
773.138
773.138
773.138
773.138
773.138
773.138
773.138
773.138
773.138
773.138
773.138
773.138
773.138
773.138
773.138
773.138
773.138
773.138
773.138
773.138
773.138
773.138
773.138
773.139
773.139
773.139
773.139
773.139
773.138
773.138
773.137
773.137
773.137
773.137
773.137
773.137
773.137
773.137
773.137
773.137
773.137
773.137
773.137
773.136
773.135
773.134
773.134
773.134
773.134
773.134
773.134
773.134
773.134
773.134
773.134
773.134
773.133
773.133
773.132
773.132
773.132
773.132
773.131
773.131
773.131
773.131
773.131
773.131
773.131
773.131
773.131
773.131
773.131
773.131
773.131
773.131
773.131
773.131
773.131
773.131
773.131
773.131
773.131
773.131
773.131
773.131
773.132
773.132
773.132
773.132
773.132
773.132
773.132
773.132
773.132
773.132
773.132
773.132
773.132
773.132
773.132
773.133
773.133
773.133
773.133
773.133
773.133
773.134
773.134
773.134
773.134
773.135
773.135
773.135
773.136
773.136
773.137
773.137
773.138
773.138
773.139
773.139
773.14
773.14
773.141
773.142
773.143
773.144
773.144
773.145
773.146
773.147
773.149
773.15
773.151
773.152
773.154
773.155
773.157
773.158
773.16
773.162
773.163
773.165
773.167
773.17
773.172
773.174
773.177
773.179
773.182
773.184
773.187
773.19
773.193
773.196
773.2
773.203
773.207
773.21
773.214
773.218
773.222
773.227
773.231
773.235
773.24
773.245
773.25
773.255
773.26
773.266
773.271
773.277
773.283
773.289
773.295
773.302
773.308
773.315
773.322
773.329
773.336
773.343
773.351
773.359
773.367
773.375
773.383
773.393
773.399
773.413
773.419
773.487
773.138
773.138
773.138
773.138
773.138
773.138
773.138
773.138
773.138
773.138
773.138
773.138
773.138
773.138
773.138
773.138
773.138
773.138
773.138
773.138
773.138
773.138
773.138
773.138
773.138
773.138
773.138
773.138
773.138
773.139
773.139
773.139
773.139
773.139
773.138
773.138
773.137
773.137
773.137
773.137
773.137
773.137
773.137
773.137
773.137
773.137
773.137
773.137
773.137
773.136
773.135
773.134
773.134
773.134
773.134
773.134
773.134
773.134
773.134
773.134
773.134
773.134
773.133
773.133
773.132
773.132
773.132
773.132
773.131
773.131
773.131
773.131
773.131
773.131
773.131
773.131
773.131
773.131
773.131
773.131
773.131
773.131
773.131
773.131
773.131
773.131
773.131
773.131
773.131
773.131
773.131
773.131
773.132
773.132
773.132
773.132
773.132
773.132
773.132
773.132
773.132
773.132
773.132
773.132
773.132
773.132
773.132
773.133
773.133
773.133
773.133
773.133
773.133
773.134
773.134
773.134
773.134
773.135
773.135
773.135
773.136
773.136
773.137
773.137
773.138
773.138
773.139
773.139
773.14
773.14
773.141
773.142
773.143
773.144
773.144
773.145
773.146
773.147
773.149
773.15
773.151
773.152
773.154
773.155
773.157
773.158
773.16
773.162
773.163
773.165
773.167
773.17
773.172
773.174
773.177
773.179
773.182
773.184
773.187
773.19
773.193
773.196
773.2
773.203
773.207
773.21
773.214
773.218
773.222
773.227
773.231
773.235
773.24
773.245
773.25
773.255
773.26
773.266
773.271
773.277
773.283
773.289
773.295
773.302
773.308
773.315
773.322
773.329
773.336
773.343
773.351
773.359
773.367
773.375
773.383
773.392
773.4
773.409
773.418
773.412
773.138
773.138
773.138
773.138
773.138
773.138
773.138
773.138
773.138
773.138
773.138
773.138
773.138
773.138
773.138
773.138
773.138
773.138
773.138
773.138
773.138
773.138
773.138
773.138
773.138
773.138
773.138
773.138
773.138
773.139
773.139
773.139
773.139
773.139
773.138
773.138
773.137
773.137
773.137
773.137
773.137
773.137
773.137
773.137
773.137
773.137
773.137
773.137
773.137
773.136
773.135
773.134
773.134
773.134
773.134
773.134
773.134
773.134
773.134
773.134
773.134
773.134
773.133
773.133
773.132
773.132
773.132
773.132
773.131
773.131
773.131
773.131
773.131
773.131
773.131
773.131
773.131
773.131
773.131
773.131
773.131
773.131
773.131
773.131
773.131
773.131
773.131
773.131
773.131
773.131
773.131
773.131
773.132
773.132
773.132
773.132
773.132
773.132
773.132
773.132
773.132
773.132
773.132
773.132
773.132
773.132
773.132
773.133
773.133
773.133
773.133
773.133
773.133
773.134
773.134
773.134
773.134
773.135
773.135
773.135
773.136
773.136
773.137
773.137
773.138
773.138
773.139
773.139
773.14
773.14
773.141
773.142
773.143
773.144
773.144
773.145
773.146
773.147
773.149
773.15
773.151
773.152
773.154
773.155
773.157
773.158
773.16
773.162
773.163
773.165
773.167
773.17
773.172
773.174
773.177
773.179
773.182
773.184
773.187
773.19
773.193
773.196
773.2
773.203
773.207
773.21
773.214
773.218
773.222
773.227
773.231
773.235
773.24
773.245
773.25
773.255
773.26
773.266
773.271
773.277
773.283
773.289
773.295
773.302
773.308
773.315
773.322
773.329
773.336
773.343
773.351
773.359
773.367
773.375
773.384
773.39
773.402
773.406
773.415
773.304
773.138
773.138
773.138
773.138
773.138
773.138
773.138
773.138
773.138
773.138
773.138
773.138
773.138
773.138
773.138
773.138
773.138
773.138
773.138
773.138
773.138
773.138
773.138
773.138
773.138
773.138
773.138
773.138
773.138
773.139
773.139
773.139
773.139
773.139
773.138
773.138
773.137
773.137
773.137
773.137
773.137
773.137
773.137
773.137
773.137
773.137
773.137
773.137
773.137
773.136
773.135
773.134
773.134
773.134
773.134
773.134
773.134
773.134
773.134
773.134
773.134
773.133
773.133
773.133
773.132
773.132
773.132
773.132
773.131
773.131
773.131
773.131
773.131
773.131
773.131
773.131
773.131
773.131
773.131
773.131
773.131
773.131
773.131
773.131
773.131
773.131
773.131
773.131
773.131
773.131
773.131
773.131
773.132
773.132
773.132
773.132
773.132
773.132
773.132
773.132
773.132
773.132
773.132
773.132
773.132
773.132
773.132
773.133
773.133
773.133
773.133
773.133
773.133
773.134
773.134
773.134
773.134
773.135
773.135
773.135
773.136
773.136
773.137
773.137
773.138
773.138
773.139
773.139
773.14
773.14
773.141
773.142
773.143
773.144
773.144
773.145
773.146
773.147
773.149
773.15
773.151
773.152
773.154
773.155
773.157
773.158
773.16
773.162
773.163
773.165
773.167
773.17
773.172
773.174
773.177
773.179
773.182
773.184
773.187
773.19
773.193
773.196
773.2
773.203
773.207
773.21
773.214
773.218
773.222
773.227
773.231
773.235
773.24
773.245
773.25
773.255
773.26
773.266
773.271
773.277
773.283
773.289
773.295
773.302
773.308
773.315
773.322
773.329
773.336
773.343
773.351
773.359
773.367
773.374
773.384
773.39
773.403
773.405
773.424
773.154
773.138
773.138
773.138
773.138
773.138
773.138
773.138
773.138
773.138
773.138
773.138
773.138
773.138
773.138
773.138
773.138
773.138
773.138
773.138
773.138
773.138
773.138
773.138
773.138
773.138
773.138
773.138
773.138
773.138
773.139
773.139
773.139
773.139
773.139
773.138
773.138
773.137
773.137
773.137
773.137
773.137
773.137
773.137
773.137
773.137
773.137
773.137
773.137
773.137
773.136
773.135
773.134
773.134
773.134
773.134
773.134
773.134
773.134
773.134
773.134
773.134
773.134
773.133
773.133
773.132
773.132
773.132
773.132
773.131
773.131
773.131
773.131
773.131
773.131
773.131
773.131
773.131
773.131
773.131
773.131
773.131
773.131
773.131
773.131
773.131
773.131
773.131
773.131
773.131
773.131
773.131
773.131
773.132
773.132
773.132
773.132
773.132
773.132
773.132
773.132
773.132
773.132
773.132
773.132
773.132
773.132
773.132
773.133
773.133
773.133
773.133
773.133
773.133
773.134
773.134
773.134
773.134
773.135
773.135
773.135
773.136
773.136
773.137
773.137
773.138
773.138
773.139
773.139
773.14
773.14
773.141
773.142
773.143
773.144
773.144
773.145
773.146
773.147
773.149
773.15
773.151
773.152
773.154
773.155
773.157
773.158
773.16
773.162
773.164
773.165
773.167
773.17
773.172
773.174
773.177
773.179
773.182
773.184
773.187
773.19
773.193
773.196
773.2
773.203
773.207
773.21
773.214
773.218
773.222
773.227
773.231
773.235
773.24
773.245
773.25
773.255
773.26
773.266
773.271
773.277
773.283
773.289
773.295
773.302
773.308
773.315
773.322
773.329
773.336
773.343
773.351
773.359
773.367
773.374
773.384
773.39
773.403
773.404
773.431
773.08
773.145
773.145
773.145
773.145
773.145
773.145
773.145
773.145
773.145
773.145
773.145
773.145
773.145
773.144
773.144
773.144
773.144
773.144
773.144
773.144
773.144
773.144
773.144
773.144
773.144
773.144
773.144
773.144
773.144
773.145
773.145
773.145
773.145
773.145
773.144
773.143
773.143
773.143
773.143
773.143
773.143
773.143
773.143
773.143
773.143
773.143
773.143
773.142
773.142
773.141
773.14
773.14
773.139
773.139
773.139
773.139
773.139
773.139
773.139
773.139
773.139
773.138
773.138
773.137
773.137
773.136
773.136
773.136
773.136
773.136
773.136
773.136
773.136
773.136
773.136
773.136
773.136
773.136
773.136
773.136
773.136
773.136
773.136
773.136
773.136
773.136
773.136
773.136
773.136
773.136
773.136
773.136
773.136
773.136
773.136
773.136
773.136
773.136
773.136
773.136
773.136
773.136
773.137
773.137
773.137
773.137
773.137
773.137
773.137
773.137
773.138
773.138
773.138
773.138
773.138
773.139
773.139
773.139
773.14
773.14
773.14
773.141
773.141
773.141
773.142
773.142
773.143
773.144
773.144
773.145
773.146
773.146
773.147
773.148
773.149
773.15
773.151
773.152
773.153
773.154
773.155
773.157
773.158
773.16
773.161
773.163
773.164
773.166
773.168
773.17
773.172
773.174
773.176
773.179
773.181
773.183
773.186
773.189
773.192
773.195
773.198
773.201
773.204
773.208
773.211
773.215
773.219
773.223
773.227
773.231
773.235
773.24
773.244
773.249
773.254
773.259
773.265
773.27
773.276
773.281
773.287
773.293
773.3
773.306
773.312
773.319
773.326
773.333
773.34
773.348
773.356
773.363
773.371
773.379
773.389
773.394
773.408
773.408
773.443
773.011
773.532
773.551
773.566
773.572
773.577
773.582
773.584
773.587
773.589
773.591
773.592
773.594
773.595
773.595
773.595
773.594
773.592
773.586
773.576
773.555
773.528
773.542
773.551
773.555
773.559
773.561
773.563
773.564
773.565
773.566
773.567
773.568
773.569
773.569
773.569
773.567
773.565
773.559
773.55
773.531
773.526
773.541
773.552
773.556
773.56
773.563
773.566
773.568
773.569
773.571
773.572
773.572
773.573
773.572
773.571
773.568
773.564
773.557
773.546
773.528
773.503
773.511
773.515
773.518
773.521
773.524
773.527
773.53
773.532
773.536
773.539
773.542
773.546
773.549
773.553
773.555
773.555
773.552
773.545
773.534
773.476
773.486
773.495
773.502
773.507
773.511
773.515
773.515
773.515
773.513
773.51
773.507
773.502
773.496
773.491
773.484
773.479
773.473
773.469
773.466
773.419
773.417
773.411
773.407
773.405
773.405
773.407
773.41
773.414
773.42
773.427
773.437
773.449
773.459
773.472
773.483
773.496
773.504
773.514
773.519
773.355
773.352
773.354
773.357
773.359
773.358
773.359
773.354
773.352
773.344
773.338
773.329
773.323
773.313
773.308
773.303
773.304
773.307
773.316
773.326
773.266
773.244
773.225
773.215
773.21
773.208
773.209
773.212
773.217
773.226
773.238
773.25
773.266
773.282
773.302
773.317
773.346
773.364
773.397
773.424
773.209
773.188
773.165
773.152
773.141
773.134
773.127
773.124
773.12
773.12
773.122
773.125
773.131
773.139
773.15
773.161
773.178
773.201
773.233
773.273
773.177
773.145
773.109
773.096
773.087
773.088
773.094
773.097
773.11
773.123
773.141
773.158
773.18
773.201
773.225
773.249
773.279
773.313
773.354
773.398
773.494
773.479
773.484
773.487
773.494
773.503
773.511
773.52
773.529
773.538
773.548
773.557
773.567
773.577
773.586
773.596
773.606
773.616
773.626
773.636
773.647
773.657
773.668
773.679
773.691
773.702
773.713
773.724
773.736
773.748
773.759
773.771
773.783
773.796
773.808
773.82
773.833
773.846
773.859
773.872
773.885
773.898
773.911
773.924
773.938
773.952
773.966
773.981
773.995
774.009
774.024
774.039
774.053
774.068
774.083
774.098
774.114
774.129
774.145
774.161
774.177
774.193
774.209
774.225
774.241
774.258
774.274
774.291
774.308
774.325
774.342
774.358
774.373
774.388
774.404
774.42
774.437
774.455
774.471
774.485
774.499
774.524
774.578
774.732
775.217
776.078
776.921
777.648
778.207
778.574
778.761
778.814
778.791
778.577
777.806
776.802
775.991
775.396
775.004
774.782
774.682
774.656
774.66
774.697
774.791
774.877
774.945
774.999
775.042
775.078
775.109
775.137
775.163
775.188
775.213
775.237
775.261
775.284
775.308
775.332
775.356
775.38
775.404
775.428
775.453
775.477
775.502
775.526
775.551
775.576
775.6
775.625
775.65
775.676
775.701
775.726
775.752
775.778
775.803
775.829
775.855
775.881
775.907
775.934
775.96
775.986
776.013
776.04
776.066
776.093
776.12
776.147
776.174
776.202
776.229
776.256
776.284
776.311
776.339
776.367
776.395
776.423
776.451
776.479
776.507
776.535
776.563
776.592
776.62
776.649
776.677
776.706
776.735
776.764
776.793
776.821
776.851
776.88
776.909
776.938
776.967
776.996
777.026
777.055
777.086
777.113
777.146
777.171
777.206
777.23
777.266
777.289
777.327
777.348
777.387
777.407
777.447
777.465
777.52
777.421
773.477
773.464
773.469
773.472
773.479
773.488
773.497
773.505
773.514
773.523
773.533
773.542
773.552
773.562
773.571
773.581
773.591
773.601
773.611
773.621
773.632
773.642
773.653
773.664
773.675
773.686
773.698
773.709
773.721
773.732
773.744
773.756
773.768
773.78
773.792
773.805
773.817
773.83
773.843
773.856
773.869
773.882
773.895
773.909
773.922
773.936
773.95
773.964
773.979
773.993
774.008
774.023
774.037
774.052
774.067
774.082
774.098
774.113
774.129
774.144
774.16
774.176
774.193
774.209
774.225
774.242
774.259
774.276
774.293
774.309
774.326
774.343
774.36
774.377
774.394
774.412
774.431
774.448
774.463
774.475
774.481
774.484
774.488
774.492
774.497
774.503
774.514
774.537
774.601
774.744
774.903
775.046
775.157
775.229
775.264
775.269
775.254
775.173
775.055
774.974
774.93
774.916
774.916
774.92
774.937
774.969
775.001
775.031
775.059
775.086
775.111
775.136
775.161
775.185
775.209
775.233
775.256
775.28
775.304
775.328
775.352
775.376
775.4
775.424
775.448
775.473
775.497
775.522
775.546
775.571
775.596
775.621
775.646
775.671
775.697
775.722
775.748
775.773
775.799
775.825
775.851
775.877
775.903
775.929
775.956
775.982
776.009
776.035
776.062
776.089
776.116
776.143
776.17
776.197
776.225
776.252
776.279
776.307
776.335
776.362
776.39
776.418
776.446
776.474
776.503
776.531
776.559
776.587
776.616
776.644
776.673
776.702
776.731
776.759
776.788
776.817
776.846
776.875
776.905
776.934
776.963
776.992
777.022
777.05
777.082
777.108
777.142
777.167
777.202
777.226
777.262
777.285
777.322
777.344
777.383
777.403
777.443
777.461
777.513
777.442
773.479
773.467
773.472
773.475
773.482
773.491
773.499
773.508
773.517
773.526
773.535
773.545
773.555
773.564
773.574
773.584
773.594
773.604
773.614
773.624
773.635
773.645
773.656
773.667
773.678
773.689
773.701
773.712
773.723
773.735
773.747
773.759
773.771
773.783
773.795
773.808
773.82
773.833
773.846
773.859
773.872
773.885
773.898
773.912
773.925
773.939
773.953
773.967
773.982
773.996
774.011
774.025
774.04
774.055
774.07
774.085
774.101
774.116
774.131
774.147
774.163
774.179
774.196
774.212
774.228
774.245
774.262
774.279
774.296
774.313
774.33
774.347
774.364
774.381
774.398
774.415
774.433
774.452
774.471
774.489
774.501
774.505
774.502
774.474
774.413
774.364
774.338
774.332
774.332
774.337
774.351
774.392
774.497
774.618
774.726
774.812
774.876
774.92
774.949
774.965
774.973
774.977
774.982
774.987
774.996
775.011
775.028
775.048
775.07
775.092
775.115
775.139
775.162
775.186
775.209
775.233
775.257
775.28
775.304
775.328
775.352
775.376
775.4
775.424
775.448
775.473
775.497
775.522
775.546
775.571
775.596
775.621
775.646
775.671
775.697
775.722
775.748
775.773
775.799
775.825
775.851
775.877
775.903
775.929
775.956
775.982
776.009
776.035
776.062
776.089
776.116
776.143
776.17
776.197
776.225
776.252
776.279
776.307
776.335
776.362
776.39
776.418
776.446
776.474
776.503
776.531
776.559
776.587
776.616
776.644
776.673
776.702
776.731
776.759
776.788
776.817
776.846
776.875
776.905
776.934
776.963
776.992
777.022
777.05
777.082
777.108
777.142
777.167
777.202
777.226
777.262
777.285
777.322
777.344
777.383
777.403
777.443
777.461
777.51
777.472
773.501
773.498
773.503
773.509
773.517
773.526
773.535
773.544
773.553
773.562
773.572
773.581
773.591
773.601
773.61
773.62
773.63
773.64
773.65
773.661
773.671
773.681
773.692
773.703
773.714
773.725
773.737
773.748
773.76
773.771
773.783
773.795
773.807
773.819
773.832
773.844
773.857
773.869
773.882
773.895
773.908
773.921
773.935
773.948
773.962
773.975
773.989
774.004
774.018
774.033
774.047
774.062
774.077
774.091
774.106
774.121
774.137
774.152
774.168
774.183
774.199
774.215
774.231
774.248
774.264
774.28
774.297
774.313
774.33
774.347
774.363
774.379
774.395
774.411
774.427
774.444
774.462
774.481
774.5
774.514
774.522
774.522
774.512
774.47
774.421
774.389
774.376
774.375
774.378
774.385
774.403
774.451
774.53
774.609
774.681
774.742
774.792
774.832
774.864
774.891
774.913
774.932
774.951
774.969
774.988
775.008
775.029
775.051
775.073
775.096
775.119
775.141
775.165
775.188
775.211
775.234
775.258
775.281
775.305
775.329
775.352
775.376
775.4
775.424
775.449
775.473
775.497
775.522
775.546
775.571
775.596
775.621
775.646
775.671
775.697
775.722
775.748
775.773
775.799
775.825
775.851
775.877
775.903
775.929
775.956
775.982
776.009
776.035
776.062
776.089
776.116
776.143
776.17
776.197
776.225
776.252
776.279
776.307
776.335
776.362
776.39
776.418
776.446
776.474
776.503
776.531
776.559
776.587
776.616
776.644
776.673
776.702
776.731
776.759
776.788
776.817
776.846
776.875
776.904
776.934
776.963
776.992
777.022
777.051
777.081
777.109
777.141
777.168
777.2
777.228
777.26
777.285
777.323
777.344
777.382
777.404
777.442
777.462
777.504
777.513
773.458
773.461
773.463
773.469
773.475
773.483
773.491
773.499
773.508
773.517
773.526
773.536
773.545
773.555
773.565
773.575
773.585
773.595
773.605
773.615
773.626
773.636
773.647
773.658
773.669
773.68
773.691
773.703
773.714
773.726
773.738
773.75
773.762
773.774
773.786
773.798
773.811
773.824
773.837
773.85
773.863
773.876
773.889
773.903
773.917
773.93
773.944
773.958
773.972
773.987
774.001
774.016
774.031
774.046
774.061
774.076
774.092
774.107
774.123
774.139
774.155
774.171
774.187
774.204
774.22
774.237
774.254
774.271
774.288
774.306
774.324
774.341
774.359
774.377
774.396
774.414
774.433
774.451
774.47
774.49
774.51
774.526
774.536
774.539
774.535
774.518
774.508
774.507
774.509
774.516
774.526
774.549
774.584
774.627
774.673
774.717
774.759
774.796
774.829
774.859
774.887
774.912
774.937
774.96
774.984
775.006
775.029
775.052
775.074
775.097
775.12
775.143
775.166
775.189
775.212
775.235
775.258
775.282
775.305
775.329
775.352
775.376
775.4
775.424
775.449
775.473
775.497
775.522
775.546
775.571
775.596
775.621
775.646
775.671
775.697
775.722
775.748
775.773
775.799
775.825
775.851
775.877
775.903
775.929
775.956
775.982
776.009
776.035
776.062
776.089
776.116
776.143
776.17
776.197
776.225
776.252
776.279
776.307
776.335
776.362
776.39
776.418
776.446
776.474
776.502
776.531
776.559
776.587
776.616
776.644
776.673
776.702
776.731
776.759
776.788
776.817
776.846
776.875
776.904
776.934
776.963
776.992
777.022
777.051
777.08
777.111
777.139
777.17
777.199
777.229
777.259
777.288
777.318
777.35
777.376
777.411
777.437
777.468
777.499
777.524
773.536
773.551
773.565
773.578
773.589
773.599
773.608
773.617
773.626
773.635
773.645
773.654
773.664
773.673
773.683
773.693
773.703
773.713
773.724
773.734
773.744
773.755
773.765
773.776
773.787
773.798
773.81
773.821
773.833
773.844
773.856
773.868
773.88
773.892
773.905
773.917
773.93
773.942
773.955
773.968
773.981
773.994
774.007
774.021
774.034
774.048
774.062
774.076
774.09
774.104
774.119
774.133
774.148
774.162
774.177
774.191
774.206
774.221
774.235
774.25
774.265
774.28
774.295
774.31
774.325
774.34
774.354
774.368
774.383
774.397
774.412
774.428
774.443
774.46
774.478
774.496
774.513
774.526
774.534
774.536
774.532
774.518
774.501
774.494
774.494
774.496
774.503
774.513
774.523
774.539
774.566
774.599
774.638
774.677
774.715
774.752
774.786
774.817
774.845
774.872
774.897
774.921
774.945
774.968
774.99
775.012
775.034
775.057
775.079
775.101
775.123
775.145
775.168
775.19
775.213
775.236
775.259
775.282
775.306
775.329
775.353
775.377
775.401
775.425
775.449
775.473
775.497
775.522
775.547
775.571
775.596
775.621
775.646
775.671
775.697
775.722
775.748
775.773
775.799
775.825
775.851
775.877
775.903
775.929
775.956
775.982
776.009
776.035
776.062
776.089
776.116
776.143
776.17
776.197
776.225
776.252
776.279
776.307
776.335
776.362
776.39
776.418
776.446
776.474
776.502
776.531
776.559
776.587
776.616
776.644
776.673
776.702
776.731
776.759
776.788
776.817
776.846
776.875
776.904
776.934
776.963
776.993
777.021
777.052
777.08
777.111
777.138
777.171
777.197
777.231
777.256
777.292
777.315
777.352
777.374
777.412
777.434
777.474
777.495
777.542
773.375
773.394
773.405
773.412
773.42
773.429
773.437
773.446
773.455
773.464
773.473
773.482
773.492
773.501
773.511
773.521
773.531
773.541
773.551
773.562
773.572
773.583
773.594
773.605
773.616
773.627
773.638
773.649
773.661
773.672
773.684
773.696
773.708
773.72
773.733
773.745
773.758
773.77
773.783
773.796
773.809
773.823
773.836
773.85
773.864
773.877
773.891
773.905
773.92
773.934
773.949
773.963
773.978
773.993
774.008
774.023
774.039
774.054
774.07
774.085
774.101
774.117
774.133
774.15
774.167
774.183
774.2
774.217
774.235
774.252
774.27
774.288
774.305
774.323
774.342
774.362
774.382
774.4
774.417
774.436
774.457
774.48
774.504
774.529
774.553
774.574
774.589
774.596
774.596
774.593
774.593
774.595
774.601
774.613
774.644
774.688
774.733
774.776
774.815
774.85
774.882
774.911
774.938
774.963
774.987
775.011
775.033
775.056
775.078
775.101
775.123
775.145
775.168
775.191
775.213
775.236
775.259
775.283
775.306
775.329
775.353
775.377
775.401
775.425
775.449
775.473
775.497
775.522
775.547
775.571
775.596
775.621
775.646
775.671
775.697
775.722
775.748
775.773
775.799
775.825
775.851
775.877
775.903
775.929
775.956
775.982
776.009
776.035
776.062
776.089
776.116
776.143
776.17
776.197
776.225
776.252
776.279
776.307
776.335
776.362
776.39
776.418
776.446
776.474
776.502
776.531
776.559
776.587
776.616
776.644
776.673
776.702
776.731
776.759
776.788
776.817
776.846
776.875
776.904
776.934
776.963
776.993
777.021
777.052
777.08
777.111
777.138
777.171
777.197
777.231
777.256
777.292
777.315
777.352
777.374
777.413
777.434
777.474
777.497
777.543
773.52
773.549
773.565
773.576
773.586
773.595
773.604
773.613
773.622
773.631
773.641
773.65
773.659
773.669
773.678
773.688
773.698
773.709
773.719
773.73
773.74
773.751
773.761
773.772
773.783
773.794
773.805
773.816
773.828
773.84
773.852
773.864
773.876
773.888
773.9
773.912
773.925
773.938
773.95
773.963
773.976
773.989
774.002
774.015
774.028
774.042
774.055
774.069
774.083
774.097
774.112
774.127
774.142
774.157
774.172
774.188
774.203
774.219
774.234
774.249
774.265
774.28
774.296
774.311
774.325
774.339
774.354
774.368
774.383
774.398
774.414
774.432
774.451
774.471
774.49
774.51