/*--------------------------------*- C++ -*----------------------------------*\
| =========                 |                                                 |
| \\      /  F ield         | OpenFOAM: The Open Source CFD Toolbox           |
|  \\    /   O peration     | Version:  3.0.x                                 |
|   \\  /    A nd           | Web:      www.OpenFOAM.org                      |
|    \\/     M anipulation  |                                                 |
\*---------------------------------------------------------------------------*/
FoamFile
{
    version     2.0;
    format      ascii;
    class       surfaceScalarField;
    location    "0.04";
    object      phi;
}
// * * * * * * * * * * * * * * * * * * * * * * * * * * * * * * * * * * * * * //

dimensions      [1 0 -1 0 0 0 0];

internalField   nonuniform List<scalar> 
52430
(
3.90527
0.000243623
3.90509
0.00017612
3.90492
0.000169025
3.90475
0.000170047
3.90458
0.000169876
3.90442
0.000168461
3.90425
0.000165722
3.90409
0.000161006
3.90393
0.000153665
3.90379
0.000143341
3.90366
0.000130098
3.90355
0.000114467
3.90345
9.73685e-05
3.90337
7.99264e-05
3.9033
6.32484e-05
3.90326
4.82348e-05
3.90322
3.5451e-05
3.90319
2.51303e-05
3.90318
1.71981e-05
3.90316
1.13791e-05
3.90316
7.29433e-06
3.90315
4.54471e-06
3.90315
2.76718e-06
3.90315
1.65822e-06
3.90315
9.92251e-07
3.90314
6.05598e-07
3.90314
3.88367e-07
3.90314
2.70116e-07
3.90314
2.07658e-07
3.90314
1.75616e-07
3.90314
1.59633e-07
3.90314
1.51871e-07
3.90314
1.48197e-07
3.90314
1.46501e-07
3.90314
1.45737e-07
3.90314
1.45403e-07
3.90314
1.45259e-07
3.90314
1.45199e-07
3.90314
1.45175e-07
3.90314
1.45166e-07
3.90314
1.45164e-07
3.90314
1.45166e-07
3.90313
1.45163e-07
3.90313
1.45164e-07
3.90313
1.45166e-07
3.90313
1.45166e-07
3.90313
1.45168e-07
3.90313
1.45168e-07
3.90313
1.4517e-07
3.90313
1.45172e-07
3.90313
1.45174e-07
3.90313
1.45174e-07
3.90313
1.45175e-07
3.90313
1.45177e-07
3.90313
1.45179e-07
3.90313
1.45179e-07
3.90313
1.45179e-07
3.90313
1.45183e-07
3.90313
1.45183e-07
3.90313
1.45184e-07
3.90313
1.45184e-07
3.90312
1.45188e-07
3.90312
1.45188e-07
3.90312
1.45188e-07
3.90312
1.45192e-07
3.90312
1.45192e-07
3.90312
1.45194e-07
3.90312
1.45195e-07
3.90312
1.45195e-07
3.90312
1.45195e-07
3.90312
1.45195e-07
3.90312
1.45197e-07
3.90312
1.45199e-07
3.90312
1.45201e-07
3.90312
1.45201e-07
3.90312
1.45203e-07
3.90312
1.45203e-07
3.90312
1.45206e-07
3.90312
1.45208e-07
3.90312
1.45206e-07
3.90311
1.45208e-07
3.90311
1.4521e-07
3.90311
1.45212e-07
3.90311
1.45214e-07
3.90311
1.45214e-07
3.90311
1.45214e-07
3.90311
1.45215e-07
3.90311
1.45217e-07
3.90311
1.45217e-07
3.90311
1.45219e-07
3.90311
1.45219e-07
3.90311
1.45219e-07
3.90311
1.45223e-07
3.90311
1.45221e-07
3.90311
1.45228e-07
3.90311
1.45228e-07
3.90311
1.45226e-07
3.90311
1.45228e-07
3.90311
1.45228e-07
3.9031
1.45232e-07
3.9031
1.4523e-07
3.9031
1.45234e-07
3.9031
1.45235e-07
3.9031
1.45235e-07
3.9031
1.45239e-07
3.9031
1.45241e-07
3.9031
1.45239e-07
3.9031
1.45241e-07
3.9031
1.45241e-07
3.9031
1.45243e-07
3.9031
1.45244e-07
3.9031
1.45248e-07
3.9031
1.45248e-07
3.9031
1.4525e-07
3.9031
1.4525e-07
3.9031
1.45252e-07
3.9031
1.45255e-07
3.90309
1.45257e-07
3.90309
1.45261e-07
3.90309
1.45261e-07
3.90309
1.45261e-07
3.90309
1.45264e-07
3.90309
1.4527e-07
3.90309
1.45275e-07
3.90309
1.45277e-07
3.90309
1.45283e-07
3.90309
1.45288e-07
3.90309
1.45294e-07
3.90309
1.45299e-07
3.90309
1.45314e-07
3.90308
1.45325e-07
3.90308
1.45335e-07
3.90308
1.45352e-07
3.90308
1.45372e-07
3.90308
1.45392e-07
3.90307
1.45419e-07
3.90307
1.45452e-07
3.90307
1.45488e-07
3.90306
1.45532e-07
3.90306
1.45583e-07
3.90305
1.45641e-07
3.90304
1.45714e-07
3.90303
1.45797e-07
3.90302
1.45894e-07
3.90301
1.46007e-07
3.903
1.46136e-07
3.90298
1.46285e-07
3.90296
1.46461e-07
3.90294
1.46663e-07
3.90291
1.46891e-07
3.90288
1.47154e-07
3.90284
1.47453e-07
3.9028
1.47789e-07
3.90275
1.48173e-07
3.9027
1.48606e-07
3.90263
1.4909e-07
3.90256
1.4963e-07
3.90247
1.50234e-07
3.90237
1.50898e-07
3.90226
1.51636e-07
3.90214
1.52444e-07
3.902
1.53328e-07
3.90184
1.54292e-07
3.90166
1.55334e-07
3.90146
1.56457e-07
3.90124
1.57657e-07
3.90099
1.58934e-07
3.90071
1.60284e-07
3.90041
1.61706e-07
3.90007
1.63183e-07
3.8997
1.64711e-07
3.8993
1.66277e-07
3.89886
1.67862e-07
3.89838
1.6945e-07
3.89786
1.71023e-07
3.8973
1.72553e-07
3.8967
1.74015e-07
3.89606
1.75378e-07
3.89537
1.76609e-07
3.89465
1.77673e-07
3.89388
1.78532e-07
3.89308
1.79147e-07
3.89223
1.79474e-07
3.89136
1.79478e-07
3.89045
1.7911e-07
3.88951
1.78336e-07
3.88855
1.77111e-07
3.88757
1.754e-07
3.88658
1.73168e-07
3.88558
1.70388e-07
3.88459
1.67031e-07
3.8836
1.63083e-07
3.88262
1.5853e-07
3.88167
1.53375e-07
3.88075
1.4762e-07
3.87987
1.41285e-07
3.87903
1.34389e-07
3.87826
1.26976e-07
3.87754
1.19086e-07
3.8769
1.10778e-07
3.87634
1.02116e-07
3.87586
9.31759e-08
3.87547
8.40391e-08
3.87518
7.48041e-08
3.87499
6.55582e-08
3.8749
5.64469e-08
3.87491
4.95511e-08
3.87503
3.8699e-08
3.87525
3.03698e-08
3.87557
2.29775e-08
3.87599
1.55014e-08
3.87651
8.50196e-09
3.87711
3.22689e-09
3.8778
-1.8008e-09
3.87856
-5.79894e-09
3.87939
-8.90941e-09
3.88028
-1.16961e-08
3.88123
-1.2622e-08
3.88221
-1.28275e-08
3.88322
-1.22363e-08
3.88425
-1.05247e-08
3.8853
-8.54197e-09
3.88634
-5.09863e-09
3.88738
-9.004e-10
3.88841
3.80533e-09
3.88941
9.17862e-09
3.89039
1.48102e-08
3.89132
2.10803e-08
3.89222
2.78869e-08
3.89307
3.47827e-08
3.89388
4.1844e-08
3.89463
4.88617e-08
3.89532
5.5843e-08
3.89597
6.29916e-08
3.89656
6.98747e-08
3.89709
7.65122e-08
3.89758
8.28513e-08
3.89801
8.87339e-08
3.89839
9.44856e-08
3.89873
9.98316e-08
3.89903
1.04741e-07
3.89928
1.0927e-07
3.8995
1.13207e-07
3.89969
1.16877e-07
3.89984
1.20193e-07
3.89997
1.23126e-07
3.90007
1.25698e-07
3.90016
1.27819e-07
3.90022
1.29656e-07
3.90027
1.31269e-07
3.90031
1.3263e-07
3.90033
1.33768e-07
3.90035
1.34645e-07
3.90035
1.35291e-07
3.90036
1.35857e-07
3.90035
1.3622e-07
3.90035
1.36693e-07
3.90034
1.36883e-07
3.90033
1.37021e-07
3.90032
1.37072e-07
3.9003
1.37106e-07
3.90029
1.37123e-07
3.90027
1.37123e-07
3.90026
1.37043e-07
3.90024
1.36948e-07
3.90023
1.36844e-07
3.90022
1.36763e-07
3.9002
1.36708e-07
3.90019
1.36619e-07
3.90018
1.36504e-07
3.90016
1.36381e-07
3.90015
1.36281e-07
3.90014
1.36208e-07
3.90013
1.36133e-07
3.90012
1.36068e-07
3.90011
1.35895e-07
3.9001
1.3582e-07
3.9001
1.35746e-07
3.90009
1.3568e-07
3.90008
1.35624e-07
3.90008
1.35455e-07
3.90007
1.3538e-07
3.90007
1.35255e-07
3.90007
1.35287e-07
3.90006
1.35167e-07
3.90006
1.35075e-07
3.90006
1.34984e-07
3.90006
1.34904e-07
3.90006
1.34794e-07
3.90007
1.34829e-07
3.90007
1.34669e-07
3.90007
1.34616e-07
3.90008
1.3454e-07
3.90008
1.34478e-07
3.90009
1.3444e-07
3.9001
1.344e-07
3.90011
1.34345e-07
3.90012
1.34292e-07
3.90013
1.34249e-07
3.90014
1.34236e-07
3.90015
1.34216e-07
3.90016
1.34203e-07
3.90018
1.34178e-07
3.90019
1.3416e-07
3.90021
1.3418e-07
3.90022
1.3419e-07
3.90024
1.34212e-07
3.90025
1.3422e-07
3.90027
1.34232e-07
3.90029
1.34267e-07
3.9003
1.34309e-07
3.90032
1.3436e-07
3.90034
1.344e-07
3.90036
1.34438e-07
3.90037
1.34491e-07
3.90039
1.34554e-07
3.90041
1.34622e-07
3.90043
1.34685e-07
3.90044
1.34747e-07
3.90046
1.34811e-07
3.90048
1.34887e-07
3.9005
1.34967e-07
3.90051
1.35044e-07
3.90053
1.35113e-07
3.90055
1.35185e-07
3.90056
1.35264e-07
3.90058
1.35347e-07
3.9006
1.35431e-07
3.90061
1.35502e-07
3.90063
1.35575e-07
3.90064
1.35651e-07
3.90066
1.35729e-07
3.90067
1.35811e-07
3.90069
1.35884e-07
3.9007
1.35949e-07
3.90071
1.36017e-07
3.90073
1.3609e-07
3.90074
1.36164e-07
3.90076
1.3623e-07
3.90077
1.36293e-07
3.90078
1.36353e-07
3.90079
1.36419e-07
3.90081
1.36488e-07
3.90082
1.36552e-07
3.90083
1.3661e-07
3.90084
1.36664e-07
3.90085
1.36721e-07
3.90087
1.36783e-07
3.90088
1.36844e-07
3.90089
1.36904e-07
3.9009
1.36955e-07
3.90091
1.37001e-07
3.90092
1.37054e-07
3.90093
1.37108e-07
3.90094
1.37163e-07
3.90095
1.37208e-07
3.90096
1.3725e-07
3.90097
1.37296e-07
3.90098
1.37346e-07
3.90099
1.37397e-07
3.901
1.37439e-07
3.90101
1.37481e-07
3.90102
1.37521e-07
3.90102
1.37559e-07
3.90103
1.37608e-07
3.90104
1.37652e-07
3.90105
1.37696e-07
3.90106
1.37741e-07
3.90107
1.37758e-07
3.90108
1.37807e-07
3.90108
1.37854e-07
3.90109
1.37899e-07
3.9011
1.37945e-07
3.90111
1.3801e-07
3.90112
1.38107e-07
3.90112
1.38305e-07
3.90113
1.38707e-07
3.90114
1.39467e-07
3.90115
1.41066e-07
3.90115
1.53326e-07
3.90116
1.55191e-07
3.90117
1.88085e-07
3.90117
2.59621e-07
3.90118
4.2879e-07
3.90118
8.32788e-07
3.90119
1.80129e-06
3.90119
4.11892e-06
3.90119
9.66224e-06
3.90117
2.29287e-05
3.90112
5.46808e-05
3.901
0.000130733
3.90069
0.000311911
3.89996
0.000741654
3.8982
0.00176683
3.894
0.00420193
3.88404
0.00996625
3.86045
0.0235914
3.80428
0.056178
3.66414
0.140148
0.378929
3.28522
5.52327
0.000213024
5.52327
0.000170375
5.52328
0.000156141
5.52329
0.000158173
5.5233
0.000158645
5.52331
0.000157317
5.52332
0.000154799
5.52333
0.000150523
5.52334
0.000143828
5.52335
0.000134359
5.52336
0.000122163
5.52336
0.000107709
5.52337
9.18364e-05
5.52337
7.55828e-05
5.52338
5.99837e-05
5.52338
4.58837e-05
5.52338
3.38322e-05
5.52338
2.40639e-05
5.52338
1.65262e-05
5.52338
1.09739e-05
5.52338
7.05998e-06
5.52338
4.41406e-06
5.52338
2.69598e-06
5.52338
1.61953e-06
5.52337
9.70022e-07
5.52337
5.91182e-07
5.52337
3.77321e-07
5.52337
2.60332e-07
5.52337
1.98233e-07
5.52337
1.66214e-07
5.52337
1.50154e-07
5.52337
1.42316e-07
5.52337
1.38584e-07
5.52337
1.36857e-07
5.52337
1.36071e-07
5.52337
1.35723e-07
5.52337
1.35576e-07
5.52337
1.35507e-07
5.52336
1.35486e-07
5.52336
1.35477e-07
5.52336
1.35473e-07
5.52336
1.35471e-07
5.52336
1.35471e-07
5.52336
1.35474e-07
5.52336
1.35477e-07
5.52336
1.35476e-07
5.52336
1.35476e-07
5.52336
1.35477e-07
5.52336
1.3548e-07
5.52336
1.3548e-07
5.52336
1.35482e-07
5.52335
1.35481e-07
5.52335
1.35481e-07
5.52335
1.35486e-07
5.52335
1.35488e-07
5.52335
1.35489e-07
5.52335
1.35487e-07
5.52335
1.35489e-07
5.52335
1.3549e-07
5.52335
1.35495e-07
5.52335
1.35494e-07
5.52335
1.35496e-07
5.52335
1.35496e-07
5.52335
1.35496e-07
5.52334
1.355e-07
5.52334
1.35503e-07
5.52334
1.35503e-07
5.52334
1.35503e-07
5.52334
1.35501e-07
5.52334
1.35502e-07
5.52334
1.35504e-07
5.52334
1.35505e-07
5.52334
1.35506e-07
5.52334
1.35508e-07
5.52334
1.35507e-07
5.52334
1.35511e-07
5.52334
1.35508e-07
5.52334
1.35513e-07
5.52333
1.35514e-07
5.52333
1.35513e-07
5.52333
1.35512e-07
5.52333
1.35517e-07
5.52333
1.35517e-07
5.52333
1.35513e-07
5.52333
1.35517e-07
5.52333
1.35513e-07
5.52333
1.35517e-07
5.52333
1.35523e-07
5.52333
1.35522e-07
5.52333
1.3552e-07
5.52333
1.3552e-07
5.52332
1.35524e-07
5.52332
1.35527e-07
5.52332
1.35525e-07
5.52332
1.35527e-07
5.52332
1.3553e-07
5.52332
1.3553e-07
5.52332
1.35532e-07
5.52332
1.35535e-07
5.52332
1.35534e-07
5.52332
1.35535e-07
5.52332
1.35536e-07
5.52332
1.35536e-07
5.52332
1.35534e-07
5.52332
1.35538e-07
5.52331
1.35542e-07
5.52331
1.35543e-07
5.52331
1.35543e-07
5.52331
1.35543e-07
5.52331
1.35544e-07
5.52331
1.35546e-07
5.52331
1.35549e-07
5.52331
1.35548e-07
5.52331
1.35549e-07
5.52331
1.35553e-07
5.52331
1.35553e-07
5.52331
1.35553e-07
5.52331
1.35557e-07
5.5233
1.35561e-07
5.5233
1.35559e-07
5.5233
1.3556e-07
5.5233
1.35564e-07
5.5233
1.35567e-07
5.5233
1.35576e-07
5.5233
1.3558e-07
5.5233
1.35581e-07
5.5233
1.35589e-07
5.52329
1.35589e-07
5.52329
1.35596e-07
5.52329
1.35607e-07
5.52329
1.3562e-07
5.52329
1.35633e-07
5.52328
1.35648e-07
5.52328
1.35663e-07
5.52328
1.35684e-07
5.52327
1.35709e-07
5.52327
1.35738e-07
5.52326
1.35775e-07
5.52326
1.35812e-07
5.52325
1.35862e-07
5.52324
1.35917e-07
5.52323
1.35981e-07
5.52322
1.3606e-07
5.5232
1.36151e-07
5.52319
1.36255e-07
5.52317
1.36378e-07
5.52314
1.36518e-07
5.52311
1.36685e-07
5.52308
1.36871e-07
5.52304
1.37082e-07
5.523
1.37327e-07
5.52295
1.37605e-07
5.52289
1.37921e-07
5.52282
1.3828e-07
5.52274
1.38685e-07
5.52265
1.39138e-07
5.52254
1.3964e-07
5.52242
1.40203e-07
5.52229
1.40823e-07
5.52213
1.4151e-07
5.52196
1.42265e-07
5.52176
1.4309e-07
5.52153
1.43988e-07
5.52128
1.44966e-07
5.521
1.46013e-07
5.52068
1.47133e-07
5.52033
1.48325e-07
5.51994
1.49586e-07
5.5195
1.50909e-07
5.51903
1.52286e-07
5.51851
1.53714e-07
5.51793
1.55173e-07
5.51731
1.56654e-07
5.51663
1.58136e-07
5.5159
1.59603e-07
5.51511
1.61033e-07
5.51426
1.62395e-07
5.51335
1.63667e-07
5.51239
1.64815e-07
5.51136
1.65803e-07
5.51028
1.66602e-07
5.50914
1.6718e-07
5.50795
1.67484e-07
5.50671
1.67486e-07
5.50542
1.67141e-07
5.5041
1.66417e-07
5.50274
1.65272e-07
5.50136
1.63674e-07
5.49995
1.61592e-07
5.49854
1.58998e-07
5.49713
1.55863e-07
5.49573
1.52178e-07
5.49435
1.4793e-07
5.49301
1.4312e-07
5.4917
1.37751e-07
5.49046
1.31836e-07
5.48928
1.25403e-07
5.48818
1.18489e-07
5.48717
1.11127e-07
5.48626
1.03374e-07
5.48547
9.52941e-08
5.48479
8.69522e-08
5.48424
7.84285e-08
5.48383
6.98146e-08
5.48356
6.11954e-08
5.48343
5.2748e-08
5.48345
4.6065e-08
5.48362
3.62697e-08
5.48393
2.84599e-08
5.48438
2.14013e-08
5.48498
1.44701e-08
5.4857
8.02265e-09
5.48656
3.05226e-09
5.48753
-1.67711e-09
5.48861
-5.32054e-09
5.48979
-8.29459e-09
5.49105
-1.07902e-08
5.49238
-1.17316e-08
5.49376
-1.18953e-08
5.49519
-1.13378e-08
5.49665
-9.76979e-09
5.49813
-7.88168e-09
5.49961
-4.70209e-09
5.50108
-7.68523e-10
5.50253
3.62797e-09
5.50395
8.62019e-09
5.50533
1.38934e-08
5.50665
1.97124e-08
5.50792
2.60652e-08
5.50913
3.25117e-08
5.51026
3.90928e-08
5.51132
4.56348e-08
5.51231
5.21495e-08
5.51322
5.87997e-08
5.51406
6.5239e-08
5.51481
7.14263e-08
5.5155
7.73289e-08
5.51611
8.28286e-08
5.51665
8.81682e-08
5.51713
9.31659e-08
5.51755
9.77525e-08
5.51791
1.01963e-07
5.51822
1.05643e-07
5.51848
1.09051e-07
5.5187
1.12154e-07
5.51888
1.14893e-07
5.51902
1.17286e-07
5.51914
1.19271e-07
5.51923
1.20976e-07
5.5193
1.22483e-07
5.51935
1.23759e-07
5.51939
1.2482e-07
5.51941
1.25635e-07
5.51942
1.26239e-07
5.51943
1.2676e-07
5.51942
1.27116e-07
5.51941
1.27541e-07
5.5194
1.27728e-07
5.51939
1.2786e-07
5.51937
1.27902e-07
5.51935
1.27943e-07
5.51933
1.2796e-07
5.51931
1.27955e-07
5.51929
1.27888e-07
5.51927
1.2779e-07
5.51925
1.27699e-07
5.51923
1.27626e-07
5.51921
1.27577e-07
5.51919
1.27494e-07
5.51917
1.27383e-07
5.51915
1.27271e-07
5.51914
1.2718e-07
5.51912
1.27113e-07
5.51911
1.27045e-07
5.51909
1.26976e-07
5.51908
1.26822e-07
5.51907
1.26753e-07
5.51906
1.26682e-07
5.51905
1.26623e-07
5.51904
1.26566e-07
5.51903
1.26412e-07
5.51903
1.2634e-07
5.51902
1.26232e-07
5.51902
1.26253e-07
5.51901
1.26147e-07
5.51901
1.26055e-07
5.51901
1.25971e-07
5.51901
1.25898e-07
5.51901
1.25801e-07
5.51902
1.2582e-07
5.51902
1.25681e-07
5.51903
1.25629e-07
5.51903
1.25558e-07
5.51904
1.25503e-07
5.51905
1.2546e-07
5.51906
1.25426e-07
5.51908
1.25377e-07
5.51909
1.25328e-07
5.5191
1.25287e-07
5.51912
1.25277e-07
5.51914
1.25257e-07
5.51915
1.25243e-07
5.51917
1.2522e-07
5.51919
1.25205e-07
5.51921
1.25217e-07
5.51924
1.25235e-07
5.51926
1.2525e-07
5.51928
1.25255e-07
5.5193
1.25268e-07
5.51933
1.25302e-07
5.51935
1.2534e-07
5.51938
1.25388e-07
5.5194
1.25426e-07
5.51943
1.25462e-07
5.51945
1.25512e-07
5.51947
1.2557e-07
5.5195
1.25635e-07
5.51952
1.2569e-07
5.51955
1.25748e-07
5.51957
1.25809e-07
5.5196
1.25879e-07
5.51962
1.2595e-07
5.51965
1.26024e-07
5.51967
1.26087e-07
5.5197
1.26154e-07
5.51972
1.26229e-07
5.51974
1.26305e-07
5.51976
1.26386e-07
5.51979
1.26454e-07
5.51981
1.2652e-07
5.51983
1.26592e-07
5.51985
1.26664e-07
5.51987
1.26739e-07
5.51989
1.26807e-07
5.51991
1.26869e-07
5.51993
1.26932e-07
5.51995
1.27002e-07
5.51997
1.27069e-07
5.51999
1.27131e-07
5.52001
1.2719e-07
5.52003
1.27249e-07
5.52004
1.27307e-07
5.52006
1.2737e-07
5.52008
1.27429e-07
5.5201
1.27486e-07
5.52011
1.27537e-07
5.52013
1.27588e-07
5.52014
1.27646e-07
5.52016
1.27706e-07
5.52018
1.27759e-07
5.52019
1.27806e-07
5.52021
1.27849e-07
5.52022
1.27899e-07
5.52024
1.27951e-07
5.52025
1.28e-07
5.52026
1.28041e-07
5.52028
1.28084e-07
5.52029
1.28125e-07
5.52031
1.28171e-07
5.52032
1.28219e-07
5.52033
1.28261e-07
5.52034
1.28298e-07
5.52036
1.28334e-07
5.52037
1.28369e-07
5.52038
1.28414e-07
5.5204
1.28456e-07
5.52041
1.28498e-07
5.52042
1.28538e-07
5.52043
1.28559e-07
5.52044
1.28603e-07
5.52045
1.28648e-07
5.52047
1.28698e-07
5.52048
1.28757e-07
5.52049
1.28862e-07
5.5205
1.29042e-07
5.52051
1.2946e-07
5.52052
1.30362e-07
5.52053
1.32135e-07
5.52054
1.35698e-07
5.52055
1.6578e-07
5.52056
1.69577e-07
5.52057
2.48993e-07
5.52058
4.21007e-07
5.52059
8.28029e-07
5.5206
1.79942e-06
5.5206
4.12942e-06
5.52061
9.71012e-06
5.5206
2.30475e-05
5.52058
5.49722e-05
5.52051
0.00013138
5.52034
0.000314386
5.51991
0.000750428
5.51887
0.00178462
5.51639
0.00425196
5.51049
0.0101133
5.49647
0.0239914
5.46327
0.0568063
5.38419
0.135261
5.18819
0.336156
0.869109
4.69802
7.81107
0.000176103
7.81108
0.000158674
7.8111
0.000138904
7.81111
0.000141297
7.81113
0.000142549
7.81114
0.000141379
7.81116
0.000139148
7.81117
0.000135447
7.81118
0.000129617
7.8112
0.000121319
7.81121
0.000110573
7.81122
9.77742e-05
7.81122
8.36447e-05
7.81123
6.91005e-05
7.81123
5.5068e-05
7.81124
4.23094e-05
7.81124
3.13444e-05
7.81124
2.24048e-05
7.81124
1.54657e-05
7.81124
1.03237e-05
7.81124
6.67674e-06
7.81124
4.19567e-06
7.81123
2.57433e-06
7.81123
1.55212e-06
7.81123
9.31166e-07
7.81123
5.66574e-07
7.81123
3.59355e-07
7.81123
2.45218e-07
7.81123
1.84207e-07
7.81123
1.52526e-07
7.81123
1.36522e-07
7.81122
1.28652e-07
7.81122
1.24881e-07
7.81122
1.2312e-07
7.81122
1.22312e-07
7.81122
1.21953e-07
7.81122
1.21798e-07
7.81122
1.21731e-07
7.81122
1.21704e-07
7.81122
1.21695e-07
7.81122
1.21691e-07
7.81121
1.21689e-07
7.81121
1.21689e-07
7.81121
1.21691e-07
7.81121
1.21691e-07
7.81121
1.21692e-07
7.81121
1.21693e-07
7.81121
1.21693e-07
7.81121
1.21696e-07
7.81121
1.21697e-07
7.8112
1.21698e-07
7.8112
1.21697e-07
7.8112
1.21698e-07
7.8112
1.217e-07
7.8112
1.21704e-07
7.8112
1.21703e-07
7.8112
1.21702e-07
7.8112
1.21705e-07
7.8112
1.21705e-07
7.8112
1.21707e-07
7.81119
1.21708e-07
7.81119
1.21709e-07
7.81119
1.2171e-07
7.81119
1.21712e-07
7.81119
1.21713e-07
7.81119
1.21715e-07
7.81119
1.21714e-07
7.81119
1.21716e-07
7.81119
1.21713e-07
7.81118
1.21716e-07
7.81118
1.21719e-07
7.81118
1.21717e-07
7.81118
1.21719e-07
7.81118
1.21722e-07
7.81118
1.21721e-07
7.81118
1.21724e-07
7.81118
1.21721e-07
7.81118
1.21724e-07
7.81118
1.21724e-07
7.81117
1.21725e-07
7.81117
1.21725e-07
7.81117
1.21728e-07
7.81117
1.21728e-07
7.81117
1.21725e-07
7.81117
1.21728e-07
7.81117
1.21724e-07
7.81117
1.21727e-07
7.81117
1.21733e-07
7.81116
1.21733e-07
7.81116
1.21733e-07
7.81116
1.21732e-07
7.81116
1.21738e-07
7.81116
1.2174e-07
7.81116
1.21736e-07
7.81116
1.21738e-07
7.81116
1.2174e-07
7.81116
1.2174e-07
7.81116
1.21742e-07
7.81115
1.21744e-07
7.81115
1.21743e-07
7.81115
1.21742e-07
7.81115
1.21745e-07
7.81115
1.21745e-07
7.81115
1.21744e-07
7.81115
1.21747e-07
7.81115
1.21751e-07
7.81115
1.21751e-07
7.81114
1.2175e-07
7.81114
1.2175e-07
7.81114
1.21752e-07
7.81114
1.21755e-07
7.81114
1.21756e-07
7.81114
1.21756e-07
7.81114
1.21755e-07
7.81114
1.21761e-07
7.81114
1.21762e-07
7.81113
1.2176e-07
7.81113
1.21763e-07
7.81113
1.21767e-07
7.81113
1.21769e-07
7.81113
1.21769e-07
7.81113
1.2177e-07
7.81113
1.21775e-07
7.81113
1.2178e-07
7.81112
1.21786e-07
7.81112
1.21786e-07
7.81112
1.21791e-07
7.81112
1.21794e-07
7.81112
1.21799e-07
7.81111
1.2181e-07
7.81111
1.21821e-07
7.81111
1.21832e-07
7.8111
1.21846e-07
7.8111
1.21861e-07
7.8111
1.21879e-07
7.81109
1.219e-07
7.81108
1.21926e-07
7.81108
1.21958e-07
7.81107
1.21995e-07
7.81106
1.22037e-07
7.81104
1.22088e-07
7.81103
1.22144e-07
7.81101
1.22215e-07
7.81099
1.22296e-07
7.81097
1.22391e-07
7.81094
1.225e-07
7.8109
1.22629e-07
7.81086
1.22778e-07
7.81082
1.22945e-07
7.81076
1.23134e-07
7.8107
1.23354e-07
7.81063
1.23603e-07
7.81054
1.23888e-07
7.81045
1.2421e-07
7.81033
1.24573e-07
7.8102
1.24983e-07
7.81006
1.25433e-07
7.80989
1.25939e-07
7.80969
1.26497e-07
7.80947
1.27113e-07
7.80922
1.2779e-07
7.80894
1.28533e-07
7.80862
1.2934e-07
7.80827
1.30218e-07
7.80787
1.31158e-07
7.80742
1.32164e-07
7.80692
1.33233e-07
7.80637
1.34367e-07
7.80576
1.35556e-07
7.80509
1.36793e-07
7.80435
1.38074e-07
7.80354
1.39386e-07
7.80266
1.40716e-07
7.8017
1.42048e-07
7.80066
1.43365e-07
7.79954
1.44646e-07
7.79834
1.45871e-07
7.79706
1.47013e-07
7.79569
1.48044e-07
7.79424
1.4893e-07
7.79271
1.49647e-07
7.7911
1.50165e-07
7.78941
1.50439e-07
7.78766
1.50438e-07
7.78584
1.50129e-07
7.78397
1.49476e-07
7.78205
1.48445e-07
7.78009
1.47011e-07
7.77811
1.4514e-07
7.77611
1.42809e-07
7.77412
1.39993e-07
7.77214
1.36682e-07
7.77019
1.32865e-07
7.76828
1.28544e-07
7.76644
1.23722e-07
7.76468
1.18408e-07
7.76301
1.1263e-07
7.76146
1.0642e-07
7.76003
9.98061e-08
7.75875
9.2843e-08
7.75762
8.55857e-08
7.75667
7.80942e-08
7.75589
7.04399e-08
7.75531
6.27042e-08
7.75493
5.49717e-08
7.75475
4.74365e-08
7.75477
4.11669e-08
7.75501
3.27159e-08
7.75544
2.56614e-08
7.75609
1.91544e-08
7.75693
1.29567e-08
7.75796
7.24185e-09
7.75917
2.71712e-09
7.76054
-1.50703e-09
7.76207
-4.71027e-09
7.76373
-7.45422e-09
7.76551
-9.60426e-09
7.76739
-1.05424e-08
7.76935
-1.06629e-08
7.77138
-1.01563e-08
7.77344
-8.76571e-09
7.77553
-7.04767e-09
7.77762
-4.22278e-09
7.77971
-6.31189e-10
7.78176
3.29374e-09
7.78376
7.78937e-09
7.78571
1.24996e-08
7.78759
1.76892e-08
7.78938
2.34209e-08
7.79108
2.9228e-08
7.79269
3.51224e-08
7.79419
4.09977e-08
7.79559
4.68576e-08
7.79687
5.28094e-08
7.79805
5.8616e-08
7.79912
6.4163e-08
7.80009
6.9449e-08
7.80096
7.44089e-08
7.80172
7.91829e-08
7.8024
8.36794e-08
7.80299
8.78067e-08
7.8035
9.15729e-08
7.80394
9.48967e-08
7.80431
9.79421e-08
7.80462
1.0073e-07
7.80487
1.03195e-07
7.80508
1.05339e-07
7.80525
1.07128e-07
7.80538
1.08658e-07
7.80547
1.10006e-07
7.80555
1.11159e-07
7.8056
1.12107e-07
7.80563
1.12841e-07
7.80564
1.13386e-07
7.80565
1.1385e-07
7.80564
1.14186e-07
7.80563
1.14546e-07
7.80561
1.14724e-07
7.80559
1.14848e-07
7.80557
1.14879e-07
7.80554
1.14921e-07
7.80551
1.1494e-07
7.80548
1.14928e-07
7.80545
1.14876e-07
7.80542
1.14782e-07
7.80539
1.14706e-07
7.80537
1.14641e-07
7.80534
1.14593e-07
7.80531
1.1452e-07
7.80529
1.1442e-07
7.80526
1.14321e-07
7.80524
1.1424e-07
7.80522
1.14179e-07
7.8052
1.14117e-07
7.80518
1.14052e-07
7.80516
1.13921e-07
7.80514
1.13857e-07
7.80513
1.13793e-07
7.80511
1.13738e-07
7.8051
1.13685e-07
7.80509
1.13555e-07
7.80508
1.13483e-07
7.80507
1.13397e-07
7.80507
1.13402e-07
7.80506
1.13314e-07
7.80506
1.13229e-07
7.80506
1.13156e-07
7.80506
1.13087e-07
7.80506
1.13008e-07
7.80507
1.13011e-07
7.80507
1.12901e-07
7.80508
1.12847e-07
7.80509
1.12786e-07
7.8051
1.12735e-07
7.80512
1.12695e-07
7.80513
1.12664e-07
7.80515
1.1262e-07
7.80517
1.12578e-07
7.80519
1.12542e-07
7.80521
1.1253e-07
7.80524
1.12516e-07
7.80526
1.12501e-07
7.80529
1.12481e-07
7.80532
1.12469e-07
7.80535
1.12478e-07
7.80538
1.12494e-07
7.80541
1.12507e-07
7.80544
1.12511e-07
7.80547
1.12524e-07
7.80551
1.12552e-07
7.80554
1.12588e-07
7.80558
1.12631e-07
7.80561
1.12665e-07
7.80565
1.12699e-07
7.80568
1.12744e-07
7.80572
1.12794e-07
7.80575
1.12852e-07
7.80579
1.12902e-07
7.80582
1.12952e-07
7.80586
1.13008e-07
7.80589
1.13068e-07
7.80593
1.13134e-07
7.80596
1.132e-07
7.80599
1.13257e-07
7.80603
1.13318e-07
7.80606
1.13384e-07
7.80609
1.13455e-07
7.80613
1.13524e-07
7.80616
1.13587e-07
7.80619
1.13646e-07
7.80622
1.1371e-07
7.80625
1.13776e-07
7.80628
1.13842e-07
7.80631
1.13905e-07
7.80634
1.1396e-07
7.80636
1.14017e-07
7.80639
1.1408e-07
7.80642
1.1414e-07
7.80644
1.14197e-07
7.80647
1.14247e-07
7.8065
1.14302e-07
7.80652
1.14353e-07
7.80655
1.1441e-07
7.80657
1.14463e-07
7.80659
1.14513e-07
7.80662
1.14559e-07
7.80664
1.14605e-07
7.80666
1.14659e-07
7.80669
1.14712e-07
7.80671
1.1476e-07
7.80673
1.14801e-07
7.80675
1.14839e-07
7.80677
1.14883e-07
7.80679
1.14932e-07
7.80681
1.14976e-07
7.80683
1.15015e-07
7.80685
1.15053e-07
7.80687
1.15089e-07
7.80689
1.15129e-07
7.80691
1.15171e-07
7.80693
1.15208e-07
7.80695
1.15244e-07
7.80697
1.15274e-07
7.80698
1.15308e-07
7.807
1.15348e-07
7.80702
1.15385e-07
7.80704
1.15423e-07
7.80705
1.1546e-07
7.80707
1.15478e-07
7.80709
1.15523e-07
7.8071
1.15564e-07
7.80712
1.1562e-07
7.80713
1.15694e-07
7.80715
1.15856e-07
7.80717
1.16152e-07
7.80718
1.16874e-07
7.8072
1.18479e-07
7.80721
1.21689e-07
7.80722
1.27694e-07
7.80724
1.83824e-07
7.80725
1.87954e-07
7.80727
3.33356e-07
7.80728
6.44301e-07
7.80729
1.38088e-06
7.8073
3.13881e-06
7.80731
7.35601e-06
7.80732
1.74559e-05
7.80731
4.15945e-05
7.80728
9.9372e-05
7.80718
0.000237653
7.80694
0.000568812
7.80635
0.0013582
7.80491
0.00323011
7.80148
0.00769664
7.7933
0.018309
7.77386
0.0434409
7.72781
0.102864
7.61844
0.244646
7.35106
0.603548
1.49729
6.72289
34.4797
7.15685e-05
34.4797
8.15908e-05
34.4798
6.95112e-05
34.4799
6.97378e-05
34.4799
7.13413e-05
34.48
7.11146e-05
34.4801
7.00443e-05
34.4801
6.83451e-05
34.4802
6.56522e-05
34.4803
6.17269e-05
34.4803
5.65498e-05
34.4803
5.02905e-05
34.4804
4.32869e-05
34.4804
3.59883e-05
34.4804
2.88662e-05
34.4804
2.23241e-05
34.4805
1.6647e-05
34.4805
1.19761e-05
34.4805
8.31953e-06
34.4805
5.58765e-06
34.4805
3.63529e-06
34.4805
2.29656e-06
34.4805
1.41535e-06
34.4805
8.5601e-07
34.4804
5.13731e-07
34.4804
3.1137e-07
34.4804
1.95564e-07
34.4804
1.31336e-07
34.4804
9.67666e-08
34.4804
7.86893e-08
34.4804
6.9492e-08
34.4804
6.49347e-08
34.4804
6.27349e-08
34.4804
6.16981e-08
34.4804
6.12199e-08
34.4804
6.10055e-08
34.4804
6.09114e-08
34.4804
6.08709e-08
34.4804
6.08543e-08
34.4804
6.08479e-08
34.4804
6.08459e-08
34.4804
6.08445e-08
34.4804
6.08443e-08
34.4804
6.08447e-08
34.4804
6.08447e-08
34.4803
6.08454e-08
34.4803
6.08457e-08
34.4803
6.08461e-08
34.4803
6.08482e-08
34.4803
6.08484e-08
34.4803
6.08486e-08
34.4803
6.08491e-08
34.4803
6.08491e-08
34.4803
6.08497e-08
34.4803
6.08507e-08
34.4803
6.08502e-08
34.4803
6.08509e-08
34.4803
6.08527e-08
34.4803
6.08525e-08
34.4803
6.08534e-08
34.4803
6.08541e-08
34.4803
6.08543e-08
34.4803
6.0855e-08
34.4803
6.08554e-08
34.4803
6.08568e-08
34.4803
6.08572e-08
34.4803
6.08568e-08
34.4802
6.08575e-08
34.4802
6.08568e-08
34.4802
6.08579e-08
34.4802
6.08582e-08
34.4802
6.08575e-08
34.4802
6.08588e-08
34.4802
6.08609e-08
34.4802
6.08609e-08
34.4802
6.0862e-08
34.4802
6.08609e-08
34.4802
6.08613e-08
34.4802
6.08618e-08
34.4802
6.08625e-08
34.4802
6.08629e-08
34.4802
6.08638e-08
34.4802
6.08641e-08
34.4802
6.08625e-08
34.4802
6.08632e-08
34.4802
6.08622e-08
34.4802
6.08632e-08
34.4802
6.08661e-08
34.4801
6.08663e-08
34.4801
6.08661e-08
34.4801
6.08661e-08
34.4801
6.08693e-08
34.4801
6.08698e-08
34.4801
6.08684e-08
34.4801
6.08695e-08
34.4801
6.08702e-08
34.4801
6.087e-08
34.4801
6.08707e-08
34.4801
6.08716e-08
34.4801
6.08718e-08
34.4801
6.08713e-08
34.4801
6.08718e-08
34.4801
6.08732e-08
34.4801
6.08723e-08
34.4801
6.08741e-08
34.4801
6.08754e-08
34.4801
6.08759e-08
34.4801
6.08748e-08
34.4801
6.08761e-08
34.4801
6.0877e-08
34.48
6.08775e-08
34.48
6.08777e-08
34.48
6.08777e-08
34.48
6.08775e-08
34.48
6.088e-08
34.48
6.08802e-08
34.48
6.088e-08
34.48
6.08809e-08
34.48
6.0882e-08
34.48
6.08832e-08
34.48
6.08841e-08
34.48
6.08857e-08
34.48
6.08879e-08
34.48
6.08902e-08
34.48
6.0892e-08
34.48
6.08925e-08
34.48
6.08957e-08
34.4799
6.08977e-08
34.4799
6.08995e-08
34.4799
6.09039e-08
34.4799
6.091e-08
34.4799
6.09155e-08
34.4799
6.09223e-08
34.4799
6.09298e-08
34.4798
6.09384e-08
34.4798
6.095e-08
34.4798
6.0963e-08
34.4798
6.09782e-08
34.4797
6.09973e-08
34.4797
6.10187e-08
34.4796
6.10428e-08
34.4795
6.10723e-08
34.4795
6.11071e-08
34.4794
6.11474e-08
34.4793
6.11954e-08
34.4791
6.12495e-08
34.479
6.13154e-08
34.4788
6.13886e-08
34.4786
6.14725e-08
34.4784
6.15676e-08
34.4781
6.16767e-08
34.4778
6.18013e-08
34.4774
6.19436e-08
34.477
6.21048e-08
34.4765
6.22858e-08
34.4759
6.24902e-08
34.4753
6.2716e-08
34.4745
6.29693e-08
34.4737
6.32485e-08
34.4727
6.35569e-08
34.4716
6.3895e-08
34.4703
6.42667e-08
34.4689
6.46698e-08
34.4674
6.51091e-08
34.4656
6.55793e-08
34.4636
6.60818e-08
34.4614
6.66173e-08
34.459
6.71832e-08
34.4563
6.77774e-08
34.4533
6.83958e-08
34.4501
6.90361e-08
34.4465
6.96914e-08
34.4426
7.03562e-08
34.4384
7.10218e-08
34.4338
7.16798e-08
34.4288
7.23198e-08
34.4235
7.29319e-08
34.4179
7.3502e-08
34.4118
7.40172e-08
34.4054
7.44599e-08
34.3987
7.48187e-08
34.3916
7.50774e-08
34.3841
7.52136e-08
34.3764
7.52125e-08
34.3684
7.50576e-08
34.3601
7.47311e-08
34.3516
7.42152e-08
34.343
7.34983e-08
34.3342
7.25624e-08
34.3254
7.13958e-08
34.3166
6.99886e-08
34.3079
6.83335e-08
34.2993
6.64256e-08
34.2909
6.42644e-08
34.2827
6.18534e-08
34.275
5.91974e-08
34.2676
5.631e-08
34.2607
5.3205e-08
34.2544
4.9899e-08
34.2488
4.64179e-08
34.2438
4.27899e-08
34.2396
3.90455e-08
34.2362
3.52193e-08
34.2336
3.13546e-08
34.2319
2.74997e-08
34.2311
2.37651e-08
34.2312
2.0395e-08
34.2323
1.64698e-08
34.2342
1.29214e-08
34.237
9.52764e-09
34.2407
6.40398e-09
34.2453
3.62479e-09
34.2506
1.3481e-09
34.2567
-5.4979e-10
34.2634
-2.25373e-09
34.2708
-3.81237e-09
34.2786
-4.84692e-09
34.2869
-5.28985e-09
34.2956
-5.28667e-09
34.3045
-5.04178e-09
34.3136
-4.38467e-09
34.3229
-3.4438e-09
34.3321
-2.02931e-09
34.3413
-4.45652e-10
34.3503
1.58138e-09
34.3592
3.78509e-09
34.3678
6.24709e-09
34.3761
8.91782e-09
34.384
1.17168e-08
34.3915
1.46224e-08
34.3986
1.75721e-08
34.4052
2.05202e-08
34.4114
2.34538e-08
34.4171
2.64042e-08
34.4223
2.92866e-08
34.427
3.20692e-08
34.4313
3.47209e-08
34.4351
3.72174e-08
34.4385
3.9593e-08
34.4415
4.18329e-08
34.4441
4.38888e-08
34.4463
4.57696e-08
34.4482
4.74506e-08
34.4499
4.8972e-08
34.4512
5.03649e-08
34.4524
5.15931e-08
34.4533
5.26559e-08
34.454
5.35576e-08
34.4546
5.43257e-08
34.455
5.50021e-08
34.4553
5.55788e-08
34.4556
5.60474e-08
34.4557
5.64137e-08
34.4558
5.66913e-08
34.4558
5.69205e-08
34.4558
5.71019e-08
34.4557
5.72641e-08
34.4556
5.73584e-08
34.4555
5.74214e-08
34.4554
5.74385e-08
34.4553
5.74605e-08
34.4552
5.74698e-08
34.4551
5.74651e-08
34.4549
5.74391e-08
34.4548
5.73891e-08
34.4547
5.73518e-08
34.4546
5.73211e-08
34.4544
5.72952e-08
34.4543
5.7262e-08
34.4542
5.72106e-08
34.4541
5.71599e-08
34.454
5.71201e-08
34.4539
5.7089e-08
34.4538
5.70587e-08
34.4537