/*--------------------------------*- C++ -*----------------------------------*\
| =========                 |                                                 |
| \\      /  F ield         | OpenFOAM: The Open Source CFD Toolbox           |
|  \\    /   O peration     | Version:  3.0.x                                 |
|   \\  /    A nd           | Web:      www.OpenFOAM.org                      |
|    \\/     M anipulation  |                                                 |
\*---------------------------------------------------------------------------*/
FoamFile
{
    version     2.0;
    format      ascii;
    class       volVectorField;
    location    "0.05";
    object      U;
}
// * * * * * * * * * * * * * * * * * * * * * * * * * * * * * * * * * * * * * //

dimensions      [0 1 -1 0 0 0 0];

internalField   nonuniform List<vector> 
6900
(
(42.6983 0.000101921 0)
(42.6967 9.27795e-05 0)
(42.695 8.90678e-05 0)
(42.6934 8.69894e-05 0)
(42.6918 8.23367e-05 0)
(42.6903 7.46066e-05 0)
(42.689 6.4306e-05 0)
(42.688 5.24408e-05 0)
(42.6871 4.03339e-05 0)
(42.6865 2.92297e-05 0)
(42.6861 1.99705e-05 0)
(42.6858 1.28841e-05 0)
(42.6856 7.86992e-06 0)
(42.6855 4.56798e-06 0)
(42.6854 2.53442e-06 0)
(42.6854 1.35625e-06 0)
(42.6853 7.12442e-07 0)
(42.6853 3.79158e-07 0)
(42.6853 2.15201e-07 0)
(42.6853 1.38338e-07 0)
(42.6853 1.03909e-07 0)
(42.6853 8.9141e-08 0)
(42.6853 8.30571e-08 0)
(42.6853 8.06493e-08 0)
(42.6853 7.97322e-08 0)
(42.6853 7.93931e-08 0)
(42.6852 7.92724e-08 0)
(42.6852 7.92357e-08 0)
(42.6852 7.92242e-08 0)
(42.6852 7.92196e-08 0)
(42.6852 7.92206e-08 0)
(42.6852 7.92217e-08 0)
(42.6852 7.92252e-08 0)
(42.6852 7.92243e-08 0)
(42.6851 7.92301e-08 0)
(42.6851 7.92391e-08 0)
(42.6851 7.92487e-08 0)
(42.685 7.92582e-08 0)
(42.685 7.92723e-08 0)
(42.6849 7.92904e-08 0)
(42.6848 7.93196e-08 0)
(42.6846 7.93541e-08 0)
(42.6844 7.93995e-08 0)
(42.6842 7.94602e-08 0)
(42.6838 7.95337e-08 0)
(42.6833 7.96335e-08 0)
(42.6827 7.97607e-08 0)
(42.6818 7.99196e-08 0)
(42.6808 8.01174e-08 0)
(42.6794 8.03628e-08 0)
(42.6776 8.06578e-08 0)
(42.6754 8.1017e-08 0)
(42.6726 8.14478e-08 0)
(42.6691 8.1948e-08 0)
(42.6647 8.25331e-08 0)
(42.6595 8.31994e-08 0)
(42.6531 8.39454e-08 0)
(42.6455 8.47759e-08 0)
(42.6365 8.56687e-08 0)
(42.6259 8.66066e-08 0)
(42.6137 8.75614e-08 0)
(42.5996 8.84829e-08 0)
(42.5837 8.93315e-08 0)
(42.5659 9.00305e-08 0)
(42.5462 9.05135e-08 0)
(42.5247 9.0692e-08 0)
(42.5015 9.04771e-08 0)
(42.477 8.97795e-08 0)
(42.4513 8.8513e-08 0)
(42.425 8.66059e-08 0)
(42.3983 8.40023e-08 0)
(42.3719 8.0673e-08 0)
(42.3463 7.66299e-08 0)
(42.3221 7.19247e-08 0)
(42.2997 6.66591e-08 0)
(42.2797 6.09992e-08 0)
(42.2625 5.50242e-08 0)
(42.2485 4.86637e-08 0)
(42.2378 4.17476e-08 0)
(42.2306 3.41176e-08 0)
(42.2267 2.5672e-08 0)
(42.226 1.79003e-08 0)
(42.228 9.26767e-09 0)
(42.2324 2.61037e-09 0)
(42.2387 -1.40492e-09 0)
(42.2462 -3.65664e-09 0)
(42.2544 -4.39727e-09 0)
(42.2626 -4.44335e-09 0)
(42.2702 -3.44663e-09 0)
(42.2767 -1.35506e-09 0)
(42.2816 1.06753e-09 0)
(42.2846 3.85513e-09 0)
(42.2855 6.63079e-09 0)
(42.2842 9.80888e-09 0)
(42.2807 1.36486e-08 0)
(42.2751 1.65744e-08 0)
(42.2675 1.94517e-08 0)
(42.2581 2.14074e-08 0)
(42.2472 2.27578e-08 0)
(42.2351 2.41818e-08 0)
(42.222 2.42921e-08 0)
(42.2083 2.41101e-08 0)
(42.1942 2.39069e-08 0)
(42.1798 2.26574e-08 0)
(42.1653 2.14001e-08 0)
(42.151 2.00153e-08 0)
(42.1368 1.80183e-08 0)
(42.1229 1.62012e-08 0)
(42.1094 1.42266e-08 0)
(42.0962 1.19875e-08 0)
(42.0834 9.93081e-09 0)
(42.0709 7.77344e-09 0)
(42.0589 5.61247e-09 0)
(42.0473 3.4858e-09 0)
(42.0361 1.09476e-09 0)
(42.0254 -1.49253e-09 0)
(42.015 -3.70807e-09 0)
(42.0051 -5.86944e-09 0)
(41.9957 -7.98192e-09 0)
(41.9867 -1.01714e-08 0)
(41.9782 -1.23529e-08 0)
(41.9701 -1.43802e-08 0)
(41.9626 -1.64854e-08 0)
(41.9556 -1.8558e-08 0)
(41.9491 -2.05177e-08 0)
(41.9431 -2.24913e-08 0)
(41.9377 -2.43989e-08 0)
(41.9328 -2.62127e-08 0)
(41.9285 -2.80227e-08 0)
(41.9247 -2.97437e-08 0)
(41.9215 -3.1362e-08 0)
(41.9188 -3.29422e-08 0)
(41.9166 -3.44261e-08 0)
(41.915 -3.58104e-08 0)
(41.9139 -3.7121e-08 0)
(41.9133 -3.83246e-08 0)
(41.9131 -3.93093e-08 0)
(41.9133 -4.03031e-08 0)
(41.914 -4.13149e-08 0)
(41.915 -4.21073e-08 0)
(41.9164 -4.27743e-08 0)
(41.9181 -4.34197e-08 0)
(41.92 -4.38742e-08 0)
(41.9222 -4.42068e-08 0)
(41.9245 -4.45068e-08 0)
(41.9269 -4.46411e-08 0)
(41.9294 -4.46784e-08 0)
(41.9319 -4.46556e-08 0)
(41.9343 -4.45041e-08 0)
(41.9367 -4.42784e-08 0)
(41.9388 -4.39835e-08 0)
(41.9407 -4.35944e-08 0)
(41.9424 -4.31669e-08 0)
(41.9437 -4.26934e-08 0)
(41.9446 -4.21661e-08 0)
(41.9452 -4.16959e-08 0)
(41.9452 -4.12183e-08 0)
(41.9448 -4.07116e-08 0)
(41.944 -4.01774e-08 0)
(41.9426 -3.96895e-08 0)
(41.9407 -3.93302e-08 0)
(41.9383 -3.8995e-08 0)
(41.9354 -3.87781e-08 0)
(41.9322 -3.86433e-08 0)
(41.9286 -3.85992e-08 0)
(41.9248 -3.87163e-08 0)
(41.9208 -3.89219e-08 0)
(41.9167 -3.93326e-08 0)
(41.9127 -3.98204e-08 0)
(41.9088 -4.05484e-08 0)
(41.9052 -4.131e-08 0)
(41.9019 -4.21474e-08 0)
(41.899 -4.30822e-08 0)
(41.8967 -4.40446e-08 0)
(41.8949 -4.50341e-08 0)
(41.8937 -4.60349e-08 0)
(41.8931 -4.69823e-08 0)
(41.8931 -4.74498e-08 0)
(41.8937 -4.86891e-08 0)
(41.8947 -4.93108e-08 0)
(41.8961 -4.98665e-08 0)
(41.8979 -5.04156e-08 0)
(41.9001 -5.06504e-08 0)
(41.9025 -5.09962e-08 0)
(41.9051 -5.10064e-08 0)
(41.9079 -5.44692e-08 0)
(41.9109 -4.75461e-08 0)
(41.914 -5.20891e-08 0)
(41.9173 -4.49622e-08 0)
(41.9207 -5.24181e-08 0)
(41.924 -4.80019e-08 0)
(41.9273 -3.99072e-08 0)
(41.9304 4.17659e-08 0)
(41.9331 6.86667e-07 0)
(41.9353 5.15958e-06 0)
(41.9361 3.6594e-05 0)
(41.9314 0.000259815 0)
(41.8927 0.0018367 0)
(41.7155 0.0163292 0)
(39.2181 0.0848509 0)
(42.7001 0.000129268 0)
(42.7003 9.90065e-05 0)
(42.7004 8.55087e-05 0)
(42.7005 8.21518e-05 0)
(42.7006 7.7265e-05 0)
(42.7007 6.95869e-05 0)
(42.7008 5.97835e-05 0)
(42.7008 4.87035e-05 0)
(42.7009 3.74695e-05 0)
(42.7009 2.71839e-05 0)
(42.7009 1.8605e-05 0)
(42.7009 1.20278e-05 0)
(42.7009 7.36413e-06 0)
(42.7009 4.28499e-06 0)
(42.7009 2.38357e-06 0)
(42.7009 1.27819e-06 0)
(42.7009 6.72326e-07 0)
(42.7009 3.57661e-07 0)
(42.7009 2.02325e-07 0)
(42.7009 1.29235e-07 0)
(42.7009 9.63708e-08 0)
(42.7009 8.22161e-08 0)
(42.7009 7.63676e-08 0)
(42.7009 7.40441e-08 0)
(42.7009 7.31524e-08 0)
(42.7009 7.28259e-08 0)
(42.7008 7.271e-08 0)
(42.7008 7.26726e-08 0)
(42.7008 7.26587e-08 0)
(42.7008 7.26551e-08 0)
(42.7008 7.26563e-08 0)
(42.7008 7.26582e-08 0)
(42.7008 7.26636e-08 0)
(42.7008 7.26724e-08 0)
(42.7007 7.26829e-08 0)
(42.7007 7.26945e-08 0)
(42.7007 7.27091e-08 0)
(42.7006 7.27357e-08 0)
(42.7006 7.27666e-08 0)
(42.7005 7.28097e-08 0)
(42.7004 7.28694e-08 0)
(42.7002 7.29486e-08 0)
(42.7 7.30523e-08 0)
(42.6997 7.31884e-08 0)
(42.6994 7.33673e-08 0)
(42.6989 7.35971e-08 0)
(42.6983 7.38909e-08 0)
(42.6974 7.4264e-08 0)
(42.6964 7.47316e-08 0)
(42.695 7.5313e-08 0)
(42.6932 7.60263e-08 0)
(42.691 7.68896e-08 0)
(42.6881 7.79328e-08 0)
(42.6846 7.91709e-08 0)
(42.6803 8.06214e-08 0)
(42.6751 8.2293e-08 0)
(42.6687 8.41988e-08 0)
(42.6611 8.63293e-08 0)
(42.6521 8.86666e-08 0)
(42.6415 9.11783e-08 0)
(42.6293 9.38089e-08 0)
(42.6152 9.64855e-08 0)
(42.5993 9.90999e-08 0)
(42.5815 1.01534e-07 0)
(42.5618 1.03642e-07 0)
(42.5403 1.05252e-07 0)
(42.5171 1.06199e-07 0)
(42.4926 1.06299e-07 0)
(42.4669 1.05387e-07 0)
(42.4405 1.03316e-07 0)
(42.4139 9.99746e-08 0)
(42.3875 9.52962e-08 0)
(42.3619 8.92742e-08 0)
(42.3377 8.19794e-08 0)
(42.3153 7.35534e-08 0)
(42.2953 6.42342e-08 0)
(42.2781 5.41914e-08 0)
(42.2641 4.34955e-08 0)
(42.2534 3.22415e-08 0)
(42.2462 2.0536e-08 0)
(42.2423 8.6361e-09 0)
(42.2416 -4.05003e-10 0)
(42.2436 -8.04604e-09 0)
(42.248 -1.28237e-08 0)
(42.2542 -1.55631e-08 0)
(42.2618 -1.69413e-08 0)
(42.27 -1.63221e-08 0)
(42.2782 -1.46743e-08 0)
(42.2858 -1.13901e-08 0)
(42.2923 -6.35855e-09 0)
(42.2972 -5.17143e-10 0)
(42.3002 5.03566e-09 0)
(42.301 9.79907e-09 0)
(42.2998 1.51804e-08 0)
(42.2963 2.20438e-08 0)
(42.2907 2.7095e-08 0)
(42.2831 3.18031e-08 0)
(42.2737 3.50893e-08 0)
(42.2628 3.72689e-08 0)
(42.2507 3.92266e-08 0)
(42.2376 3.92795e-08 0)
(42.2239 3.86976e-08 0)
(42.2097 3.78651e-08 0)
(42.1953 3.56388e-08 0)
(42.1809 3.32799e-08 0)
(42.1665 3.06821e-08 0)
(42.1524 2.73876e-08 0)
(42.1385 2.42942e-08 0)
(42.1249 2.10268e-08 0)
(42.1117 1.75237e-08 0)
(42.0989 1.43003e-08 0)
(42.0865 1.09855e-08 0)
(42.0745 7.70992e-09 0)
(42.0629 4.46366e-09 0)
(42.0517 9.05457e-10 0)
(42.0409 -2.35511e-09 0)
(42.0306 -4.87455e-09 0)
(42.0207 -7.4242e-09 0)
(42.0112 -9.86239e-09 0)
(42.0022 -1.2397e-08 0)
(41.9937 -1.49449e-08 0)
(41.9857 -1.73715e-08 0)
(41.9781 -1.98692e-08 0)
(41.9711 -2.23196e-08 0)
(41.9646 -2.46441e-08 0)
(41.9586 -2.70101e-08 0)
(41.9532 -2.92967e-08 0)
(41.9483 -3.14596e-08 0)
(41.944 -3.3607e-08 0)
(41.9402 -3.56476e-08 0)
(41.937 -3.75722e-08 0)
(41.9343 -3.94345e-08 0)
(41.9321 -4.11654e-08 0)
(41.9305 -4.27574e-08 0)
(41.9294 -4.4253e-08 0)
(41.9287 -4.56028e-08 0)
(41.9286 -4.66069e-08 0)
(41.9288 -4.76284e-08 0)
(41.9295 -4.87875e-08 0)
(41.9305 -4.95527e-08 0)
(41.9319 -5.01324e-08 0)
(41.9336 -5.06882e-08 0)
(41.9355 -5.09663e-08 0)
(41.9376 -5.10739e-08 0)
(41.94 -5.11216e-08 0)
(41.9424 -5.09281e-08 0)
(41.9449 -5.05889e-08 0)
(41.9474 -5.0154e-08 0)
(41.9498 -4.95266e-08 0)
(41.9521 -4.87893e-08 0)
(41.9543 -4.79347e-08 0)
(41.9562 -4.694e-08 0)
(41.9578 -4.58797e-08 0)
(41.9592 -4.47297e-08 0)
(41.9601 -4.35028e-08 0)
(41.9606 -4.23523e-08 0)
(41.9607 -4.11885e-08 0)
(41.9603 -3.99593e-08 0)
(41.9594 -3.86362e-08 0)
(41.958 -3.73922e-08 0)
(41.9561 -3.63603e-08 0)
(41.9537 -3.53696e-08 0)
(41.9509 -3.45774e-08 0)
(41.9476 -3.39342e-08 0)
(41.9441 -3.3455e-08 0)
(41.9402 -3.32615e-08 0)
(41.9362 -3.32283e-08 0)
(41.9321 -3.35535e-08 0)
(41.9281 -3.3975e-08 0)
(41.9242 -3.49098e-08 0)
(41.9206 -3.5876e-08 0)
(41.9173 -3.70962e-08 0)
(41.9144 -3.85303e-08 0)
(41.9121 -4.00295e-08 0)
(41.9103 -4.16103e-08 0)
(41.9091 -4.3245e-08 0)
(41.9085 -4.48042e-08 0)
(41.9085 -4.55986e-08 0)
(41.909 -4.76559e-08 0)
(41.9101 -4.87924e-08 0)
(41.9115 -4.97264e-08 0)
(41.9133 -5.06546e-08 0)
(41.9155 -5.11955e-08 0)
(41.9179 -5.17137e-08 0)
(41.9205 -5.2154e-08 0)
(41.9233 -5.43952e-08 0)
(41.9263 -5.4158e-08 0)
(41.9294 -5.20912e-08 0)
(41.9327 -5.8783e-08 0)
(41.936 -4.1488e-08 0)
(41.9394 -4.69973e-08 0)
(41.9427 5.2774e-08 0)
(41.9458 5.77154e-07 0)
(41.9485 4.41353e-06 0)
(41.9506 3.12037e-05 0)
(41.9515 0.000219079 0)
(41.9469 0.00154289 0)
(41.9094 0.0107449 0)
(41.7373 0.0768106 0)
(39.8053 0.365453 0)
(42.7001 1.22579e-12 0)
(42.7002 2.63882e-13 0)
(42.7003 -1.06467e-12 0)
(42.7004 -1.87541e-12 0)
(42.7005 -3.29899e-12 0)
(42.7006 -6.76741e-12 0)
(42.7007 -1.10248e-11 0)
(42.7008 -1.12647e-11 0)
(42.7009 -1.00599e-11 0)
(42.7009 -7.11525e-12 0)
(42.7009 -4.88778e-12 0)
(42.7009 -6.37178e-12 0)
(42.7009 -8.69865e-12 0)
(42.7009 -1.08495e-11 0)
(42.7009 -1.23573e-11 0)
(42.7009 -1.25027e-11 0)
(42.7009 -1.23651e-11 0)
(42.7009 -1.22898e-11 0)
(42.7009 -1.00187e-11 0)
(42.7009 -5.45025e-12 0)
(42.7009 -3.48746e-13 0)
(42.7009 3.49613e-12 0)
(42.7009 5.35053e-12 0)
(42.7009 5.49226e-12 0)
(42.7009 4.28791e-12 0)
(42.7009 3.89675e-12 0)
(42.7008 3.24674e-12 0)
(42.7008 1.85748e-12 0)
(42.7008 1.85752e-12 0)
(42.7008 1.5001e-12 0)
(42.7008 1.89351e-12 0)
(42.7008 1.75265e-12 0)
(42.7008 1.95945e-12 0)
(42.7008 3.07112e-13 0)
(42.7007 -8.36967e-13 0)
(42.7007 -4.79487e-13 0)
(42.7007 7.13648e-13 0)
(42.7006 7.89471e-13 0)
(42.7006 7.88926e-13 0)
(42.7005 1.30055e-12 0)
(42.7004 1.86663e-12 0)
(42.7002 1.12704e-12 0)
(42.7 3.15253e-12 0)
(42.6997 4.38946e-12 0)
(42.6994 4.08626e-12 0)
(42.6989 5.08084e-12 0)
(42.6983 4.65431e-12 0)
(42.6974 4.05668e-12 0)
(42.6964 3.11285e-12 0)
(42.695 1.9237e-12 0)
(42.6932 7.30547e-13 0)
(42.691 5.96805e-13 0)
(42.6881 -6.62896e-13 0)
(42.6846 -3.48086e-12 0)
(42.6803 -5.50989e-12 0)
(42.6751 -6.38494e-12 0)
(42.6687 -6.17587e-12 0)
(42.6611 -4.78507e-12 0)
(42.6521 -3.16176e-12 0)
(42.6415 -2.09063e-12 0)
(42.6293 -1.06939e-12 0)
(42.6152 -2.6898e-13 0)
(42.5993 5.6497e-13 0)
(42.5815 6.24873e-13 0)
(42.5618 -1.23353e-12 0)
(42.5403 -8.18957e-13 0)
(42.5171 6.39019e-13 0)
(42.4926 3.35297e-12 0)
(42.4669 4.57368e-12 0)
(42.4405 4.71175e-12 0)
(42.4139 3.09386e-12 0)
(42.3875 7.93093e-15 0)
(42.3619 -1.15115e-12 0)
(42.3377 -8.01898e-13 0)
(42.3153 -5.98448e-14 0)
(42.2953 2.44436e-12 0)
(42.2781 2.81437e-12 0)
(42.2641 8.64066e-13 0)
(42.2534 -8.51901e-12 0)
(42.2462 -1.318e-11 0)
(42.2423 -1.24706e-11 0)
(42.2416 -1.08571e-11 0)
(42.2436 -7.46514e-12 0)
(42.248 -7.83177e-12 0)
(42.2542 -8.96205e-12 0)
(42.2618 -1.0212e-11 0)
(42.27 -1.60634e-11 0)
(42.2782 -1.25986e-11 0)
(42.2858 -5.88471e-12 0)
(42.2923 -1.12814e-12 0)
(42.2972 -1.36454e-12 0)
(42.3002 -1.19913e-12 0)
(42.301 1.865e-12 0)
(42.2998 2.1206e-12 0)
(42.2963 -5.8957e-13 0)
(42.2907 -6.8475e-13 0)
(42.2831 -2.18501e-13 0)
(42.2737 4.92917e-13 0)
(42.2628 2.23832e-12 0)
(42.2507 -1.0419e-12 0)
(42.2376 -4.07652e-12 0)
(42.2239 -5.75209e-12 0)
(42.2097 -6.81198e-12 0)
(42.1953 -5.43884e-12 0)
(42.1809 -3.75399e-12 0)
(42.1665 -3.16189e-12 0)
(42.1524 -3.90503e-12 0)
(42.1385 -1.37906e-12 0)
(42.1249 3.45912e-12 0)
(42.1117 1.09532e-11 0)
(42.0989 1.62994e-11 0)
(42.0865 1.55909e-11 0)
(42.0745 1.60632e-11 0)
(42.0629 1.42021e-11 0)
(42.0517 1.05849e-11 0)
(42.0409 9.63929e-12 0)
(42.0306 7.85752e-12 0)
(42.0207 4.18652e-12 0)
(42.0112 6.20732e-13 0)
(42.0022 -3.7597e-13 0)
(41.9937 4.93641e-13 0)
(41.9857 -6.26885e-13 0)
(41.9781 -3.21445e-12 0)
(41.9711 -4.33877e-12 0)
(41.9646 -4.30576e-12 0)
(41.9586 -5.09919e-12 0)
(41.9532 -6.09148e-12 0)
(41.9483 -6.79254e-12 0)
(41.944 -7.0193e-12 0)
(41.9402 -5.48885e-12 0)
(41.937 -4.14962e-12 0)
(41.9343 -2.84847e-12 0)
(41.9321 -1.33643e-12 0)
(41.9305 -9.54546e-13 0)
(41.9294 -1.17966e-12 0)
(41.9287 -3.25555e-12 0)
(41.9286 -2.35336e-12 0)
(41.9288 1.16841e-12 0)
(41.9295 4.2313e-12 0)
(41.9305 5.6766e-12 0)
(41.9319 4.42742e-12 0)
(41.9336 1.4503e-12 0)
(41.9355 4.99372e-13 0)
(41.9377 1.40031e-12 0)
(41.94 2.17457e-12 0)
(41.9424 2.91346e-12 0)
(41.9449 3.80939e-12 0)
(41.9474 4.75179e-12 0)
(41.9498 4.42135e-12 0)
(41.9521 4.65262e-12 0)
(41.9543 2.79121e-12 0)
(41.9562 8.88658e-13 0)
(41.9578 -1.88871e-12 0)
(41.9592 -4.02518e-12 0)
(41.9601 -5.04986e-12 0)
(41.9606 -3.88085e-12 0)
(41.9607 -2.78398e-12 0)
(41.9603 -3.6642e-12 0)
(41.9594 -2.22349e-12 0)
(41.958 -2.19214e-12 0)
(41.9561 -3.73864e-12 0)
(41.9537 -4.26155e-12 0)
(41.9509 -1.14212e-12 0)
(41.9476 1.61664e-13 0)
(41.9441 -7.2385e-13 0)
(41.9402 -2.33386e-13 0)
(41.9362 -3.81552e-13 0)
(41.9321 3.2469e-13 0)
(41.9281 3.17757e-13 0)
(41.9242 -2.31715e-12 0)
(41.9206 -3.36687e-12 0)
(41.9173 -3.9108e-12 0)
(41.9144 -2.80096e-12 0)
(41.9121 -2.12611e-12 0)
(41.9103 -1.15903e-12 0)
(41.9091 -2.98861e-12 0)
(41.9085 -1.47419e-12 0)
(41.9085 -8.81844e-13 0)
(41.909 4.93267e-12 0)
(41.9101 -2.88655e-13 0)
(41.9115 -2.62667e-12 0)
(41.9133 7.57012e-13 0)
(41.9155 -2.352e-11 0)
(41.9179 -3.62859e-11 0)
(41.9205 -2.06986e-10 0)
(41.9233 9.68488e-10 0)
(41.9263 -5.39245e-09 0)
(41.9294 6.46245e-10 0)
(41.9327 -1.19689e-08 0)
(41.936 1.33862e-08 0)
(41.9394 1.50899e-08 0)
(41.9427 1.91828e-07 0)
(41.9458 1.25053e-06 0)
(41.9485 8.90368e-06 0)
(41.9508 6.31099e-05 0)
(41.9524 0.000447545 0)
(41.953 0.00318104 0)
(41.9512 0.0224117 0)
(41.9338 0.158183 0)
(41.7836 0.72526 0)
(42.7001 -0.000129268 0)
(42.7003 -9.90065e-05 0)
(42.7004 -8.55087e-05 0)
(42.7005 -8.21518e-05 0)
(42.7006 -7.7265e-05 0)
(42.7007 -6.95869e-05 0)
(42.7008 -5.97835e-05 0)
(42.7008 -4.87035e-05 0)
(42.7009 -3.74695e-05 0)
(42.7009 -2.71839e-05 0)
(42.7009 -1.8605e-05 0)
(42.7009 -1.20278e-05 0)
(42.7009 -7.36413e-06 0)
(42.7009 -4.28498e-06 0)
(42.7009 -2.38357e-06 0)
(42.7009 -1.27819e-06 0)
(42.7009 -6.72321e-07 0)
(42.7009 -3.57658e-07 0)
(42.7009 -2.02323e-07 0)
(42.7009 -1.29234e-07 0)
(42.7009 -9.63738e-08 0)
(42.7009 -8.22213e-08 0)
(42.7009 -7.63711e-08 0)
(42.7009 -7.4042e-08 0)
(42.7009 -7.31532e-08 0)
(42.7009 -7.28269e-08 0)
(42.7008 -7.27089e-08 0)
(42.7008 -7.26728e-08 0)
(42.7008 -7.26578e-08 0)
(42.7008 -7.26563e-08 0)
(42.7008 -7.2658e-08 0)
(42.7008 -7.26621e-08 0)
(42.7008 -7.26672e-08 0)
(42.7008 -7.26696e-08 0)
(42.7007 -7.26807e-08 0)
(42.7007 -7.26926e-08 0)
(42.7007 -7.27115e-08 0)
(42.7006 -7.27347e-08 0)
(42.7006 -7.27705e-08 0)
(42.7005 -7.28139e-08 0)
(42.7004 -7.28699e-08 0)
(42.7002 -7.29489e-08 0)
(42.7 -7.30523e-08 0)
(42.6997 -7.31878e-08 0)
(42.6994 -7.33674e-08 0)
(42.6989 -7.35968e-08 0)
(42.6983 -7.3891e-08 0)
(42.6974 -7.42638e-08 0)
(42.6964 -7.4729e-08 0)
(42.695 -7.53093e-08 0)
(42.6932 -7.60249e-08 0)
(42.691 -7.68919e-08 0)
(42.6881 -7.79326e-08 0)
(42.6846 -7.91695e-08 0)
(42.6803 -8.06193e-08 0)
(42.6751 -8.22914e-08 0)
(42.6687 -8.41975e-08 0)
(42.6611 -8.63292e-08 0)
(42.6521 -8.86656e-08 0)
(42.6415 -9.11775e-08 0)
(42.6293 -9.38087e-08 0)
(42.6152 -9.64834e-08 0)
(42.5993 -9.90998e-08 0)
(42.5815 -1.01533e-07 0)
(42.5618 -1.03638e-07 0)
(42.5403 -1.05253e-07 0)
(42.5171 -1.06199e-07 0)
(42.4926 -1.06299e-07 0)
(42.4669 -1.05388e-07 0)
(42.4405 -1.03318e-07 0)
(42.4139 -9.99759e-08 0)
(42.3875 -9.52953e-08 0)
(42.3619 -8.92742e-08 0)
(42.3377 -8.1979e-08 0)
(42.3153 -7.35542e-08 0)
(42.2953 -6.42346e-08 0)
(42.2781 -5.41915e-08 0)
(42.2641 -4.34991e-08 0)
(42.2534 -3.22367e-08 0)
(42.2462 -2.05293e-08 0)
(42.2423 -8.63167e-09 0)
(42.2416 4.08125e-10 0)
(42.2436 8.04594e-09 0)
(42.248 1.28266e-08 0)
(42.2542 1.5566e-08 0)
(42.2618 1.69408e-08 0)
(42.27 1.63269e-08 0)
(42.2782 1.46774e-08 0)
(42.2858 1.13898e-08 0)
(42.2923 6.35825e-09 0)
(42.2972 5.16435e-10 0)
(42.3002 -5.03494e-09 0)
(42.301 -9.79955e-09 0)
(42.2998 -1.51817e-08 0)
(42.2963 -2.20425e-08 0)
(42.2907 -2.70927e-08 0)
(42.2831 -3.18037e-08 0)
(42.2737 -3.50918e-08 0)
(42.2628 -3.72694e-08 0)
(42.2507 -3.9227e-08 0)
(42.2376 -3.92759e-08 0)
(42.2239 -3.86955e-08 0)
(42.2097 -3.78625e-08 0)
(42.1953 -3.56392e-08 0)
(42.1809 -3.3279e-08 0)
(42.1665 -3.0683e-08 0)
(42.1524 -2.73838e-08 0)
(42.1385 -2.42947e-08 0)
(42.1249 -2.10271e-08 0)
(42.1117 -1.75268e-08 0)
(42.0989 -1.43029e-08 0)
(42.0865 -1.09877e-08 0)
(42.0745 -7.71302e-09 0)
(42.0629 -4.46628e-09 0)
(42.0517 -9.06839e-10 0)
(42.0409 2.35342e-09 0)
(42.0306 4.87634e-09 0)
(42.0207 7.42129e-09 0)
(42.0112 9.8632e-09 0)
(42.0022 1.23991e-08 0)
(41.9937 1.49427e-08 0)
(41.9857 1.73696e-08 0)
(41.9781 1.98728e-08 0)
(41.9711 2.23188e-08 0)
(41.9646 2.4642e-08 0)
(41.9586 2.701e-08 0)
(41.9532 2.92971e-08 0)
(41.9483 3.14597e-08 0)
(41.944 3.36061e-08 0)
(41.9402 3.56496e-08 0)
(41.937 3.75724e-08 0)
(41.9343 3.9439e-08 0)
(41.9321 4.11679e-08 0)
(41.9305 4.27578e-08 0)
(41.9294 4.42544e-08 0)
(41.9287 4.56026e-08 0)
(41.9286 4.66059e-08 0)
(41.9288 4.76291e-08 0)
(41.9295 4.87855e-08 0)
(41.9305 4.95479e-08 0)
(41.9319 5.01306e-08 0)
(41.9336 5.06895e-08 0)
(41.9355 5.09672e-08 0)
(41.9376 5.1074e-08 0)
(41.94 5.11208e-08 0)
(41.9424 5.09281e-08 0)
(41.9449 5.05888e-08 0)
(41.9474 5.01552e-08 0)
(41.9498 4.95251e-08 0)
(41.9521 4.87866e-08 0)
(41.9543 4.79335e-08 0)
(41.9562 4.69396e-08 0)
(41.9578 4.58818e-08 0)
(41.9592 4.47327e-08 0)
(41.9601 4.35023e-08 0)
(41.9606 4.23521e-08 0)
(41.9607 4.11873e-08 0)
(41.9603 3.9957e-08 0)
(41.9594 3.86352e-08 0)
(41.958 3.73908e-08 0)
(41.9561 3.63622e-08 0)
(41.9537 3.53727e-08 0)
(41.9509 3.45775e-08 0)
(41.9476 3.39335e-08 0)
(41.9441 3.34561e-08 0)
(41.9402 3.3262e-08 0)
(41.9362 3.32295e-08 0)
(41.9321 3.35517e-08 0)
(41.9281 3.39759e-08 0)
(41.9242 3.49091e-08 0)
(41.9206 3.5877e-08 0)
(41.9173 3.70953e-08 0)
(41.9144 3.8531e-08 0)
(41.9121 4.00295e-08 0)
(41.9103 4.16146e-08 0)
(41.9091 4.32443e-08 0)
(41.9085 4.4803e-08 0)
(41.9085 4.55959e-08 0)
(41.909 4.76691e-08 0)
(41.9101 4.87812e-08 0)
(41.9115 4.97241e-08 0)
(41.9133 5.06426e-08 0)
(41.9155 5.12376e-08 0)
(41.9179 5.16259e-08 0)
(41.9205 5.21203e-08 0)
(41.9233 5.22464e-08 0)
(41.9263 5.25126e-08 0)
(41.9294 5.19229e-08 0)
(41.9327 5.2978e-08 0)
(41.936 5.35231e-08 0)
(41.9394 6.70104e-08 0)
(41.9427 1.70052e-07 0)
(41.9458 8.99496e-07 0)
(41.9485 6.16629e-06 0)
(41.9509 4.38081e-05 0)
(41.9537 0.000312761 0)
(41.9623 0.00224661 0)
(42.0179 0.0162356 0)
(42.2223 0.133811 0)
(45.3329 0.564819 0)
(42.6983 -0.000101921 0)
(42.6967 -9.27795e-05 0)
(42.695 -8.90678e-05 0)
(42.6934 -8.69894e-05 0)
(42.6918 -8.23367e-05 0)
(42.6903 -7.46066e-05 0)
(42.689 -6.4306e-05 0)
(42.688 -5.24408e-05 0)
(42.6871 -4.03339e-05 0)
(42.6865 -2.92297e-05 0)
(42.6861 -1.99706e-05 0)
(42.6858 -1.28841e-05 0)
(42.6856 -7.86992e-06 0)
(42.6855 -4.56798e-06 0)
(42.6854 -2.53442e-06 0)
(42.6854 -1.35625e-06 0)
(42.6853 -7.12436e-07 0)
(42.6853 -3.79158e-07 0)
(42.6853 -2.15205e-07 0)
(42.6853 -1.38338e-07 0)
(42.6853 -1.03907e-07 0)
(42.6853 -8.91347e-08 0)
(42.6853 -8.30546e-08 0)
(42.6853 -8.06498e-08 0)
(42.6853 -7.97307e-08 0)
(42.6853 -7.93922e-08 0)
(42.6852 -7.92737e-08 0)
(42.6852 -7.9234e-08 0)
(42.6852 -7.92185e-08 0)
(42.6852 -7.92177e-08 0)
(42.6852 -7.92138e-08 0)
(42.6852 -7.92179e-08 0)
(42.6852 -7.92219e-08 0)
(42.6852 -7.92256e-08 0)
(42.6851 -7.92311e-08 0)
(42.6851 -7.92365e-08 0)
(42.6851 -7.92453e-08 0)
(42.685 -7.92552e-08 0)
(42.685 -7.92701e-08 0)
(42.6849 -7.92884e-08 0)
(42.6848 -7.93175e-08 0)
(42.6846 -7.93562e-08 0)
(42.6844 -7.93994e-08 0)
(42.6842 -7.94585e-08 0)
(42.6838 -7.95349e-08 0)
(42.6833 -7.96349e-08 0)
(42.6827 -7.97623e-08 0)
(42.6818 -7.992e-08 0)
(42.6808 -8.01185e-08 0)
(42.6794 -8.03623e-08 0)
(42.6776 -8.0659e-08 0)
(42.6754 -8.10197e-08 0)
(42.6726 -8.14468e-08 0)
(42.6691 -8.19505e-08 0)
(42.6647 -8.25301e-08 0)
(42.6595 -8.3201e-08 0)
(42.6531 -8.39505e-08 0)
(42.6455 -8.4778e-08 0)
(42.6365 -8.56696e-08 0)
(42.6259 -8.6607e-08 0)
(42.6137 -8.75568e-08 0)
(42.5996 -8.84852e-08 0)
(42.5837 -8.93296e-08 0)
(42.5659 -9.0033e-08 0)
(42.5462 -9.05157e-08 0)
(42.5247 -9.06932e-08 0)
(42.5015 -9.04779e-08 0)
(42.477 -8.97814e-08 0)
(42.4513 -8.85156e-08 0)
(42.425 -8.66036e-08 0)
(42.3983 -8.40006e-08 0)
(42.3719 -8.06739e-08 0)
(42.3463 -7.66302e-08 0)
(42.3221 -7.19261e-08 0)
(42.2997 -6.66614e-08 0)
(42.2797 -6.10005e-08 0)
(42.2625 -5.50255e-08 0)
(42.2485 -4.86652e-08 0)
(42.2378 -4.17582e-08 0)
(42.2306 -3.41224e-08 0)
(42.2267 -2.56742e-08 0)
(42.226 -1.79026e-08 0)
(42.228 -9.26817e-09 0)
(42.2324 -2.61131e-09 0)
(42.2387 1.40241e-09 0)
(42.2462 3.65841e-09 0)
(42.2544 4.3952e-09 0)
(42.2626 4.44109e-09 0)
(42.2702 3.44658e-09 0)
(42.2767 1.35572e-09 0)
(42.2816 -1.06655e-09 0)
(42.2846 -3.85506e-09 0)
(42.2855 -6.63109e-09 0)
(42.2842 -9.80759e-09 0)
(42.2807 -1.36469e-08 0)
(42.2751 -1.65743e-08 0)
(42.2675 -1.94505e-08 0)
(42.2581 -2.14078e-08 0)
(42.2472 -2.27566e-08 0)
(42.2351 -2.41804e-08 0)
(42.222 -2.42939e-08 0)
(42.2083 -2.41119e-08 0)
(42.1942 -2.39086e-08 0)
(42.1798 -2.26586e-08 0)
(42.1653 -2.14008e-08 0)
(42.151 -2.00147e-08 0)
(42.1368 -1.80212e-08 0)
(42.1229 -1.62026e-08 0)
(42.1094 -1.42219e-08 0)
(42.0962 -1.19787e-08 0)
(42.0834 -9.92821e-09 0)
(42.0709 -7.77223e-09 0)
(42.0589 -5.60834e-09 0)
(42.0473 -3.48288e-09 0)
(42.0361 -1.09644e-09 0)
(42.0254 1.49311e-09 0)
(42.015 3.70953e-09 0)
(42.0051 5.87184e-09 0)
(41.9957 7.97906e-09 0)
(41.9867 1.01684e-08 0)
(41.9782 1.23558e-08 0)
(41.9701 1.4379e-08 0)
(41.9626 1.6483e-08 0)
(41.9556 1.85608e-08 0)
(41.9491 2.05183e-08 0)
(41.9431 2.24915e-08 0)
(41.9377 2.44001e-08 0)
(41.9328 2.62136e-08 0)
(41.9285 2.8025e-08 0)
(41.9247 2.97434e-08 0)
(41.9215 3.13608e-08 0)
(41.9188 3.29392e-08 0)
(41.9166 3.44239e-08 0)
(41.915 3.58091e-08 0)
(41.9139 3.71207e-08 0)
(41.9133 3.83252e-08 0)
(41.9131 3.93103e-08 0)
(41.9133 4.03034e-08 0)
(41.914 4.13159e-08 0)
(41.915 4.2109e-08 0)
(41.9164 4.27764e-08 0)
(41.9181 4.34212e-08 0)
(41.92 4.38727e-08 0)
(41.9222 4.42092e-08 0)
(41.9245 4.45062e-08 0)
(41.9269 4.46405e-08 0)
(41.9294 4.46803e-08 0)
(41.9319 4.46581e-08 0)
(41.9343 4.45023e-08 0)
(41.9367 4.42763e-08 0)
(41.9388 4.39805e-08 0)
(41.9407 4.35914e-08 0)
(41.9424 4.31672e-08 0)
(41.9437 4.26905e-08 0)
(41.9446 4.21653e-08 0)
(41.9452 4.16979e-08 0)
(41.9452 4.12178e-08 0)
(41.9448 4.07103e-08 0)
(41.944 4.01806e-08 0)
(41.9426 3.96905e-08 0)
(41.9407 3.93263e-08 0)
(41.9383 3.89901e-08 0)
(41.9354 3.8776e-08 0)
(41.9322 3.86441e-08 0)
(41.9286 3.85984e-08 0)
(41.9248 3.87152e-08 0)
(41.9208 3.89193e-08 0)
(41.9167 3.93351e-08 0)
(41.9127 3.98208e-08 0)
(41.9088 4.05472e-08 0)
(41.9052 4.13091e-08 0)
(41.9019 4.2147e-08 0)
(41.899 4.30825e-08 0)
(41.8967 4.40439e-08 0)
(41.8949 4.50306e-08 0)
(41.8937 4.60331e-08 0)
(41.8931 4.69797e-08 0)
(41.8931 4.74503e-08 0)
(41.8937 4.86993e-08 0)
(41.8947 4.93041e-08 0)
(41.8961 4.98663e-08 0)
(41.8979 5.0396e-08 0)
(41.9001 5.07137e-08 0)
(41.9025 5.09388e-08 0)
(41.9051 5.1176e-08 0)
(41.9079 5.13474e-08 0)
(41.9109 5.12894e-08 0)
(41.914 5.1265e-08 0)
(41.9173 5.11348e-08 0)
(41.9207 5.10543e-08 0)
(41.924 5.29398e-08 0)
(41.9273 7.08983e-08 0)
(41.9304 1.84418e-07 0)
(41.9332 9.89934e-07 0)
(41.9356 6.74579e-06 0)
(41.9384 4.7732e-05 0)
(41.9472 0.000349209 0)
(42.0058 0.00275718 0)
(42.2254 0.0388823 0)
(47.4378 0.159922 0)
(37.8199 1.28443 -3.15926e-15)
(36.7524 3.68486 6.33692e-15)
(36.3337 6.4191 -1.18805e-14)
(35.9128 9.18477 2.45495e-14)
(35.2305 11.9143 -2.53321e-14)
(34.2788 14.577 -1.58287e-15)
(33.0797 17.1501 2.94188e-20)
(31.8316 19.7273 -2.21208e-14)
(30.8544 22.5998 -1.02262e-13)
(30.1264 25.8994 1.00117e-13)
(29.1146 29.2515 -2.49271e-14)
(27.2791 31.9222 -5.14056e-14)
(24.6482 33.6441 2.64824e-14)
(21.6264 34.6676 0)
(18.4452 35.202 2.50578e-14)
(15.2461 35.4526 2.51586e-14)
(12.1965 36.0738 -2.52297e-14)
(9.51463 38.1889 2.50107e-14)
(7.00344 42.5136 1.92154e-16)
(4.29338 49.815 -1.86379e-16)
(38.9396 2.0239 0)
(38.3064 4.94137 0)
(37.8911 8.15932 -1.6089e-15)
(37.3561 11.3628 -3.21483e-15)
(36.5274 14.5173 8.02923e-15)
(35.3763 17.622 1.60473e-14)
(33.9295 20.5906 0)
(32.5129 23.2977 9.59521e-15)
(31.4573 26.069 1.59029e-14)
(30.5697 29.3738 -3.78944e-14)
(29.0718 33.2539 2.5153e-14)
(26.4055 36.8418 1.25843e-14)
(22.9257 39.233 -1.25688e-14)
(19.0327 40.6666 1.25732e-14)
(15.0148 41.268 0)
(11.2486 41.04 -1.58243e-15)
(8.41087 40.408 1.59282e-15)
(7.04333 40.691 -5.54229e-15)
(5.78248 43.23 -7.7975e-16)
(5.14391 47.7967 0)
(41.7344 1.59371 -4.10229e-17)
(41.7363 2.62952 -2.08481e-14)
(41.8416 3.68279 2.11738e-14)
(42.0333 4.73217 -2.03513e-14)
(42.2637 5.85101 -2.23225e-14)
(42.495 7.1204 8.30849e-14)
(42.6895 8.60453 -4.20556e-14)
(42.772 10.3401 4.07563e-14)
(42.6705 12.2547 -8.28922e-14)
(42.4297 14.2019 1.32421e-15)
(42.2122 16.1035 4.08962e-14)
(42.0864 18.0832 0)
(41.8503 20.357 -4.09548e-14)
(41.2895 22.9408 4.09613e-14)
(40.2779 25.7686 -3.30073e-16)
(38.6976 28.763 0)
(36.3964 31.7881 3.30049e-16)
(33.2713 34.5784 0)
(29.8554 36.807 0)
(27.0287 38.3617 0)
(45.8612 2.59492 6.27692e-16)
(45.5848 5.96797 -6.2974e-15)
(44.5729 9.9811 -1.26213e-15)
(43.3796 14.0995 2.52163e-15)
(42.2945 18.1615 -2.51087e-15)
(41.2519 22.1586 -4.66563e-19)
(40.0845 26.0854 -9.92737e-15)
(38.6402 29.8978 0)
(36.8821 33.5822 0)
(34.8104 37.1344 -4.88352e-15)
(32.3954 40.5061 4.85919e-15)
(29.6514 43.6865 0)
(26.5751 46.6151 -4.81463e-15)
(23.1954 49.2503 4.79946e-15)
(19.5531 51.5626 -4.78418e-15)
(15.6934 53.5268 9.53917e-15)
(11.6664 55.1214 -4.75949e-15)
(7.53566 56.3327 0)
(3.38654 57.1846 -2.36828e-15)
(-0.42374 57.6702 0)
(48.8785 1.79406 -9.57313e-16)
(49.833 4.59788 7.33843e-15)
(49.5347 7.96642 5.10532e-15)
(48.7216 11.4976 1.02031e-14)
(47.8946 15.1592 0)
(47.0742 18.9508 0)
(46.1214 22.8247 1.01024e-14)
(44.9099 26.6993 2.51419e-15)
(43.3748 30.5574 -5.00527e-15)
(41.5228 34.3292 2.49212e-15)
(39.3144 37.9729 1.98519e-14)
(36.766 41.4262 -1.23615e-14)
(33.8709 44.6319 1.2326e-14)
(30.6424 47.5455 -2.45822e-15)
(27.109 50.1331 -9.81413e-15)
(23.3063 52.3625 -1.71551e-14)
(19.2772 54.1946 -8.57098e-15)
(15.0772 55.5606 -1.22453e-15)
(10.7919 56.3091 7.04597e-15)
(6.69357 56.0865 3.07161e-16)
(1.32286 61.3923 0)
(1.25281 58.6997 0)
(1.11087 56.0685 0)
(0.898118 57.4693 0)
(0.910457 59.5464 0)
(0.9077 59.6079 0)
(0.864848 57.8805 0)
(0.806387 55.3654 0)
(0.729095 52.7475 0)
(0.631475 50.4149 0)
(0.516576 48.4905 0)
(0.39919 46.9494 0)
(0.292784 45.7097 0)
(0.202012 44.7072 0)
(0.132045 43.9085 0)
(0.0818763 43.2919 0)
(0.0482435 42.8367 0)
(0.0270691 42.5165 0)
(0.0144911 42.3015 0)
(0.00741297 42.1625 0)
(0.00362742 42.0748 0)
(0.00169885 42.0196 0)
(0.000761499 41.9834 0)
(0.000326544 41.9578 0)
(0.000133793 41.9374 0)
(5.22419e-05 41.9193 0)
(1.93346e-05 41.9016 0)
(6.69762e-06 41.8837 0)
(2.09702e-06 41.8651 0)
(5.19858e-07 41.8457 0)
(1.70994e-08 41.8254 0)
(-1.28176e-07 41.8044 0)
(-1.6388e-07 41.7828 0)
(-1.69533e-07 41.7607 0)
(-1.68259e-07 41.7385 0)
(-1.65701e-07 41.7164 0)
(-1.6294e-07 41.6947 0)
(-1.6003e-07 41.6736 0)
(-1.56846e-07 41.6535 0)
(-1.53341e-07 41.6346 0)
(-1.49508e-07 41.6172 0)
(-1.45376e-07 41.6016 0)
(-1.40994e-07 41.5881 0)
(-1.36446e-07 41.5766 0)
(-1.31733e-07 41.5676 0)
(-1.26921e-07 41.5608 0)
(-1.22074e-07 41.5565 0)
(-1.17258e-07 41.5545 0)
(-1.12555e-07 41.5548 0)
(-1.08069e-07 41.5572 0)
(-1.04396e-07 41.5614 0)
(-1.00378e-07 41.5672 0)
(-9.71566e-08 41.5742 0)
(-9.41746e-08 41.5823 0)
(-9.19782e-08 41.591 0)
(-9.03463e-08 41.6001 0)
(-8.92508e-08 41.6091 0)
(-8.89985e-08 41.6178 0)
(-8.9223e-08 41.6257 0)
(-8.94559e-08 41.6328 0)
(-9.04155e-08 41.6387 0)
(-9.137e-08 41.6433 0)
(-9.20031e-08 41.6464 0)
(-9.37274e-08 41.6479 0)
(-9.50369e-08 41.6479 0)
(-9.60383e-08 41.6463 0)
(-9.70711e-08 41.6431 0)
(-9.81092e-08 41.6385 0)
(-9.90638e-08 41.6324 0)
(-9.97028e-08 41.6251 0)
(-1.0014e-07 41.6167 0)
(-1.00393e-07 41.6073 0)
(-1.00395e-07 41.597 0)
(-1.00245e-07 41.586 0)
(-9.98858e-08 41.5745 0)
(-9.92465e-08 41.5626 0)
(-9.85528e-08 41.5503 0)
(-9.77092e-08 41.5378 0)
(-9.67815e-08 41.5252 0)
(-9.56651e-08 41.5126 0)
(-9.46414e-08 41.5 0)
(-9.34848e-08 41.4875 0)
(-9.23306e-08 41.4751 0)
(-9.12147e-08 41.4628 0)
(-9.01308e-08 41.4508 0)
(-8.90213e-08 41.4391 0)