/*--------------------------------*- C++ -*----------------------------------*\
| =========                 |                                                 |
| \\      /  F ield         | OpenFOAM: The Open Source CFD Toolbox           |
|  \\    /   O peration     | Version:  3.0.x                                 |
|   \\  /    A nd           | Web:      www.OpenFOAM.org                      |
|    \\/     M anipulation  |                                                 |
\*---------------------------------------------------------------------------*/
FoamFile
{
    version     2.0;
    format      ascii;
    class       volScalarField;
    location    "0.3";
    object      p;
}
// * * * * * * * * * * * * * * * * * * * * * * * * * * * * * * * * * * * * * //

dimensions      [1 -1 -2 0 0 0 0];

internalField   nonuniform List<scalar> 
6900
(
1.81919e+07
1.81919e+07
1.81919e+07
1.81919e+07
1.81919e+07
1.81919e+07
1.81919e+07
1.81919e+07
1.81918e+07
1.81918e+07
1.81918e+07
1.81918e+07
1.81918e+07
1.81918e+07
1.81918e+07
1.81918e+07
1.81918e+07
1.81917e+07
1.81917e+07
1.81917e+07
1.81917e+07
1.81917e+07
1.81917e+07
1.81917e+07
1.81918e+07
1.81918e+07
1.81918e+07
1.81918e+07
1.81918e+07
1.81918e+07
1.81918e+07
1.81919e+07
1.81919e+07
1.81919e+07
1.81919e+07
1.81919e+07
1.81919e+07
1.81919e+07
1.81919e+07
1.8192e+07
1.8192e+07
1.81919e+07
1.81919e+07
1.81919e+07
1.81919e+07
1.81919e+07
1.81919e+07
1.81919e+07
1.81918e+07
1.81918e+07
1.81918e+07
1.81918e+07
1.81917e+07
1.81917e+07
1.81917e+07
1.81917e+07
1.81917e+07
1.81917e+07
1.81916e+07
1.81916e+07
1.81916e+07
1.81916e+07
1.81916e+07
1.81916e+07
1.81916e+07
1.81917e+07
1.81917e+07
1.81917e+07
1.81917e+07
1.81917e+07
1.81917e+07
1.81917e+07
1.81918e+07
1.81918e+07
1.81918e+07
1.81918e+07
1.81918e+07
1.81917e+07
1.81917e+07
1.81917e+07
1.81917e+07
1.81916e+07
1.81916e+07
1.81915e+07
1.81915e+07
1.81914e+07
1.81913e+07
1.81913e+07
1.81912e+07
1.81911e+07
1.8191e+07
1.81909e+07
1.81909e+07
1.81908e+07
1.81907e+07
1.81906e+07
1.81905e+07
1.81904e+07
1.81904e+07
1.81903e+07
1.81902e+07
1.81901e+07
1.81901e+07
1.819e+07
1.81899e+07
1.81898e+07
1.81898e+07
1.81897e+07
1.81896e+07
1.81895e+07
1.81894e+07
1.81893e+07
1.81892e+07
1.8189e+07
1.81889e+07
1.81887e+07
1.81886e+07
1.81884e+07
1.81882e+07
1.8188e+07
1.81879e+07
1.81877e+07
1.81875e+07
1.81873e+07
1.8187e+07
1.81868e+07
1.81866e+07
1.81864e+07
1.81862e+07
1.8186e+07
1.81858e+07
1.81856e+07
1.81854e+07
1.81852e+07
1.81851e+07
1.81849e+07
1.81847e+07
1.81846e+07
1.81844e+07
1.81843e+07
1.81841e+07
1.8184e+07
1.81838e+07
1.81837e+07
1.81835e+07
1.81834e+07
1.81832e+07
1.8183e+07
1.81829e+07
1.81827e+07
1.81824e+07
1.81822e+07
1.8182e+07
1.81817e+07
1.81815e+07
1.81812e+07
1.81809e+07
1.81806e+07
1.81803e+07
1.81801e+07
1.81798e+07
1.81795e+07
1.81792e+07
1.81789e+07
1.81786e+07
1.81783e+07
1.8178e+07
1.81778e+07
1.81775e+07
1.81772e+07
1.8177e+07
1.81768e+07
1.81766e+07
1.81764e+07
1.81762e+07
1.8176e+07
1.81759e+07
1.81757e+07
1.81756e+07
1.81755e+07
1.81753e+07
1.81752e+07
1.8175e+07
1.81748e+07
1.81746e+07
1.81744e+07
1.81742e+07
1.8174e+07
1.81738e+07
1.81735e+07
1.81733e+07
1.8173e+07
1.81728e+07
1.81725e+07
1.81723e+07
1.81721e+07
1.81719e+07
1.81717e+07
1.81716e+07
1.81721e+07
1.81919e+07
1.81919e+07
1.81919e+07
1.81919e+07
1.81919e+07
1.81919e+07
1.81919e+07
1.81919e+07
1.81918e+07
1.81918e+07
1.81918e+07
1.81918e+07
1.81918e+07
1.81918e+07
1.81918e+07
1.81918e+07
1.81918e+07
1.81917e+07
1.81917e+07
1.81917e+07
1.81917e+07
1.81917e+07
1.81917e+07
1.81917e+07
1.81918e+07
1.81918e+07
1.81918e+07
1.81918e+07
1.81918e+07
1.81918e+07
1.81918e+07
1.81919e+07
1.81919e+07
1.81919e+07
1.81919e+07
1.81919e+07
1.81919e+07
1.81919e+07
1.81919e+07
1.8192e+07
1.8192e+07
1.81919e+07
1.81919e+07
1.81919e+07
1.81919e+07
1.81919e+07
1.81919e+07
1.81919e+07
1.81918e+07
1.81918e+07
1.81918e+07
1.81918e+07
1.81917e+07
1.81917e+07
1.81917e+07
1.81917e+07
1.81917e+07
1.81917e+07
1.81916e+07
1.81916e+07
1.81916e+07
1.81916e+07
1.81916e+07
1.81916e+07
1.81916e+07
1.81917e+07
1.81917e+07
1.81917e+07
1.81917e+07
1.81917e+07
1.81917e+07
1.81917e+07
1.81918e+07
1.81918e+07
1.81918e+07
1.81918e+07
1.81918e+07
1.81917e+07
1.81917e+07
1.81917e+07
1.81917e+07
1.81916e+07
1.81916e+07
1.81915e+07
1.81915e+07
1.81914e+07
1.81913e+07
1.81913e+07
1.81912e+07
1.81911e+07
1.8191e+07
1.81909e+07
1.81909e+07
1.81908e+07
1.81907e+07
1.81906e+07
1.81905e+07
1.81904e+07
1.81904e+07
1.81903e+07
1.81902e+07
1.81901e+07
1.81901e+07
1.819e+07
1.81899e+07
1.81898e+07
1.81898e+07
1.81897e+07
1.81896e+07
1.81895e+07
1.81894e+07
1.81893e+07
1.81892e+07
1.8189e+07
1.81889e+07
1.81887e+07
1.81886e+07
1.81884e+07
1.81882e+07
1.8188e+07
1.81879e+07
1.81877e+07
1.81875e+07
1.81873e+07
1.8187e+07
1.81868e+07
1.81866e+07
1.81864e+07
1.81862e+07
1.8186e+07
1.81858e+07
1.81856e+07
1.81854e+07
1.81852e+07
1.81851e+07
1.81849e+07
1.81847e+07
1.81846e+07
1.81844e+07
1.81843e+07
1.81841e+07
1.8184e+07
1.81838e+07
1.81837e+07
1.81835e+07
1.81834e+07
1.81832e+07
1.8183e+07
1.81829e+07
1.81827e+07
1.81824e+07
1.81822e+07
1.8182e+07
1.81817e+07
1.81815e+07
1.81812e+07
1.81809e+07
1.81806e+07
1.81803e+07
1.81801e+07
1.81798e+07
1.81795e+07
1.81792e+07
1.81789e+07
1.81786e+07
1.81783e+07
1.8178e+07
1.81778e+07
1.81775e+07
1.81772e+07
1.8177e+07
1.81768e+07
1.81766e+07
1.81764e+07
1.81762e+07
1.8176e+07
1.81759e+07
1.81757e+07
1.81756e+07
1.81755e+07
1.81753e+07
1.81752e+07
1.8175e+07
1.81748e+07
1.81746e+07
1.81744e+07
1.81742e+07
1.8174e+07
1.81738e+07
1.81735e+07
1.81733e+07
1.8173e+07
1.81728e+07
1.81725e+07
1.81723e+07
1.81721e+07
1.81719e+07
1.81717e+07
1.81716e+07
1.8172e+07
1.81919e+07
1.81919e+07
1.81919e+07
1.81919e+07
1.81919e+07
1.81919e+07
1.81919e+07
1.81919e+07
1.81918e+07
1.81918e+07
1.81918e+07
1.81918e+07
1.81918e+07
1.81918e+07
1.81918e+07
1.81918e+07
1.81918e+07
1.81917e+07
1.81917e+07
1.81917e+07
1.81917e+07
1.81917e+07
1.81917e+07
1.81917e+07
1.81918e+07
1.81918e+07
1.81918e+07
1.81918e+07
1.81918e+07
1.81918e+07
1.81918e+07
1.81919e+07
1.81919e+07
1.81919e+07
1.81919e+07
1.81919e+07
1.81919e+07
1.81919e+07
1.81919e+07
1.8192e+07
1.8192e+07
1.81919e+07
1.81919e+07
1.81919e+07
1.81919e+07
1.81919e+07
1.81919e+07
1.81919e+07
1.81918e+07
1.81918e+07
1.81918e+07
1.81918e+07
1.81917e+07
1.81917e+07
1.81917e+07
1.81917e+07
1.81917e+07
1.81917e+07
1.81916e+07
1.81916e+07
1.81916e+07
1.81916e+07
1.81916e+07
1.81916e+07
1.81916e+07
1.81917e+07
1.81917e+07
1.81917e+07
1.81917e+07
1.81917e+07
1.81917e+07
1.81917e+07
1.81918e+07
1.81918e+07
1.81918e+07
1.81918e+07
1.81918e+07
1.81917e+07
1.81917e+07
1.81917e+07
1.81917e+07
1.81916e+07
1.81916e+07
1.81915e+07
1.81915e+07
1.81914e+07
1.81913e+07
1.81913e+07
1.81912e+07
1.81911e+07
1.8191e+07
1.81909e+07
1.81909e+07
1.81908e+07
1.81907e+07
1.81906e+07
1.81905e+07
1.81904e+07
1.81904e+07
1.81903e+07
1.81902e+07
1.81901e+07
1.81901e+07
1.819e+07
1.81899e+07
1.81898e+07
1.81898e+07
1.81897e+07
1.81896e+07
1.81895e+07
1.81894e+07
1.81893e+07
1.81892e+07
1.8189e+07
1.81889e+07
1.81887e+07
1.81886e+07
1.81884e+07
1.81882e+07
1.8188e+07
1.81879e+07
1.81877e+07
1.81875e+07
1.81873e+07
1.8187e+07
1.81868e+07
1.81866e+07
1.81864e+07
1.81862e+07
1.8186e+07
1.81858e+07
1.81856e+07
1.81854e+07
1.81852e+07
1.81851e+07
1.81849e+07
1.81847e+07
1.81846e+07
1.81844e+07
1.81843e+07
1.81841e+07
1.8184e+07
1.81838e+07
1.81837e+07
1.81835e+07
1.81834e+07
1.81832e+07
1.8183e+07
1.81829e+07
1.81827e+07
1.81824e+07
1.81822e+07
1.8182e+07
1.81817e+07
1.81815e+07
1.81812e+07
1.81809e+07
1.81806e+07
1.81803e+07
1.81801e+07
1.81798e+07
1.81795e+07
1.81792e+07
1.81789e+07
1.81786e+07
1.81783e+07
1.8178e+07
1.81778e+07
1.81775e+07
1.81772e+07
1.8177e+07
1.81768e+07
1.81766e+07
1.81764e+07
1.81762e+07
1.8176e+07
1.81759e+07
1.81757e+07
1.81756e+07
1.81755e+07
1.81753e+07
1.81752e+07
1.8175e+07
1.81748e+07
1.81746e+07
1.81744e+07
1.81742e+07
1.8174e+07
1.81738e+07
1.81735e+07
1.81733e+07
1.8173e+07
1.81728e+07
1.81725e+07
1.81723e+07
1.81721e+07
1.81719e+07
1.81717e+07
1.81715e+07
1.81713e+07
1.81919e+07
1.81919e+07
1.81919e+07
1.81919e+07
1.81919e+07
1.81919e+07
1.81919e+07
1.81919e+07
1.81918e+07
1.81918e+07
1.81918e+07
1.81918e+07
1.81918e+07
1.81918e+07
1.81918e+07
1.81918e+07
1.81918e+07
1.81917e+07
1.81917e+07
1.81917e+07
1.81917e+07
1.81917e+07
1.81917e+07
1.81917e+07
1.81918e+07
1.81918e+07
1.81918e+07
1.81918e+07
1.81918e+07
1.81918e+07
1.81918e+07
1.81919e+07
1.81919e+07
1.81919e+07
1.81919e+07
1.81919e+07
1.81919e+07
1.81919e+07
1.81919e+07
1.8192e+07
1.8192e+07
1.81919e+07
1.81919e+07
1.81919e+07
1.81919e+07
1.81919e+07
1.81919e+07
1.81919e+07
1.81918e+07
1.81918e+07
1.81918e+07
1.81918e+07
1.81917e+07
1.81917e+07
1.81917e+07
1.81917e+07
1.81917e+07
1.81917e+07
1.81916e+07
1.81916e+07
1.81916e+07
1.81916e+07
1.81916e+07
1.81916e+07
1.81916e+07
1.81917e+07
1.81917e+07
1.81917e+07
1.81917e+07
1.81917e+07
1.81917e+07
1.81917e+07
1.81918e+07
1.81918e+07
1.81918e+07
1.81918e+07
1.81918e+07
1.81917e+07
1.81917e+07
1.81917e+07
1.81917e+07
1.81916e+07
1.81916e+07
1.81915e+07
1.81915e+07
1.81914e+07
1.81913e+07
1.81913e+07
1.81912e+07
1.81911e+07
1.8191e+07
1.81909e+07
1.81909e+07
1.81908e+07
1.81907e+07
1.81906e+07
1.81905e+07
1.81904e+07
1.81904e+07
1.81903e+07
1.81902e+07
1.81901e+07
1.81901e+07
1.819e+07
1.81899e+07
1.81898e+07
1.81898e+07
1.81897e+07
1.81896e+07
1.81895e+07
1.81894e+07
1.81893e+07
1.81892e+07
1.8189e+07
1.81889e+07
1.81887e+07
1.81886e+07
1.81884e+07
1.81882e+07
1.8188e+07
1.81879e+07
1.81877e+07
1.81875e+07
1.81873e+07
1.8187e+07
1.81868e+07
1.81866e+07
1.81864e+07
1.81862e+07
1.8186e+07
1.81858e+07
1.81856e+07
1.81854e+07
1.81852e+07
1.81851e+07
1.81849e+07
1.81847e+07
1.81846e+07
1.81844e+07
1.81843e+07
1.81841e+07
1.8184e+07
1.81838e+07
1.81837e+07
1.81835e+07
1.81834e+07
1.81832e+07
1.8183e+07
1.81829e+07
1.81827e+07
1.81824e+07
1.81822e+07
1.8182e+07
1.81817e+07
1.81815e+07
1.81812e+07
1.81809e+07
1.81806e+07
1.81803e+07
1.81801e+07
1.81798e+07
1.81795e+07
1.81792e+07
1.81789e+07
1.81786e+07
1.81783e+07
1.8178e+07
1.81778e+07
1.81775e+07
1.81772e+07
1.8177e+07
1.81768e+07
1.81766e+07
1.81764e+07
1.81762e+07
1.8176e+07
1.81759e+07
1.81757e+07
1.81756e+07
1.81755e+07
1.81753e+07
1.81752e+07
1.8175e+07
1.81748e+07
1.81746e+07
1.81744e+07
1.81742e+07
1.8174e+07
1.81738e+07
1.81735e+07
1.81733e+07
1.8173e+07
1.81728e+07
1.81725e+07
1.81723e+07
1.81721e+07
1.81719e+07
1.81716e+07
1.81712e+07
1.81703e+07
1.81919e+07
1.81919e+07
1.81919e+07
1.81919e+07
1.81919e+07
1.81919e+07
1.81919e+07
1.81919e+07
1.81918e+07
1.81918e+07
1.81918e+07
1.81918e+07
1.81918e+07
1.81918e+07
1.81918e+07
1.81918e+07
1.81918e+07
1.81917e+07
1.81917e+07
1.81917e+07
1.81917e+07
1.81917e+07
1.81917e+07
1.81917e+07
1.81918e+07
1.81918e+07
1.81918e+07
1.81918e+07
1.81918e+07
1.81918e+07
1.81918e+07
1.81919e+07
1.81919e+07
1.81919e+07
1.81919e+07
1.81919e+07
1.81919e+07
1.81919e+07
1.81919e+07
1.8192e+07
1.8192e+07
1.81919e+07
1.81919e+07
1.81919e+07
1.81919e+07
1.81919e+07
1.81919e+07
1.81919e+07
1.81918e+07
1.81918e+07
1.81918e+07
1.81918e+07
1.81917e+07
1.81917e+07
1.81917e+07
1.81917e+07
1.81917e+07
1.81917e+07
1.81916e+07
1.81916e+07
1.81916e+07
1.81916e+07
1.81916e+07
1.81916e+07
1.81916e+07
1.81917e+07
1.81917e+07
1.81917e+07
1.81917e+07
1.81917e+07
1.81917e+07
1.81917e+07
1.81918e+07
1.81918e+07
1.81918e+07
1.81918e+07
1.81918e+07
1.81917e+07
1.81917e+07
1.81917e+07
1.81917e+07
1.81916e+07
1.81916e+07
1.81915e+07
1.81915e+07
1.81914e+07
1.81913e+07
1.81913e+07
1.81912e+07
1.81911e+07
1.8191e+07
1.81909e+07
1.81909e+07
1.81908e+07
1.81907e+07
1.81906e+07
1.81905e+07
1.81904e+07
1.81904e+07
1.81903e+07
1.81902e+07
1.81901e+07
1.81901e+07
1.819e+07
1.81899e+07
1.81898e+07
1.81898e+07
1.81897e+07
1.81896e+07
1.81895e+07
1.81894e+07
1.81893e+07
1.81892e+07
1.8189e+07
1.81889e+07
1.81887e+07
1.81886e+07
1.81884e+07
1.81882e+07
1.8188e+07
1.81879e+07
1.81877e+07
1.81875e+07
1.81873e+07
1.8187e+07
1.81868e+07
1.81866e+07
1.81864e+07
1.81862e+07
1.8186e+07
1.81858e+07
1.81856e+07
1.81854e+07
1.81852e+07
1.81851e+07
1.81849e+07
1.81847e+07
1.81846e+07
1.81844e+07
1.81843e+07
1.81841e+07
1.8184e+07
1.81838e+07
1.81837e+07
1.81835e+07
1.81834e+07
1.81832e+07
1.8183e+07
1.81829e+07
1.81827e+07
1.81824e+07
1.81822e+07
1.8182e+07
1.81817e+07
1.81815e+07
1.81812e+07
1.81809e+07
1.81806e+07
1.81803e+07
1.81801e+07
1.81798e+07
1.81795e+07
1.81792e+07
1.81789e+07
1.81786e+07
1.81783e+07
1.8178e+07
1.81778e+07
1.81775e+07
1.81772e+07
1.8177e+07
1.81768e+07
1.81766e+07
1.81764e+07
1.81762e+07
1.8176e+07
1.81759e+07
1.81757e+07
1.81756e+07
1.81755e+07
1.81753e+07
1.81752e+07
1.8175e+07
1.81748e+07
1.81746e+07
1.81744e+07
1.81742e+07
1.8174e+07
1.81738e+07
1.81735e+07
1.81733e+07
1.8173e+07
1.81728e+07
1.81725e+07
1.81723e+07
1.81721e+07
1.81719e+07
1.81716e+07
1.81712e+07
1.81703e+07
1.81782e+07
1.81809e+07
1.81811e+07
1.81804e+07
1.81797e+07
1.81792e+07
1.81788e+07
1.81785e+07
1.81773e+07
1.81748e+07
1.81717e+07
1.81694e+07
1.81677e+07
1.81667e+07
1.81674e+07
1.81701e+07
1.81722e+07
1.81708e+07
1.81652e+07
1.81564e+07
1.81766e+07
1.81779e+07
1.81777e+07
1.8177e+07
1.81763e+07
1.81758e+07
1.81754e+07
1.81751e+07
1.81737e+07
1.81709e+07
1.81677e+07
1.81654e+07
1.81639e+07
1.81631e+07
1.81639e+07
1.81666e+07
1.81681e+07
1.81659e+07
1.81591e+07
1.81502e+07
1.81715e+07
1.81714e+07
1.81709e+07
1.817e+07
1.81688e+07
1.81674e+07
1.81656e+07
1.81636e+07
1.81613e+07
1.81589e+07
1.81563e+07
1.81532e+07
1.81497e+07
1.81459e+07
1.81418e+07
1.81375e+07
1.81333e+07
1.81295e+07
1.81258e+07
1.81222e+07
1.81615e+07
1.81604e+07
1.81608e+07
1.81613e+07
1.81608e+07
1.81591e+07
1.81568e+07
1.81536e+07
1.81511e+07
1.81478e+07
1.81449e+07
1.8142e+07
1.81392e+07
1.81366e+07
1.81342e+07
1.8132e+07
1.81299e+07
1.81281e+07
1.81267e+07
1.81257e+07
1.81568e+07
1.81519e+07
1.81501e+07
1.81499e+07
1.81491e+07
1.81472e+07
1.81445e+07
1.81412e+07
1.81381e+07
1.81345e+07
1.81311e+07
1.81278e+07
1.81246e+07
1.81216e+07
1.81189e+07
1.81163e+07
1.8114e+07
1.81121e+07
1.81109e+07
1.81109e+07
1.81242e+07
1.81208e+07
1.81263e+07
1.81244e+07
1.81215e+07
1.81206e+07
1.81206e+07
1.81206e+07
1.81204e+07
1.81202e+07
1.812e+07
1.812e+07
1.81199e+07
1.81198e+07
1.81197e+07
1.81196e+07
1.81195e+07
1.81195e+07
1.81194e+07
1.81193e+07
1.81192e+07
1.81191e+07
1.81191e+07
1.8119e+07
1.81189e+07
1.81189e+07
1.81189e+07
1.81188e+07
1.81188e+07
1.81188e+07
1.81188e+07
1.81188e+07
1.81188e+07
1.81189e+07
1.8119e+07
1.8119e+07
1.8119e+07
1.8119e+07
1.81191e+07
1.81191e+07
1.81192e+07
1.81193e+07
1.81193e+07
1.81194e+07
1.81194e+07
1.81195e+07
1.81195e+07
1.81196e+07
1.81196e+07
1.81197e+07
1.81197e+07
1.81197e+07
1.81197e+07
1.81198e+07
1.81198e+07
1.81198e+07
1.81199e+07
1.81199e+07
1.812e+07
1.81201e+07
1.81202e+07
1.81203e+07
1.81204e+07
1.81206e+07
1.81207e+07
1.81208e+07
1.81209e+07
1.8121e+07
1.8121e+07
1.81211e+07
1.81211e+07
1.81212e+07
1.81212e+07
1.81211e+07
1.81211e+07
1.81211e+07
1.8121e+07
1.8121e+07
1.8121e+07
1.81209e+07
1.81209e+07
1.81209e+07
1.81209e+07
1.81209e+07
1.81209e+07
1.81209e+07
1.81209e+07
1.81209e+07
1.8121e+07
1.8121e+07
1.81211e+07
1.81211e+07
1.81211e+07
1.81212e+07
1.81212e+07
1.81212e+07
1.81213e+07
1.81213e+07
1.81213e+07
1.81213e+07
1.81213e+07
1.81213e+07
1.81213e+07
1.81212e+07
1.81212e+07
1.81211e+07
1.8121e+07
1.81209e+07
1.81208e+07
1.81207e+07
1.81206e+07
1.81204e+07
1.81203e+07
1.81201e+07
1.81199e+07
1.81198e+07
1.81196e+07
1.81194e+07
1.81192e+07
1.8119e+07
1.81188e+07
1.81186e+07
1.81184e+07
1.81182e+07
1.8118e+07
1.81179e+07
1.81177e+07
1.81175e+07
1.81174e+07
1.81172e+07
1.81171e+07
1.81169e+07
1.81168e+07
1.81167e+07
1.81166e+07
1.81166e+07
1.81165e+07
1.81164e+07
1.81164e+07
1.81163e+07
1.81163e+07
1.81162e+07
1.81162e+07
1.81162e+07
1.81161e+07
1.81161e+07
1.8116e+07
1.81159e+07
1.81159e+07
1.81158e+07
1.81157e+07
1.81156e+07
1.81155e+07
1.81153e+07
1.81152e+07
1.8115e+07
1.81148e+07
1.81147e+07
1.81145e+07
1.81142e+07
1.8114e+07
1.81138e+07
1.81135e+07
1.81133e+07
1.8113e+07
1.81127e+07
1.81124e+07
1.81122e+07
1.81119e+07
1.81116e+07
1.81113e+07
1.8111e+07
1.81107e+07
1.81104e+07
1.81101e+07
1.81099e+07
1.81096e+07
1.81094e+07
1.81092e+07
1.8109e+07
1.81088e+07
1.81086e+07
1.81084e+07
1.81083e+07
1.81082e+07
1.81081e+07
1.8108e+07
1.81079e+07
1.81078e+07
1.81077e+07
1.81076e+07
1.81075e+07
1.81075e+07
1.81074e+07
1.81073e+07
1.81071e+07
1.8107e+07
1.81068e+07
1.81063e+07
1.8105e+07
1.81224e+07
1.81208e+07
1.81262e+07
1.81244e+07
1.81216e+07
1.81206e+07
1.81206e+07
1.81206e+07
1.81204e+07
1.81202e+07
1.812e+07
1.812e+07
1.81199e+07
1.81198e+07
1.81197e+07
1.81196e+07
1.81195e+07
1.81195e+07
1.81194e+07
1.81193e+07
1.81192e+07
1.81191e+07
1.81191e+07
1.8119e+07
1.81189e+07
1.81189e+07
1.81189e+07
1.81188e+07
1.81188e+07
1.81188e+07
1.81188e+07
1.81188e+07
1.81188e+07
1.81189e+07
1.8119e+07
1.8119e+07
1.8119e+07
1.8119e+07
1.81191e+07
1.81191e+07
1.81192e+07
1.81193e+07
1.81193e+07
1.81194e+07
1.81194e+07
1.81195e+07
1.81195e+07
1.81196e+07
1.81196e+07
1.81197e+07
1.81197e+07
1.81197e+07
1.81197e+07
1.81198e+07
1.81198e+07
1.81198e+07
1.81199e+07
1.81199e+07
1.812e+07
1.81201e+07
1.81202e+07
1.81203e+07
1.81204e+07
1.81206e+07
1.81207e+07
1.81208e+07
1.81209e+07
1.8121e+07
1.8121e+07
1.81211e+07
1.81211e+07
1.81211e+07
1.81212e+07
1.81211e+07
1.81211e+07
1.81211e+07
1.8121e+07
1.8121e+07
1.8121e+07
1.81209e+07
1.81209e+07
1.81209e+07
1.81209e+07
1.81209e+07
1.81209e+07
1.81209e+07
1.81209e+07
1.81209e+07
1.8121e+07
1.8121e+07
1.81211e+07
1.81211e+07
1.81211e+07
1.81212e+07
1.81212e+07
1.81212e+07
1.81213e+07
1.81213e+07
1.81213e+07
1.81213e+07
1.81213e+07
1.81213e+07
1.81213e+07
1.81212e+07
1.81212e+07
1.81211e+07
1.8121e+07
1.81209e+07
1.81208e+07
1.81207e+07
1.81206e+07
1.81204e+07
1.81203e+07
1.81201e+07
1.81199e+07
1.81198e+07
1.81196e+07
1.81194e+07
1.81192e+07
1.8119e+07
1.81188e+07
1.81186e+07
1.81184e+07
1.81182e+07
1.8118e+07
1.81179e+07
1.81177e+07
1.81175e+07
1.81174e+07
1.81172e+07
1.81171e+07
1.81169e+07
1.81168e+07
1.81167e+07
1.81166e+07
1.81166e+07
1.81165e+07
1.81164e+07
1.81164e+07
1.81163e+07
1.81163e+07
1.81162e+07
1.81162e+07
1.81162e+07
1.81161e+07
1.81161e+07
1.8116e+07
1.81159e+07
1.81159e+07
1.81158e+07
1.81157e+07
1.81156e+07
1.81155e+07
1.81153e+07
1.81152e+07
1.8115e+07
1.81148e+07
1.81147e+07
1.81145e+07
1.81142e+07
1.8114e+07
1.81138e+07
1.81135e+07
1.81133e+07
1.8113e+07
1.81127e+07
1.81124e+07
1.81122e+07
1.81119e+07
1.81116e+07
1.81113e+07
1.8111e+07
1.81107e+07
1.81104e+07
1.81101e+07
1.81099e+07
1.81096e+07
1.81094e+07
1.81092e+07
1.8109e+07
1.81088e+07
1.81086e+07
1.81084e+07
1.81083e+07
1.81082e+07
1.81081e+07
1.8108e+07
1.81079e+07
1.81078e+07
1.81077e+07
1.81076e+07
1.81075e+07
1.81075e+07
1.81074e+07
1.81073e+07
1.81071e+07
1.8107e+07
1.81068e+07
1.81063e+07
1.81051e+07
1.81132e+07
1.8118e+07
1.81208e+07
1.8121e+07
1.81206e+07
1.81204e+07
1.81203e+07
1.81203e+07
1.81202e+07
1.81201e+07
1.812e+07
1.812e+07
1.81199e+07
1.81198e+07
1.81197e+07
1.81196e+07
1.81196e+07
1.81195e+07
1.81194e+07
1.81193e+07
1.81192e+07
1.81191e+07
1.81191e+07
1.8119e+07
1.8119e+07
1.81189e+07
1.81189e+07
1.81188e+07
1.81188e+07
1.81188e+07
1.81188e+07
1.81188e+07
1.81188e+07
1.81188e+07
1.81189e+07
1.81189e+07
1.8119e+07
1.8119e+07
1.81191e+07
1.81191e+07
1.81192e+07
1.81193e+07
1.81193e+07
1.81194e+07
1.81195e+07
1.81195e+07
1.81196e+07
1.81196e+07
1.81197e+07
1.81197e+07
1.81198e+07
1.81198e+07
1.81198e+07
1.81199e+07
1.81199e+07
1.812e+07
1.812e+07
1.81201e+07
1.81202e+07
1.81203e+07
1.81204e+07
1.81205e+07
1.81206e+07
1.81207e+07
1.81208e+07
1.81209e+07
1.81209e+07
1.8121e+07
1.81211e+07
1.81211e+07
1.81211e+07
1.81212e+07
1.81212e+07
1.81211e+07
1.81211e+07
1.81211e+07
1.8121e+07
1.8121e+07
1.8121e+07
1.81209e+07
1.81209e+07
1.81209e+07
1.81209e+07
1.81209e+07
1.81209e+07
1.81209e+07
1.81209e+07
1.81209e+07
1.8121e+07
1.8121e+07
1.81211e+07
1.81211e+07
1.81211e+07
1.81212e+07
1.81212e+07
1.81212e+07
1.81213e+07
1.81213e+07
1.81213e+07
1.81213e+07
1.81213e+07
1.81213e+07
1.81213e+07
1.81212e+07
1.81212e+07
1.81211e+07
1.8121e+07
1.81209e+07
1.81208e+07
1.81207e+07
1.81206e+07
1.81204e+07
1.81203e+07
1.81201e+07
1.81199e+07
1.81198e+07
1.81196e+07
1.81194e+07
1.81192e+07
1.8119e+07
1.81188e+07
1.81186e+07
1.81184e+07
1.81182e+07
1.8118e+07
1.81179e+07
1.81177e+07
1.81175e+07
1.81174e+07
1.81172e+07
1.81171e+07
1.81169e+07
1.81168e+07
1.81167e+07
1.81166e+07
1.81166e+07
1.81165e+07
1.81164e+07
1.81164e+07
1.81163e+07
1.81163e+07
1.81162e+07
1.81162e+07
1.81162e+07
1.81161e+07
1.81161e+07
1.8116e+07
1.81159e+07
1.81159e+07
1.81158e+07
1.81157e+07
1.81156e+07
1.81155e+07
1.81153e+07
1.81152e+07
1.8115e+07
1.81148e+07
1.81147e+07
1.81145e+07
1.81142e+07
1.8114e+07
1.81138e+07
1.81135e+07
1.81133e+07
1.8113e+07
1.81127e+07
1.81124e+07
1.81122e+07
1.81119e+07
1.81116e+07
1.81113e+07
1.8111e+07
1.81107e+07
1.81104e+07
1.81101e+07
1.81099e+07
1.81096e+07
1.81094e+07
1.81092e+07
1.8109e+07
1.81088e+07
1.81086e+07
1.81084e+07
1.81083e+07
1.81082e+07
1.81081e+07
1.8108e+07
1.81079e+07
1.81078e+07
1.81077e+07
1.81076e+07
1.81075e+07
1.81075e+07
1.81074e+07
1.81073e+07
1.81071e+07
1.8107e+07
1.81069e+07
1.81067e+07
1.81066e+07
1.81233e+07
1.81228e+07
1.81222e+07
1.81214e+07
1.81209e+07
1.81206e+07
1.81204e+07
1.81203e+07
1.81202e+07
1.81201e+07
1.812e+07
1.812e+07
1.81199e+07
1.81198e+07
1.81197e+07
1.81196e+07
1.81196e+07
1.81195e+07
1.81194e+07
1.81193e+07
1.81192e+07
1.81192e+07
1.81191e+07
1.8119e+07
1.8119e+07
1.81189e+07
1.81189e+07
1.81188e+07
1.81188e+07
1.81188e+07
1.81188e+07
1.81188e+07
1.81188e+07
1.81188e+07
1.81189e+07
1.81189e+07
1.8119e+07
1.8119e+07
1.81191e+07
1.81191e+07
1.81192e+07
1.81193e+07
1.81194e+07
1.81194e+07
1.81195e+07
1.81196e+07
1.81196e+07
1.81197e+07
1.81197e+07
1.81198e+07
1.81198e+07
1.81199e+07
1.81199e+07
1.812e+07
1.81201e+07
1.81201e+07
1.81202e+07
1.81202e+07
1.81203e+07
1.81204e+07
1.81205e+07
1.81206e+07
1.81207e+07
1.81208e+07
1.81209e+07
1.81209e+07
1.8121e+07
1.81211e+07
1.81211e+07
1.81212e+07
1.81212e+07
1.81212e+07
1.81212e+07
1.81212e+07
1.81211e+07
1.81211e+07
1.8121e+07
1.8121e+07
1.8121e+07
1.81209e+07
1.81209e+07
1.81209e+07
1.81209e+07
1.81209e+07
1.81209e+07
1.81209e+07
1.81209e+07
1.81209e+07
1.8121e+07
1.8121e+07
1.81211e+07
1.81211e+07
1.81211e+07
1.81212e+07
1.81212e+07
1.81212e+07
1.81213e+07
1.81213e+07
1.81213e+07
1.81213e+07
1.81213e+07
1.81213e+07
1.81213e+07
1.81212e+07
1.81212e+07
1.81211e+07
1.8121e+07
1.81209e+07
1.81208e+07
1.81207e+07
1.81206e+07
1.81204e+07
1.81203e+07
1.81201e+07
1.81199e+07
1.81198e+07
1.81196e+07
1.81194e+07
1.81192e+07
1.8119e+07
1.81188e+07
1.81186e+07
1.81184e+07
1.81182e+07
1.8118e+07
1.81179e+07
1.81177e+07
1.81175e+07
1.81174e+07
1.81172e+07
1.81171e+07
1.81169e+07
1.81168e+07
1.81167e+07
1.81166e+07
1.81166e+07
1.81165e+07
1.81164e+07
1.81164e+07
1.81163e+07
1.81163e+07
1.81162e+07
1.81162e+07
1.81162e+07
1.81161e+07
1.81161e+07
1.8116e+07
1.81159e+07
1.81159e+07
1.81158e+07
1.81157e+07
1.81156e+07
1.81155e+07
1.81153e+07
1.81152e+07
1.8115e+07
1.81148e+07
1.81147e+07
1.81145e+07
1.81142e+07
1.8114e+07
1.81138e+07
1.81135e+07
1.81133e+07
1.8113e+07
1.81127e+07
1.81124e+07
1.81122e+07
1.81119e+07
1.81116e+07
1.81113e+07
1.8111e+07
1.81107e+07
1.81104e+07
1.81101e+07
1.81099e+07
1.81096e+07
1.81094e+07
1.81092e+07
1.8109e+07
1.81088e+07
1.81086e+07
1.81084e+07
1.81083e+07
1.81082e+07
1.81081e+07
1.8108e+07
1.81079e+07
1.81078e+07
1.81077e+07
1.81076e+07
1.81075e+07
1.81075e+07
1.81074e+07
1.81073e+07
1.81071e+07
1.8107e+07
1.81069e+07
1.8107e+07
1.81076e+07
1.81206e+07
1.81224e+07
1.81221e+07
1.81214e+07
1.81209e+07
1.81206e+07
1.81204e+07
1.81203e+07
1.81202e+07
1.81201e+07
1.812e+07
1.812e+07
1.81199e+07
1.81198e+07
1.81197e+07
1.81196e+07
1.81196e+07
1.81195e+07
1.81194e+07
1.81193e+07
1.81192e+07
1.81192e+07
1.81191e+07
1.8119e+07
1.8119e+07
1.81189e+07
1.81189e+07
1.81188e+07
1.81188e+07
1.81188e+07
1.81188e+07
1.81188e+07
1.81188e+07
1.81188e+07
1.81189e+07
1.81189e+07
1.8119e+07
1.8119e+07
1.81191e+07
1.81191e+07
1.81192e+07
1.81193e+07
1.81194e+07
1.81194e+07
1.81195e+07
1.81196e+07
1.81196e+07
1.81197e+07
1.81197e+07
1.81198e+07
1.81198e+07
1.81199e+07
1.81199e+07
1.812e+07
1.812e+07
1.81201e+07
1.81202e+07
1.81202e+07
1.81203e+07
1.81204e+07
1.81205e+07
1.81206e+07
1.81207e+07
1.81208e+07
1.81209e+07
1.81209e+07
1.8121e+07
1.81211e+07
1.81211e+07
1.81212e+07
1.81212e+07
1.81212e+07
1.81212e+07
1.81212e+07
1.81211e+07
1.81211e+07
1.8121e+07
1.8121e+07
1.8121e+07
1.81209e+07
1.81209e+07
1.81209e+07
1.81209e+07
1.81209e+07
1.81209e+07
1.81209e+07
1.81209e+07
1.81209e+07
1.8121e+07
1.8121e+07
1.81211e+07
1.81211e+07
1.81211e+07
1.81212e+07
1.81212e+07
1.81212e+07
1.81213e+07
1.81213e+07
1.81213e+07
1.81213e+07
1.81213e+07
1.81213e+07
1.81213e+07
1.81212e+07
1.81212e+07
1.81211e+07
1.8121e+07
1.81209e+07
1.81208e+07
1.81207e+07
1.81206e+07
1.81204e+07
1.81203e+07
1.81201e+07
1.81199e+07
1.81198e+07
1.81196e+07
1.81194e+07
1.81192e+07
1.8119e+07
1.81188e+07
1.81186e+07
1.81184e+07
1.81182e+07
1.8118e+07
1.81179e+07
1.81177e+07
1.81175e+07
1.81174e+07
1.81172e+07
1.81171e+07
1.81169e+07
1.81168e+07
1.81167e+07
1.81166e+07
1.81166e+07
1.81165e+07
1.81164e+07
1.81164e+07
1.81163e+07
1.81163e+07
1.81162e+07
1.81162e+07
1.81162e+07
1.81161e+07
1.81161e+07
1.8116e+07
1.81159e+07
1.81159e+07
1.81158e+07
1.81157e+07
1.81156e+07
1.81155e+07
1.81153e+07
1.81152e+07
1.8115e+07
1.81148e+07
1.81147e+07
1.81145e+07
1.81142e+07
1.8114e+07
1.81138e+07
1.81135e+07
1.81133e+07
1.8113e+07
1.81127e+07
1.81124e+07
1.81122e+07
1.81119e+07
1.81116e+07
1.81113e+07
1.8111e+07
1.81107e+07
1.81104e+07
1.81101e+07
1.81099e+07
1.81096e+07
1.81094e+07
1.81092e+07
1.8109e+07
1.81088e+07
1.81086e+07
1.81084e+07
1.81083e+07
1.81082e+07
1.81081e+07
1.8108e+07
1.81079e+07
1.81078e+07
1.81077e+07
1.81076e+07
1.81075e+07
1.81075e+07
1.81074e+07
1.81073e+07
1.81071e+07
1.8107e+07
1.81069e+07
1.8107e+07
1.81076e+07
1.80931e+07
1.8088e+07
1.80861e+07
1.80858e+07
1.80849e+07
1.80829e+07
1.80802e+07
1.80773e+07
1.8074e+07
1.80709e+07
1.80675e+07
1.80642e+07
1.8061e+07
1.80579e+07
1.8055e+07
1.80524e+07
1.80501e+07
1.80483e+07
1.80472e+07
1.80473e+07
1.80974e+07
1.80962e+07
1.80965e+07
1.80969e+07
1.80962e+07
1.80945e+07
1.8092e+07
1.80896e+07
1.80865e+07
1.80839e+07
1.80809e+07
1.8078e+07
1.80752e+07
1.80725e+07
1.807e+07
1.80676e+07
1.80655e+07
1.80638e+07
1.80626e+07
1.80616e+07
1.81068e+07
1.81067e+07
1.81062e+07
1.81053e+07
1.81042e+07
1.81027e+07
1.81011e+07
1.80991e+07
1.80969e+07
1.80943e+07
1.80913e+07
1.8088e+07
1.80844e+07
1.8081e+07
1.80778e+07
1.80748e+07
1.80715e+07
1.80677e+07
1.80636e+07
1.80591e+07
1.81115e+07
1.81128e+07
1.81127e+07
1.8112e+07
1.81114e+07
1.81108e+07
1.81099e+07
1.81082e+07
1.81066e+07
1.81053e+07
1.81048e+07
1.81053e+07
1.81071e+07
1.8107e+07
1.81032e+07
1.80957e+07
1.80885e+07
1.80847e+07
1.80819e+07
1.80793e+07
1.8113e+07
1.81157e+07
1.8116e+07
1.81153e+07
1.81147e+07
1.81141e+07
1.81132e+07
1.81117e+07
1.81101e+07
1.81088e+07
1.81082e+07
1.81086e+07
1.81103e+07
1.81107e+07
1.81075e+07
1.8101e+07
1.8094e+07
1.809e+07
1.80867e+07
1.80832e+07
1.80562e+07
1.8057e+07
1.80562e+07
1.80555e+07
1.80549e+07
1.80544e+07
1.80541e+07
1.80539e+07
1.80536e+07
1.80534e+07
1.80532e+07
1.80529e+07
1.80527e+07
1.80524e+07
1.80522e+07
1.8052e+07
1.80518e+07
1.80516e+07
1.80514e+07
1.80512e+07
1.8051e+07
1.80508e+07
1.80507e+07
1.80505e+07
1.80503e+07
1.80502e+07
1.805e+07
1.80498e+07
1.80497e+07
1.80495e+07
1.80494e+07
1.80492e+07
1.80491e+07
1.80489e+07
1.80488e+07
1.80486e+07
1.80485e+07
1.80483e+07
1.80482e+07
1.80481e+07
1.80479e+07
1.80478e+07
1.80476e+07
1.80475e+07
1.80474e+07
1.80472e+07
1.80471e+07
1.80469e+07
1.80468e+07
1.80466e+07
1.80465e+07
1.80463e+07
1.80461e+07
1.8046e+07
1.80458e+07
1.80457e+07
1.80455e+07
1.80454e+07
1.80452e+07
1.80451e+07
1.8045e+07
1.80449e+07
1.80448e+07
1.80447e+07
1.80447e+07
1.80446e+07
1.80445e+07
1.80444e+07
1.80443e+07
1.80442e+07
1.80441e+07
1.8044e+07
1.80439e+07
1.80438e+07
1.80437e+07
1.80435e+07
1.80434e+07
1.80433e+07
1.80431e+07
1.8043e+07
1.80429e+07
1.80428e+07
1.80427e+07
1.80426e+07
1.80425e+07
1.80424e+07
1.80424e+07
1.80423e+07
1.80422e+07
1.80421e+07
1.80421e+07
1.8042e+07
1.80419e+07
1.80418e+07
1.80417e+07
1.80416e+07
1.80415e+07
1.80413e+07
1.80408e+07
1.80395e+07
1.80589e+07
1.80574e+07
1.80563e+07
1.80555e+07
1.80549e+07
1.80545e+07
1.80541e+07
1.80539e+07
1.80536e+07
1.80534e+07
1.80532e+07
1.80529e+07
1.80527e+07
1.80524e+07
1.80522e+07
1.8052e+07
1.80518e+07
1.80516e+07
1.80514e+07
1.80512e+07
1.8051e+07
1.80508e+07
1.80507e+07
1.80505e+07
1.80503e+07
1.80502e+07
1.805e+07
1.80498e+07
1.80497e+07
1.80495e+07
1.80494e+07
1.80492e+07
1.80491e+07
1.80489e+07
1.80488e+07
1.80486e+07
1.80485e+07
1.80483e+07
1.80482e+07
1.80481e+07
1.80479e+07
1.80478e+07
1.80476e+07
1.80475e+07
1.80474e+07
1.80472e+07
1.80471e+07
1.80469e+07
1.80468e+07
1.80466e+07
1.80465e+07
1.80463e+07
1.80461e+07
1.8046e+07
1.80458e+07
1.80457e+07
1.80455e+07
1.80454e+07
1.80452e+07
1.80451e+07
1.8045e+07
1.80449e+07
1.80448e+07
1.80447e+07
1.80447e+07
1.80446e+07
1.80445e+07
1.80444e+07
1.80443e+07
1.80442e+07
1.80441e+07
1.8044e+07
1.80439e+07
1.80438e+07
1.80437e+07
1.80435e+07
1.80434e+07
1.80433e+07
1.80431e+07
1.8043e+07
1.80429e+07
1.80428e+07
1.80427e+07
1.80426e+07
1.80425e+07
1.80424e+07
1.80424e+07
1.80423e+07
1.80422e+07
1.80421e+07
1.80421e+07
1.8042e+07
1.80419e+07
1.80418e+07
1.80417e+07
1.80416e+07
1.80415e+07
1.80413e+07
1.80408e+07
1.80395e+07
1.80474e+07
1.80515e+07
1.80547e+07
1.80552e+07
1.80548e+07
1.80543e+07
1.8054e+07
1.80538e+07
1.80536e+07
1.80534e+07
1.80531e+07
1.80529e+07
1.80527e+07
1.80524e+07
1.80522e+07
1.8052e+07
1.80518e+07
1.80516e+07
1.80514e+07
1.80512e+07
1.8051e+07
1.80508e+07
1.80507e+07
1.80505e+07
1.80503e+07
1.80502e+07
1.805e+07
1.80498e+07
1.80497e+07
1.80495e+07
1.80494e+07
1.80492e+07
1.80491e+07
1.80489e+07
1.80488e+07
1.80486e+07
1.80485e+07
1.80483e+07
1.80482e+07
1.80481e+07
1.80479e+07
1.80478e+07
1.80476e+07
1.80475e+07
1.80473e+07
1.80472e+07
1.8047e+07
1.80469e+07
1.80467e+07
1.80466e+07
1.80464e+07
1.80462e+07