/*--------------------------------*- C++ -*----------------------------------*\
| =========                 |                                                 |
| \\      /  F ield         | OpenFOAM: The Open Source CFD Toolbox           |
|  \\    /   O peration     | Version:  3.0.x                                 |
|   \\  /    A nd           | Web:      www.OpenFOAM.org                      |
|    \\/     M anipulation  |                                                 |
\*---------------------------------------------------------------------------*/
FoamFile
{
    version     2.0;
    format      ascii;
    class       surfaceScalarField;
    location    "0.3";
    object      phi;
}
// * * * * * * * * * * * * * * * * * * * * * * * * * * * * * * * * * * * * * //

dimensions      [1 0 -1 0 0 0 0];

internalField   nonuniform List<scalar> 
12415
(
5.79662
0.000327735
5.79631
0.000235077
5.79601
0.000224707
5.79572
0.000226728
5.79544
0.000227158
5.79516
0.000227034
5.7949
0.000227048
5.79465
0.000227147
5.79442
0.000227182
5.79421
0.000227313
5.794
0.000227412
5.7938
0.0002275
5.79361
0.000227585
5.79342
0.000227666
5.79323
0.000227745
5.79305
0.000227826
5.79287
0.000227911
5.7927
0.000227989
5.79253
0.000228122
5.79237
0.000228218
5.79221
0.00022834
5.79205
0.000228466
5.79189
0.000228599
5.79172
0.000228732
5.79154
0.000228863
5.79135
0.000228987
5.79115
0.000229102
5.79094
0.000229201
5.79071
0.000229277
5.79047
0.00022931
5.79021
0.000229292
5.78994
0.000229194
5.78967
0.000228964
5.7894
0.000228713
5.78913
0.000227893
5.78887
0.000227077
5.7886
0.000225768
5.78834
0.00022395
5.78808
0.000221509
5.78782
0.000218324
5.78757
0.000214276
5.78732
0.00020926
5.78709
0.000203191
5.78687
0.000196023
5.78666
0.000187743
5.78647
0.000178385
5.7863
0.000168039
5.78615
0.000156823
5.78602
0.000144917
5.78591
0.000132526
5.78581
0.000119877
5.78573
0.000107207
5.78567
9.47517e-05
5.78561
8.2728e-05
5.78557
7.13267e-05
5.78553
6.06991e-05
5.7855
5.09673e-05
5.78547
4.22078e-05
5.78544
3.4447e-05
5.78541
2.7686e-05
5.78537
2.18814e-05
5.78532
1.6983e-05
5.78527
1.29184e-05
5.78521
9.58131e-06
5.78513
6.89613e-06
5.78505
4.75973e-06
5.78496
3.08578e-06
5.78486
1.79205e-06
5.78475
8.06427e-07
5.78463
6.67897e-08
5.78451
-4.84572e-07
5.78439
-8.85959e-07
5.78426
-1.17642e-06
5.78413
-1.38453e-06
5.784
-1.53077e-06
5.78387
-1.63475e-06
5.78374
-1.71775e-06
5.78362
-1.76406e-06
5.7835
-1.80149e-06
5.78338
-1.82885e-06
5.78327
-1.84903e-06
5.78315
-1.86436e-06
5.78304
-1.87634e-06
5.78292
-1.88588e-06
5.7828
-1.89352e-06
5.78267
-1.89961e-06
5.78253
-1.90446e-06
5.78238
-1.90827e-06
5.78222
-1.91114e-06
5.78204
-1.91315e-06
5.78184
-1.91439e-06
5.78162
-1.91493e-06
5.78137
-1.91483e-06
5.78109
-1.91421e-06
5.78078
-1.91319e-06
5.78044
-1.91184e-06
5.78006
-1.91017e-06
5.77965
-1.9082e-06
5.77921
-1.90599e-06
5.77873
-1.90367e-06
5.77822
-1.9015e-06
5.77767
-1.89969e-06
5.7771
-1.89851e-06
5.7765
-1.89808e-06
5.77587
-1.89856e-06
5.77523
-1.90017e-06
5.77457
-1.90305e-06
5.77389
-1.90722e-06
5.77321
-1.91259e-06
5.77252
-1.91902e-06
5.77183
-1.92635e-06
5.77114
-1.93438e-06
5.77045
-1.9429e-06
5.76977
-1.9517e-06
5.76909
-1.96056e-06
5.76842
-1.96932e-06
5.76776
-1.97777e-06
5.7671
-1.98575e-06
5.76645
-1.99309e-06
5.7658
-1.99971e-06
5.76515
-2.0054e-06
5.76449
-2.00994e-06
5.76383
-2.01301e-06
5.76316
-2.01459e-06
5.76248
-2.01489e-06
5.76178
-2.01407e-06
5.76107
-2.01211e-06
5.76033
-2.00895e-06
5.75957
-2.0046e-06
5.75878
-1.99918e-06
5.75795
-1.9928e-06
5.7571
-1.98558e-06
5.75621
-1.97763e-06
5.75528
-1.96911e-06
5.75432
-1.96024e-06
5.75333
-1.95134e-06
5.7523
-1.94279e-06
5.75124
-1.93514e-06
5.75015
-1.92856e-06
5.74904
-1.92325e-06
5.74791
-1.91915e-06
5.74677
-1.91671e-06
5.74563
-1.91637e-06
5.74449
-1.91863e-06
5.74336
-1.92291e-06
5.74224
-1.92962e-06
5.74115
-1.9375e-06
5.74008
-1.94758e-06
5.73904
-1.95783e-06
5.73803
-1.96988e-06
5.73705
-1.98118e-06
5.7361
-1.99333e-06
5.73517
-2.00393e-06
5.73426
-2.0137e-06
5.73338
-2.02231e-06
5.7325
-2.02954e-06
5.73163
-2.03496e-06
5.73077
-2.03803e-06
5.7299
-2.03956e-06
5.72902
-2.04005e-06
5.72813
-2.03966e-06
5.72723
-2.03786e-06
5.72631
-2.03445e-06
5.72537
-2.02901e-06
5.7244
-2.02219e-06
5.7234
-2.01362e-06
5.72236
-2.00319e-06
5.72129
-1.99154e-06
5.72017
-1.97791e-06
5.719
-1.96316e-06
5.71779
-1.94781e-06
5.71654
-1.93246e-06
5.71523
-1.91626e-06
5.71389
-1.8959e-06
5.71252
-1.88153e-06
5.71112
-1.86552e-06
5.7097
-1.85538e-06
5.70829
-1.8458e-06
5.70689
-1.84043e-06
5.70552
-1.83737e-06
5.7042
-1.84028e-06
5.70294
-1.84422e-06
5.70175
-1.85469e-06
5.70066
-1.86503e-06
5.69967
-1.88017e-06
5.69877
-1.89314e-06
5.69798
-1.90792e-06
5.69727
-1.91918e-06
5.69665
-1.93016e-06
5.69609
-1.93339e-06
5.69559
-1.92055e-06
5.69512
-1.81119e-06
5.69469
-1.25128e-06
5.69427
2.87999e-06
5.69384
3.14467e-05
5.69323
0.000230767
5.69126
0.00161953
5.67962
0.0113063
5.59008
0.089249
0.43938
5.15046
11.594
0.000260483
11.5939
0.000215672
11.5938
0.00018952
11.5937
0.000194062
11.5936
0.000195364
11.5935
0.000194832
11.5935
0.000194725
11.5934
0.000194815
11.5935
0.000194869
11.5935
0.000194969
11.5936
0.000195063
11.5937
0.000195146
11.5938
0.000195228
11.5939
0.000195307
11.594
0.000195385
11.5941
0.000195465
11.5943
0.000195548
11.5944
0.000195629
11.5946
0.000195749
11.5947
0.000195841
11.5949
0.00019596
11.5951
0.000196078
11.5952
0.000196203
11.5954
0.000196329
11.5955
0.000196452
11.5956
0.00019657
11.5957
0.00019668
11.5958
0.000196777
11.5958
0.000196854
11.5958
0.000196895
11.5958
0.000196891
11.5958
0.000196819
11.5957
0.00019664
11.5957
0.000196405
11.5956
0.000195762
11.5956
0.000195042
11.5955
0.000193933
11.5955
0.000192379
11.5954
0.00019029
11.5954
0.000187559
11.5953
0.000184084
11.5953
0.000179775
11.5952
0.000174558
11.5952
0.000168394
11.5952
0.000161273
11.5952
0.000153222
11.5952
0.000144322
11.5953
0.000134674
11.5953
0.000124432
11.5954
0.000113775
11.5954
0.000102898
11.5955
9.20047e-05
11.5956
8.12993e-05
11.5957
7.09676e-05
11.5957
6.11728e-05
11.5958
5.20462e-05
11.5958
4.36906e-05
11.5958
3.6172e-05
11.5959
2.95136e-05
11.5959
2.37137e-05
11.5958
1.87377e-05
11.5958
1.4538e-05
11.5957
1.10544e-05
11.5956
8.19726e-06
11.5955
5.89691e-06
11.5953
4.06856e-06
11.5951
2.63645e-06
11.5949
1.53051e-06
11.5947
6.88121e-07
11.5945
6.11858e-08
11.5942
-4.15467e-07
11.594
-7.57554e-07
11.5937
-1.00644e-06
11.5934
-1.18497e-06
11.5932
-1.31088e-06
11.5929
-1.40059e-06
11.5927
-1.47108e-06
11.5924
-1.51211e-06
11.5922
-1.54404e-06
11.5919
-1.56768e-06
11.5917
-1.5851e-06
11.5915
-1.59832e-06
11.5912
-1.60865e-06
11.591
-1.61687e-06
11.5907
-1.62344e-06
11.5905
-1.62869e-06
11.5902
-1.63286e-06
11.5899
-1.63613e-06
11.5896
-1.6386e-06
11.5892
-1.64033e-06
11.5888
-1.64139e-06
11.5883
-1.64185e-06
11.5878
-1.64177e-06
11.5873
-1.64124e-06
11.5867
-1.64036e-06
11.586
-1.6392e-06
11.5852
-1.63777e-06
11.5844
-1.63608e-06
11.5835
-1.63419e-06
11.5825
-1.63221e-06
11.5815
-1.63034e-06
11.5804
-1.6288e-06
11.5793
-1.62778e-06
11.5781
-1.62741e-06
11.5768
-1.62783e-06
11.5755
-1.62922e-06
11.5742
-1.63169e-06
11.5728
-1.63526e-06
11.5715
-1.63987e-06
11.5701
-1.64539e-06
11.5687
-1.65167e-06
11.5673
-1.65855e-06
11.5659
-1.66586e-06
11.5646
-1.6734e-06
11.5632
-1.681e-06
11.5619
-1.68851e-06
11.5605
-1.69575e-06
11.5592
-1.7026e-06
11.5579
-1.70889e-06
11.5566
-1.71455e-06
11.5553
-1.71945e-06
11.554
-1.72333e-06
11.5526
-1.72597e-06
11.5513
-1.72734e-06
11.5499
-1.72759e-06
11.5485
-1.72688e-06
11.5471
-1.7252e-06
11.5456
-1.72249e-06
11.5441
-1.71877e-06
11.5425
-1.71411e-06
11.5408
-1.70864e-06
11.5391
-1.70246e-06
11.5373
-1.69564e-06
11.5355
-1.68833e-06
11.5336
-1.68073e-06
11.5316
-1.67311e-06
11.5295
-1.66579e-06
11.5274
-1.6592e-06
11.5252
-1.65359e-06
11.523
-1.64901e-06
11.5207
-1.64551e-06
11.5184
-1.64343e-06
11.5161
-1.64315e-06
11.5139
-1.64507e-06
11.5116
-1.64876e-06
11.5094
-1.65448e-06
11.5072
-1.66129e-06
11.505
-1.66988e-06
11.5029
-1.67873e-06
11.5009
-1.68901e-06
11.4989
-1.69873e-06
11.497
-1.70913e-06
11.4952
-1.71818e-06
11.4934
-1.72665e-06
11.4916
-1.73396e-06
11.4898
-1.73996e-06
11.4881
-1.74509e-06
11.4863
-1.74737e-06
11.4846
-1.74893e-06
11.4828
-1.74885e-06
11.4811
-1.74901e-06
11.4793
-1.74722e-06
11.4774
-1.74452e-06
11.4755
-1.73956e-06
11.4736
-1.73382e-06
11.4716
-1.7267e-06
11.4695
-1.71746e-06
11.4673
-1.70779e-06
11.4651
-1.69583e-06
11.4628
-1.68324e-06
11.4603
-1.67037e-06
11.4578
-1.65614e-06
11.4552
-1.64452e-06
11.4525
-1.62364e-06
11.4498
-1.61542e-06
11.447
-1.59787e-06
11.4441
-1.59202e-06
11.4413
-1.58211e-06
11.4385
-1.57867e-06
11.4357
-1.57427e-06
11.4331
-1.57945e-06
11.4306
-1.57965e-06
11.4282
-1.59184e-06
11.426
-1.59754e-06
11.424
-1.61377e-06
11.4222
-1.62181e-06
11.4206
-1.63668e-06
11.4192
-1.64525e-06
11.418
-1.65664e-06
11.4168
-1.64558e-06
11.4158
-1.63234e-06
11.4149
-1.31195e-06
11.414
3.31561e-07
11.4132
1.25441e-05
11.4123
9.71274e-05
11.4111
0.000687395
11.4072
0.00479905
11.3846
0.0333181
11.2371
0.23616
1.10601
10.5699
139.128
-0.000260483
139.126
-0.000215672
139.125
-0.00018952
139.124
-0.000194062
139.123
-0.000195364
139.122
-0.000194832
139.121
-0.000194725
139.121
-0.000194815
139.122
-0.000194869
139.122
-0.000194969
139.123
-0.000195063
139.124
-0.000195146
139.126
-0.000195228
139.127
-0.000195307
139.128
-0.000195385
139.13
-0.000195465
139.131
-0.000195548
139.133
-0.000195629
139.135
-0.000195749
139.137
-0.000195841
139.139
-0.00019596
139.141
-0.000196078
139.143
-0.000196203
139.145
-0.000196329
139.146
-0.000196452
139.148
-0.00019657
139.149
-0.00019668
139.15
-0.000196777
139.15
-0.000196854
139.15
-0.000196895
139.15
-0.000196891
139.149
-0.000196819
139.149
-0.00019664
139.148
-0.000196405
139.147
-0.000195762
139.147
-0.000195042
139.146
-0.000193933
139.146
-0.000192379
139.145
-0.00019029
139.144
-0.000187559
139.144
-0.000184084
139.143
-0.000179775
139.143
-0.000174558
139.143
-0.000168394
139.143
-0.000161273
139.143
-0.000153222
139.143
-0.000144322
139.143
-0.000134674
139.144
-0.000124432
139.145
-0.000113775
139.145
-0.000102898
139.146
-9.20047e-05
139.147
-8.12993e-05
139.148
-7.09676e-05
139.149
-6.11728e-05
139.149
-5.20462e-05
139.15
-4.36906e-05
139.15
-3.6172e-05
139.15
-2.95136e-05
139.15
-2.37136e-05
139.15
-1.87377e-05
139.149
-1.4538e-05
139.148
-1.10544e-05
139.147
-8.19726e-06
139.145
-5.89692e-06
139.144
-4.06856e-06
139.141
-2.63645e-06
139.139
-1.53051e-06
139.136
-6.88123e-07
139.134
-6.11867e-08
139.131
4.15468e-07
139.128
7.57555e-07
139.125
1.00645e-06
139.121
1.18497e-06
139.118
1.31088e-06
139.115
1.40059e-06
139.112
1.47108e-06
139.109
1.51211e-06
139.106
1.54404e-06
139.103
1.56768e-06
139.1
1.58509e-06
139.098
1.59832e-06
139.095
1.60865e-06
139.092
1.61687e-06
139.089
1.62344e-06
139.086
1.62869e-06
139.083
1.63286e-06
139.079
1.63613e-06
139.075
1.63859e-06
139.071
1.64033e-06
139.066
1.64139e-06
139.06
1.64185e-06
139.054
1.64176e-06
139.047
1.64124e-06
139.04
1.64036e-06
139.032
1.6392e-06
139.023
1.63777e-06
139.013
1.63608e-06
139.002
1.6342e-06
138.991
1.63221e-06
138.978
1.63034e-06
138.965
1.6288e-06
138.951
1.62778e-06
138.937
1.62741e-06
138.922
1.62783e-06
138.906
1.62922e-06
138.89
1.63169e-06
138.874
1.63526e-06
138.858
1.63987e-06
138.841
1.64538e-06
138.824
1.65167e-06
138.808
1.65855e-06
138.791
1.66586e-06
138.775
1.6734e-06
138.758
1.681e-06
138.742
1.6885e-06
138.726
1.69575e-06
138.711
1.7026e-06
138.695
1.70889e-06
138.679
1.71456e-06
138.663
1.71945e-06
138.648
1.72333e-06
138.632
1.72597e-06
138.616
1.72733e-06
138.599
1.72759e-06
138.582
1.72688e-06
138.565
1.7252e-06
138.547
1.72249e-06
138.529
1.71877e-06
138.51
1.71411e-06
138.49
1.70864e-06
138.47
1.70246e-06
138.448
1.69564e-06
138.426
1.68833e-06
138.403
1.68073e-06
138.379
1.67311e-06
138.354
1.66578e-06
138.329
1.6592e-06
138.302
1.65359e-06
138.276
1.64901e-06
138.249
1.64552e-06
138.221
1.64342e-06
138.194
1.64318e-06
138.166
1.64501e-06
138.139
1.64884e-06
138.112
1.65436e-06
138.086
1.66146e-06
138.06
1.66964e-06
138.035
1.67902e-06
138.011
1.68864e-06
137.987
1.69916e-06
137.964
1.70868e-06
137.942
1.71851e-06
137.92
1.72636e-06
137.899
1.7341e-06
137.878
1.74044e-06
137.857
1.74434e-06
137.836
1.74788e-06
137.815
1.74802e-06
137.794
1.7505e-06
137.773
1.74781e-06
137.751
1.74807e-06
137.729
1.74313e-06
137.706
1.74074e-06
137.683
1.73376e-06
137.659
1.72596e-06
137.634
1.71854e-06
137.608
1.70674e-06
137.581
1.69656e-06
137.553
1.68356e-06
137.524
1.66883e-06
137.494
1.65934e-06
137.463
1.63537e-06
137.43
1.63767e-06
137.397
1.60185e-06
137.364
1.61144e-06
137.33
1.5787e-06
137.296
1.5928e-06
137.262
1.5672e-06
137.229
1.58864e-06
137.197
1.56393e-06
137.167
1.59483e-06
137.139
1.57805e-06
137.112
1.61139e-06
137.088
1.59827e-06
137.067
1.638e-06
137.048
1.62557e-06
137.031
1.65604e-06
137.016
1.62522e-06
137.002
1.73615e-06
136.99
1.60052e-06
136.979
2.13584e-06
136.968
4.12746e-06
136.958
2.03376e-05
136.949
0.000133628
136.939
0.000942838
136.929
0.00672631
136.906
0.0482536
136.753
0.382233
1.64163
136.212
11.594
-0.000327735
11.5939
-0.000235077
11.5938
-0.000224707
11.5937
-0.000226728
11.5936
-0.000227158
11.5935
-0.000227034
11.5935
-0.000227048
11.5934
-0.000227147
11.5935
-0.000227182
11.5935
-0.000227313
11.5936
-0.000227412
11.5937
-0.0002275
11.5938
-0.000227585
11.5939
-0.000227666
11.594
-0.000227745
11.5941
-0.000227826
11.5943
-0.000227911
11.5944
-0.000227989
11.5946
-0.000228122
11.5947
-0.000228218
11.5949
-0.00022834
11.5951
-0.000228466
11.5952
-0.000228599
11.5954
-0.000228732
11.5955
-0.000228863
11.5956
-0.000228987
11.5957
-0.000229102
11.5958
-0.000229201
11.5958
-0.000229277
11.5958
-0.00022931
11.5958
-0.000229292
11.5958
-0.000229194
11.5957
-0.000228964
11.5957
-0.000228713
11.5956
-0.000227893
11.5956
-0.000227077
11.5955
-0.000225768
11.5955
-0.00022395
11.5954
-0.000221509
11.5954
-0.000218324
11.5953
-0.000214276
11.5953
-0.00020926
11.5952
-0.000203191
11.5952
-0.000196023
11.5952
-0.000187743
11.5952
-0.000178385
11.5952
-0.000168039
11.5953
-0.000156823
11.5953
-0.000144917
11.5954
-0.000132526
11.5954
-0.000119877
11.5955
-0.000107207
11.5956
-9.47517e-05
11.5957
-8.2728e-05
11.5957
-7.13267e-05
11.5958
-6.06991e-05
11.5958
-5.09673e-05
11.5958
-4.22078e-05
11.5959
-3.4447e-05
11.5959
-2.7686e-05
11.5958
-2.18814e-05
11.5958
-1.6983e-05
11.5957
-1.29184e-05
11.5956
-9.58131e-06
11.5955
-6.89613e-06
11.5953
-4.75973e-06
11.5951
-3.08578e-06
11.5949
-1.79205e-06
11.5947
-8.06423e-07
11.5945
-6.67878e-08
11.5942
4.84573e-07
11.594
8.85962e-07
11.5937
1.17642e-06
11.5934
1.38453e-06
11.5932
1.53077e-06
11.5929
1.63475e-06
11.5927
1.71775e-06
11.5924
1.76406e-06
11.5922
1.80149e-06
11.5919
1.82885e-06
11.5917
1.84903e-06
11.5915
1.86436e-06
11.5912
1.87634e-06
11.591
1.88588e-06
11.5907
1.89352e-06
11.5905
1.89961e-06
11.5902
1.90446e-06
11.5899
1.90827e-06
11.5896
1.91114e-06
11.5892
1.91315e-06
11.5888
1.91439e-06
11.5883
1.91493e-06
11.5878
1.91483e-06
11.5873
1.91421e-06
11.5867
1.91319e-06
11.586
1.91184e-06
11.5852
1.91016e-06
11.5844
1.9082e-06
11.5835
1.90599e-06
11.5825
1.90368e-06
11.5815
1.9015e-06
11.5804
1.8997e-06
11.5793
1.89851e-06
11.5781
1.89808e-06
11.5768
1.89856e-06
11.5755
1.90017e-06
11.5742
1.90305e-06
11.5728
1.90722e-06
11.5715
1.91259e-06
11.5701
1.91902e-06
11.5687
1.92635e-06
11.5673
1.93438e-06
11.5659
1.9429e-06
11.5646
1.9517e-06
11.5632
1.96056e-06
11.5619
1.96931e-06
11.5605
1.97777e-06
11.5592
1.98575e-06
11.5579
1.99309e-06
11.5566
1.99971e-06
11.5553
2.0054e-06
11.554
2.00995e-06
11.5526
2.01301e-06
11.5513
2.01459e-06
11.5499
2.01489e-06
11.5485
2.01407e-06
11.5471
2.01211e-06
11.5456
2.00895e-06
11.5441
2.0046e-06
11.5425
1.99918e-06
11.5408
1.9928e-06
11.5391
1.98558e-06
11.5373
1.97763e-06
11.5355
1.96911e-06
11.5336
1.96024e-06
11.5316
1.95134e-06
11.5295
1.94279e-06
11.5274
1.93514e-06
11.5252
1.92856e-06
11.523
1.92324e-06
11.5207
1.91916e-06
11.5184
1.91668e-06
11.5161
1.91641e-06
11.5139
1.91856e-06
11.5116
1.92301e-06
11.5094
1.92947e-06
11.5072
1.9377e-06
11.505
1.94734e-06
11.5029
1.95813e-06
11.5009
1.96956e-06
11.4989
1.98154e-06
11.497
1.99302e-06
11.4952
2.00405e-06
11.4934
2.01363e-06
11.4916
2.02235e-06
11.4898
2.0298e-06
11.4881
2.03461e-06
11.4863
2.03821e-06
11.4846
2.03928e-06
11.4828
2.04055e-06
11.4811
2.03932e-06
11.4793
2.03813e-06
11.4774
2.03395e-06
11.4755
2.02942e-06
11.4736
2.02214e-06
11.4716
2.01338e-06
11.4695
2.0036e-06
11.4673
1.99115e-06
11.4651
1.97815e-06
11.4628
1.9633e-06
11.4603
1.94726e-06
11.4578
1.93352e-06
11.4552
1.91319e-06
11.4525
1.90064e-06
11.4498
1.87694e-06
11.447
1.87014e-06
11.4441
1.85087e-06
11.4413
1.84939e-06
11.4385
1.8366e-06
11.4357
1.8422e-06
11.4331
1.83505e-06
11.4306
1.84933e-06
11.4282
1.85005e-06
11.426
1.86969e-06
11.424
1.87493e-06
11.4222
1.89861e-06
11.4206
1.90419e-06
11.4192
1.92276e-06
11.418
1.91968e-06
11.4168
1.96384e-06
11.4158
1.91012e-06
11.4149
2.0913e-06
11.414
2.76644e-06
11.4132
8.28108e-06
11.4125
4.68606e-05
11.4124
0.000322831
11.4161
0.00231337
11.4465
0.0172107
11.6416
0.186558
0.709099
12.5736
5.79662
5.79631
5.79601
5.79572
5.79544
5.79516
5.7949
5.79465
5.79442
5.79421
5.794
5.7938
5.79361
5.79342
5.79323
5.79305
5.79287
5.7927
5.79253
5.79237
5.79221
5.79205
5.79189
5.79172
5.79154
5.79135
5.79115
5.79094
5.79071
5.79047
5.79021
5.78994
5.78967
5.7894
5.78913
5.78887
5.7886
5.78834
5.78808
5.78782
5.78757
5.78732
5.78709
5.78687
5.78666
5.78647
5.7863
5.78615
5.78602
5.78591
5.78581
5.78573
5.78567
5.78561
5.78557
5.78553
5.7855
5.78547
5.78544
5.78541
5.78537
5.78532
5.78527
5.78521
5.78513
5.78505
5.78496
5.78486
5.78475
5.78463
5.78451
5.78439
5.78426
5.78413
5.784
5.78387
5.78374
5.78362
5.7835
5.78338
5.78327
5.78315
5.78304
5.78292
5.7828
5.78267
5.78253
5.78238
5.78222
5.78204
5.78184
5.78162
5.78137
5.78109
5.78078
5.78044
5.78006
5.77965
5.77921
5.77873
5.77822
5.77767
5.7771
5.7765
5.77587
5.77523
5.77457
5.77389
5.77321
5.77252
5.77183
5.77114
5.77045
5.76977
5.76909
5.76842
5.76776
5.7671
5.76645
5.7658
5.76515
5.76449
5.76383
5.76316
5.76248
5.76178
5.76107
5.76033
5.75957
5.75878
5.75795
5.7571
5.75621
5.75528
5.75432
5.75333
5.7523
5.75124
5.75015
5.74904
5.74791
5.74677
5.74563
5.74449
5.74336
5.74224
5.74115
5.74008
5.73904
5.73803
5.73705
5.7361
5.73517
5.73426
5.73338
5.7325
5.73163
5.73077
5.7299
5.72902
5.72813
5.72723
5.72631
5.72537
5.7244
5.7234
5.72236
5.72129
5.72017
5.719
5.71779
5.71654
5.71523
5.71389
5.71252
5.71112
5.7097
5.70829
5.70689
5.70552
5.7042
5.70294
5.70175
5.70066
5.69967
5.69877
5.69798
5.69727
5.69665
5.69609
5.69559
5.69512
5.69469
5.69428
5.69393
5.69387
5.69584
5.71272
5.89899
6.60783
5.02487
0.125529
5.03175
-0.00693318
5.02749
0.00422305
5.03066
-0.00321332
5.04218
-0.0115395
5.05898
-0.0167809
5.11455
-0.0555428
5.23914
-0.124755
5.38113
-0.142469
5.43026
-0.0500041
5.38674
0.0430106
5.28504
0.101467
5.14818
0.136837
5.05332
0.0954686
5.20725
-0.152093
5.66162
-0.452388
6.29443
-0.631951
6.87408
-0.580471
7.22588
-0.353926
-0.410414
7.6339
10.5172
0.178172
10.5352
-0.0250773
10.5815
-0.0421057
10.6342
-0.0559692
10.6969
-0.0743338
10.7677
-0.0875815
10.9173
-0.205022
11.2062
-0.414041
11.5462
-0.483409
11.7118
-0.217332
11.6988
0.0551593
11.5548
0.24511
11.2946
0.397031
11.0171
0.374099
11.117
-0.247877
11.756
-1.08776
12.8192
-1.69426
14.0053
-1.76892
14.8492
-1.2026
-1.11448
15.5485
136.265
0.123842
136.342
-0.103379
136.352
-0.0529937
136.2
0.0953668
135.895
0.229993
135.488
0.319161
134.91
0.372883
134.132
0.362908
133.255
0.394617
132.676
0.361839
132.374
0.355938
132.29
0.327383
132.385
0.298945
132.484
0.271763
131.984
0.246665
130.671
0.220366
128.792
0.183629
126.903
0.124832
125.675
0.0327091
-0.195558
124.761
12.5177
0.179646
12.4207
-0.0063813
12.3752
-0.00763158
12.4465
0.0239005
12.6197
0.0566384
12.856
0.0825973
13.1274
0.100796
13.3885
0.102283
13.6715
0.111032
13.9301
0.103617
14.1865
0.0995858
14.4239
0.0898534
14.6438
0.078962
14.8471
0.0684215
15.0355
0.0581012
15.2101
0.0455772
15.3683
0.0251546
15.5042
-0.0113642
15.613
-0.0763164
-0.261983
15.6791
6.78745
6.78104
6.77336
6.7972
6.85375
6.9362
7.03678
7.13916
7.25005
7.35377
7.45338
7.54321
7.62213
7.6905
7.74853
7.79402
7.81906
7.80756
7.73111
7.46899
7.30276
0.330577
7.45786
-0.152608
7.82452
-0.367251
7.93878
-0.115909
7.91252
0.0254083
7.87742
0.0345972
7.88191
-0.0048272
7.8997
-0.0183512
7.90414
-0.00496904
7.89967
0.00408228
7.89282
0.00645906
7.88677
0.0056732
7.88193
0.0044905
7.87755
0.00405968
7.87319
0.00409032
7.86877
0.00416142
7.86444
0.00410248
7.86034
0.00390978
7.85654
0.00363291
7.8531
0.00330451
7.85006
0.002936
7.84747
0.00253036
7.84533
0.00210284
7.84366
0.00167802
7.84242
0.00128798
7.84153
0.000968991
7.8409
0.000752128
7.84039
0.000655441
7.83989
0.000690526
7.83927
0.000832951
7.83853
0.000979634
7.83799
0.000796381
7.83909
-0.000811016
7.84412
-0.00473446
7.85084
-0.00645674
7.85568
-0.00459232
7.85709
-0.00116674
7.85585
0.00146727
7.8541
0.00196432
7.85224
0.00204491
7.85054
0.00185026
7.84911
0.001552
7.84796
0.00123796
7.84704
0.00096326
7.84628
0.000765595
7.84556
0.00067986
7.84475
0.000725371
7.84371
0.000914943
7.8423
0.00124689
7.84038
0.00172552
7.83769
0.00248176
7.83388
0.00358364
7.82848
0.00516923
7.82086
0.00737353
7.81032
0.0102964
7.79606
0.0140072
7.77734
0.0184673
7.75345
0.0236143
7.72382
0.0293895
7.68784
0.0357541
7.6449
0.0427635
7.5942
0.0505474
7.53478
0.0592995
7.46551
0.0691659
7.3852
0.080193
7.29252
0.0923424
7.18663
0.104717
7.06835
0.116923
6.93976
0.127953
6.80332
0.13632
6.66286
0.140716
6.52324
0.141032
6.38861
0.135966
6.26297
0.126448
6.14987
0.113501
6.05158
0.098462
5.96887
0.0827753
5.90126
0.0676333
5.84734
0.0538791
5.80532
0.0420189
5.77317
0.0321538
5.74897
0.0242093
5.73099
0.0179741
5.71779
0.0131822
5.7082
0.00956319
5.70127
0.0068697
5.6963
0.0048907
5.69274
0.00345214
5.69018
0.0024172
5.68832
0.00167938
5.68695
0.00115793
5.68591
0.000792353
5.68509
0.000538171
5.68441
0.000362774
5.68382
0.000242669
5.68327
0.000161049
5.68275
0.000106
5.68224
6.91499e-05
5.68172
4.4677e-05
5.6812
2.85211e-05
5.68067
1.79377e-05
5.68013
1.1085e-05
5.67959
6.65406e-06
5.67903
3.81525e-06
5.67847
2.00882e-06
5.67792
8.66088e-07
5.67736
1.47389e-07
5.6768
-3.02727e-07
5.67625
-5.8285e-07
5.6757
-7.59323e-07
5.67516
-8.6931e-07
5.67463
-9.39188e-07
5.67412
-9.84182e-07
5.67361
-1.01375e-06
5.67311
-1.03359e-06
5.67262
-1.04708e-06
5.67214
-1.05623e-06
5.67167
-1.06223e-06
5.67121
-1.0658e-06
5.67075
-1.06737e-06
5.6703
-1.06715e-06
5.66984
-1.06529e-06
5.66939
-1.06194e-06
5.66893
-1.05721e-06
5.66846
-1.05113e-06
5.66797
-1.04372e-06
5.66748
-1.03503e-06
5.66696
-1.0252e-06
5.66642
-1.01439e-06
5.66586
-1.00279e-06
5.66528
-9.90571e-07
5.66466
-9.7794e-07
5.66401
-9.65128e-07
5.66334
-9.52419e-07
5.66263
-9.40114e-07
5.66189
-9.28516e-07
5.66111
-9.17918e-07
5.66031
-9.08563e-07
5.65948
-9.00643e-07
5.65863
-8.94273e-07
5.65775
-8.89537e-07
5.65686
-8.86554e-07
5.65595
-8.8546e-07
5.65503
-8.86368e-07
5.65411
-8.89311e-07
5.65318
-8.94215e-07
5.65226
-9.00989e-07
5.65134
-9.09451e-07
5.65043
-9.19435e-07
5.64953
-9.30653e-07
5.64864
-9.42902e-07
5.64777
-9.55784e-07
5.64691
-9.69132e-07
5.64607
-9.82565e-07
5.64525
-9.96102e-07
5.64444
-1.00932e-06
5.64365
-1.02244e-06
5.64287
-1.03489e-06
5.64211
-1.04706e-06
5.64137
-1.0583e-06
5.64064
-1.06911e-06
5.63993
-1.07884e-06
5.63923
-1.08803e-06
5.63854
-1.0961e-06
5.63787
-1.10327e-06
5.6372
-1.10899e-06
5.63654
-1.11353e-06
5.63589
-1.11634e-06
5.63524
-1.11756e-06
5.63458
-1.11678e-06
5.63391
-1.11423e-06
5.63323
-1.10944e-06
5.63253
-1.10288e-06
5.63181
-1.09378e-06
5.63105
-1.08299e-06
5.63025
-1.06986e-06
5.62941
-1.05564e-06
5.62853
-1.03925e-06
5.6276
-1.02225e-06
5.62661
-1.00397e-06
5.62557
-9.86114e-07
5.62448
-9.668e-07
5.62333
-9.49478e-07
5.62214
-9.31075e-07
5.6209
-9.16159e-07
5.61962
-9.00203e-07
5.61831
-8.8946e-07
5.61697
-8.78294e-07
5.61561
-8.79027e-07
5.61424
-9.06955e-07
5.61287
-1.08999e-06
5.61152
-2.03454e-06
5.6102
-7.07148e-06
5.60894
-3.15555e-05
5.60785
-0.000161131
5.60748
-0.000829153
5.61066
-0.00433555
5.63304
-0.0234808
5.80331
-0.171324
-0.66687
6.46917
14.6366
1.24189
14.4762
0.0125508
15.0075
-0.899301
15.2628
-0.374685
15.2359
0.0505374
15.1503
0.119209
15.1368
0.0079172
15.166
-0.048667
15.1819
-0.0219115
15.1787
0.00651274
15.1674
0.016991
15.1562
0.0160972
15.1471
0.0128863
15.139
0.0115583
15.1309
0.011663
15.1225
0.012019
15.1141
0.0120581
15.1059
0.0117252
15.098
0.011151
15.0906
0.010429
15.0838
0.00958829
15.0776
0.00863003
15.072
0.00759195
15.0671
0.0065455
15.0629
0.0055942
15.0592
0.00486273
15.0557
0.00447089
15.0521
0.00452379
15.0481
0.00508756
15.0432
0.00614841
15.0372
0.00744126
15.0305
0.00799412
15.026
0.00429681
15.0302
-0.00836269
15.0421
-0.0178244
15.0551
-0.0171202
15.0637
-0.00928218
15.0664
-0.000685737
15.0662
0.00257563
15.0642
0.00435678
15.0613
0.0050764
15.0578
0.00532457
15.0538
0.00542979
15.0492
0.00559354
15.044
0.00599954
15.0378
0.00678475
15.0303
0.0080144
15.0212
0.00971233
15.0103
0.0118099
14.9974
0.0142288
14.9823
0.0172554
14.9644
0.0210039
14.9432
0.0258336
14.9179
0.0321548
14.8874
0.0403138
14.8502
0.0505831
14.8051
0.0629998
14.7508
0.0774317
14.686
0.0937289
14.6096
0.111776
14.5204
0.131624
14.4172
0.153459
14.2987
0.177569
14.1635
0.204042
14.0105
0.232625
13.8389
0.262345
13.65
0.291689
13.447
0.318839
13.2337
0.341032
13.0149
0.355294
12.7973
0.359867
12.5869
0.353732
12.3888
0.335703
12.2078
0.308301
12.0477
0.27413
11.9101
0.236293
11.795
0.197934
11.7012
0.161561
11.6263
0.128843
11.5676
0.100742
11.5224
0.0773908
11.4881
0.0585468
11.4624
0.0436991
11.4433
0.0322288
11.4293
0.0235138
11.4191
0.0169858
11.4117
0.0121581
11.4063
0.00862581
11.4023
0.00606867
11.3994
0.00423484
11.3972
0.00293165
11.3955
0.00201337
11.3941
0.00137202
11.3929
0.000927667
11.3918
0.000622325
11.3908
0.000414201
11.3898
0.000273485
11.3888
0.000179099
11.3878
0.000116326
11.3868
7.4829e-05
11.3857
4.76527e-05
11.3846
3.00462e-05
11.3836
1.86661e-05
11.3824
1.13871e-05
11.3813
6.76589e-06
11.3802
3.85336e-06
11.3791
2.03135e-06
11.378
8.98119e-07
11.3769
2.00302e-07
11.3758
-2.3351e-07
11.3747
-4.97069e-07
11.3736
-6.589e-07
11.3726
-7.58171e-07
11.3716
-8.19399e-07
11.3706
-8.57471e-07
11.3696
-8.81304e-07
11.3686
-8.96236e-07
11.3677
-9.05448e-07
11.3668
-9.10825e-07
11.3658
-9.13466e-07
11.3649
-9.14007e-07
11.364
-9.12832e-07
11.3631
-9.10194e-07
11.3622
-9.06259e-07
11.3612
-9.01113e-07
11.3603
-8.948e-07
11.3593
-8.87377e-07
11.3582
-8.78962e-07
11.3572
-8.69699e-07
11.356
-8.59743e-07
11.3549
-8.49263e-07
11.3536
-8.38426e-07
11.3523
-8.27442e-07
11.351
-8.16549e-07
11.3496
-8.06002e-07
11.3481
-7.9606e-07
11.3465
-7.86974e-07
11.3449
-7.7895e-07
11.3433
-7.72165e-07
11.3415
-7.66697e-07
11.3398
-7.62657e-07
11.338
-7.60104e-07
11.3362
-7.59176e-07
11.3343
-7.59942e-07
11.3325
-7.62461e-07
11.3306
-7.66657e-07
11.3288
-7.72484e-07
11.327
-7.79726e-07
11.3251
-7.88313e-07
11.3233
-7.97897e-07
11.3215
-8.08439e-07
11.3198
-8.19421e-07
11.3181
-8.30953e-07
11.3164
-8.42362e-07
11.3148
-8.54109e-07
11.3131
-8.65257e-07
11.3115
-8.76745e-07
11.31
-8.87132e-07
11.3085
-8.97852e-07
11.307
-9.07193e-07
11.3055
-9.168e-07
11.3041
-9.24837e-07
11.3027
-9.32949e-07
11.3013
-9.39699e-07
11.3
-9.46021e-07
11.2986
-9.50705e-07
11.2973
-9.54809e-07
11.296
-9.57107e-07
11.2947
-9.58234e-07
11.2934
-9.57437e-07
11.292
-9.5542e-07
11.2907
-9.51027e-07
11.2893
-9.45793e-07
11.2878
-9.37577e-07
11.2863
-9.28714e-07
11.2847
-9.16976e-07
11.283
-9.05529e-07
11.2813
-8.90748e-07
11.2794
-8.76577e-07
11.2774
-8.60333e-07
11.2753
-8.46288e-07
11.2731
-8.28085e-07
11.2709
-8.1492e-07
11.2685
-7.97163e-07
11.266
-7.86828e-07
11.2634
-7.7051e-07
11.2608
-7.64813e-07
11.2581
-7.53675e-07
11.2554
-7.71246e-07
11.2526
-8.63261e-07
11.2499
-1.40441e-06
11.2472
-4.17346e-06
11.2446
-1.87258e-05
11.242
-9.11382e-05
11.2399
-0.000471358
11.2391
-0.00243094
11.245
-0.0126178
11.2853
-0.0659676
11.4813
-0.369442
-1.52955
12.342
125.959
0.0292681
125.899
0.0455179
124.931
0.048329
124.517
0.0239391
124.553
0.000102643
124.66
-0.00155155
124.652
0.00235271
124.59
0.000355201
124.562
-0.00475869
124.564
-0.00605562
124.578
-0.0061514
124.592
-0.00668082
124.605
-0.00767066
124.617
-0.00853797
124.631
-0.00897947
124.647
-0.0090751
124.662
-0.00896474
124.678
-0.00871587
124.693
-0.00834298
124.708
-0.00785122
124.722
-0.00727743
124.736
-0.00665835
124.749
-0.00603884
124.761
-0.00544639
124.772
-0.00488033
124.784
-0.00433753
124.795
-0.0037677
124.806
-0.0031831
124.819
-0.00250408
124.832
-0.00160336
124.845
-0.00073831
124.859
1.99124e-05
124.87
0.00046909
124.867
0.000440715
124.856
-0.000751527
124.848
-0.0022069
124.847
-0.00291483
124.855
-0.00263813
124.864
-0.00215299
124.874
-0.00185831
124.884
-0.00192098
124.894
-0.00237811
124.904
-0.00330078
124.915
-0.00459039
124.927
-0.00629177
124.941
-0.00844988
124.959
-0.0112094
124.981
-0.0148517
125.012
-0.019795
125.057
-0.02648
125.114
-0.0358787
125.186
-0.0485834
125.277
-0.0653182
125.395
-0.0866703
125.545
-0.112944
125.736
-0.143984
125.973
-0.179119
126.263
-0.216994
126.607
-0.255519
127.007
-0.292003
127.458
-0.323499
127.954
-0.347198
128.49
-0.361129
129.057
-0.365213
129.648
-0.360164
130.257
-0.347453
130.878
-0.328893
131.504
-0.306162
132.127
-0.280142
132.736
-0.252098
133.32
-0.222461
133.868
-0.192609
134.369
-0.163916
134.816
-0.137131
135.205
-0.11286
135.534
-0.0915574
135.807
-0.0733282
136.029
-0.0580417
136.204
-0.0454664
136.342
-0.0352407
136.448
-0.0270337
136.528
-0.0205243
136.587
-0.0154204
136.631
-0.0114645
136.662
-0.00843426
136.684
-0.00613939
136.699
-0.00442333
136.708
-0.00315313
136.713
-0.0022247
136.715
-0.00155358
136.714
-0.0010739
136.711
-0.000734656
136.706
-0.000497583
136.699
-0.000333583
136.692
-0.000221339
136.683
-0.000145336
136.673
-9.44042e-05
136.663
-6.06261e-05
136.652
-3.84719e-05
136.64
-2.40358e-05
136.628
-1.47615e-05
136.615
-8.8662e-06
136.602
-5.1412e-06
136.589
-2.81154e-06
136.576
-1.36787e-06
136.562