/*--------------------------------*- C++ -*----------------------------------*\
| =========                 |                                                 |
| \\      /  F ield         | OpenFOAM: The Open Source CFD Toolbox           |
|  \\    /   O peration     | Version:  3.0.x                                 |
|   \\  /    A nd           | Web:      www.OpenFOAM.org                      |
|    \\/     M anipulation  |                                                 |
\*---------------------------------------------------------------------------*/
FoamFile
{
    version     2.0;
    format      ascii;
    class       volScalarField;
    location    "0.3";
    object      T;
}
// * * * * * * * * * * * * * * * * * * * * * * * * * * * * * * * * * * * * * //

dimensions      [0 0 0 1 0 0 0];

internalField   nonuniform List<scalar> 
6900
(
774.443
774.443
774.443
774.443
774.443
774.443
774.442
774.441
774.439
774.436
774.433
774.43
774.428
774.427
774.426
774.426
774.425
774.425
774.424
774.422
774.419
774.417
774.413
774.41
774.406
774.403
774.4
774.397
774.394
774.393
774.393
774.392
774.392
774.391
774.39
774.387
774.384
774.382
774.379
774.377
774.375
774.374
774.373
774.373
774.373
774.372
774.372
774.372
774.372
774.371
774.371
774.371
774.371
774.371
774.371
774.37
774.37
774.37
774.37
774.37
774.37
774.37
774.37
774.37
774.37
774.37
774.37
774.37
774.371
774.371
774.371
774.371
774.371
774.371
774.371
774.371
774.371
774.371
774.371
774.371
774.37
774.37
774.37
774.369
774.369
774.368
774.368
774.367
774.367
774.366
774.366
774.365
774.365
774.364
774.363
774.363
774.362
774.362
774.361
774.361
774.36
774.36
774.359
774.358
774.358
774.357
774.357
774.356
774.356
774.355
774.354
774.353
774.352
774.352
774.351
774.349
774.348
774.347
774.346
774.345
774.343
774.342
774.34
774.339
774.337
774.336
774.334
774.333
774.331
774.33
774.329
774.327
774.326
774.325
774.323
774.322
774.321
774.32
774.319
774.318
774.317
774.316
774.315
774.314
774.313
774.311
774.31
774.309
774.308
774.306
774.305
774.303
774.301
774.3
774.298
774.296
774.294
774.292
774.29
774.288
774.286
774.284
774.281
774.279
774.277
774.275
774.273
774.271
774.269
774.268
774.266
774.264
774.263
774.262
774.26
774.259
774.258
774.257
774.256
774.255
774.254
774.253
774.252
774.251
774.249
774.248
774.246
774.245
774.243
774.241
774.239
774.238
774.236
774.234
774.233
774.231
774.229
774.229
774.228
774.296
774.441
774.441
774.441
774.441
774.441
774.44
774.44
774.439
774.437
774.434
774.431
774.428
774.426
774.425
774.424
774.424
774.423
774.423
774.422
774.42
774.418
774.415
774.411
774.408
774.404
774.401
774.398
774.395
774.393
774.391
774.391
774.391
774.39
774.39
774.388
774.386
774.383
774.38
774.378
774.376
774.374
774.373
774.372
774.371
774.371
774.371
774.371
774.37
774.37
774.37
774.37
774.37
774.369
774.369
774.369
774.369
774.369
774.369
774.369
774.369
774.369
774.369
774.369
774.369
774.369
774.369
774.369
774.369
774.369
774.369
774.369
774.369
774.37
774.37
774.37
774.37
774.37
774.369
774.369
774.369
774.369
774.369
774.368
774.368
774.367
774.367
774.367
774.366
774.365
774.365
774.364
774.364
774.363
774.363
774.362
774.361
774.361
774.36
774.36
774.359
774.359
774.358
774.358
774.357
774.357
774.356
774.355
774.355
774.354
774.353
774.353
774.352
774.351
774.35
774.349
774.348
774.347
774.346
774.344
774.343
774.342
774.34
774.339
774.338
774.336
774.335
774.333
774.332
774.33
774.329
774.327
774.326
774.324
774.323
774.322
774.321
774.32
774.318
774.317
774.316
774.315
774.314
774.313
774.312
774.311
774.31
774.309
774.308
774.306
774.305
774.303
774.302
774.3
774.298
774.296
774.294
774.292
774.29
774.288
774.286
774.284
774.282
774.28
774.278
774.276
774.274
774.272
774.27
774.268
774.266
774.265
774.263
774.262
774.26
774.259
774.258
774.257
774.256
774.255
774.254
774.253
774.252
774.25
774.249
774.248
774.246
774.245
774.243
774.242
774.24
774.238
774.236
774.235
774.233
774.231
774.23
774.228
774.228
774.227
774.289
774.441
774.441
774.441
774.441
774.441
774.441
774.44
774.439
774.437
774.434
774.431
774.428
774.426
774.425
774.424
774.424
774.423
774.423
774.422
774.42
774.418
774.415
774.411
774.408
774.404
774.401
774.398
774.395
774.393
774.391
774.391
774.391
774.391
774.39
774.388
774.386
774.383
774.38
774.378
774.376
774.374
774.373
774.372
774.371
774.371
774.371
774.371
774.37
774.37
774.37
774.37
774.37
774.369
774.369
774.369
774.369
774.369
774.369
774.369
774.369
774.369
774.369
774.369
774.369
774.369
774.369
774.369
774.369
774.369
774.369
774.369
774.369
774.37
774.37
774.37
774.37
774.37
774.369
774.369
774.369
774.369
774.369
774.368
774.368
774.367
774.367
774.367
774.366
774.365
774.365
774.364
774.364
774.363
774.363
774.362
774.361
774.361
774.36
774.36
774.359
774.359
774.358
774.358
774.357
774.357
774.356
774.355
774.355
774.354
774.353
774.353
774.352
774.351
774.35
774.349
774.348
774.347
774.346
774.344
774.343
774.342
774.34
774.339
774.338
774.336
774.335
774.333
774.332
774.33
774.329
774.327
774.326
774.324
774.323
774.322
774.321
774.32
774.318
774.317
774.316
774.315
774.314
774.313
774.312
774.311
774.31
774.309
774.308
774.306
774.305
774.303
774.302
774.3
774.298
774.296
774.294
774.292
774.29
774.288
774.286
774.284
774.282
774.28
774.278
774.276
774.274
774.272
774.27
774.268
774.266
774.265
774.263
774.262
774.26
774.259
774.258
774.257
774.256
774.255
774.254
774.253
774.252
774.25
774.249
774.248
774.246
774.245
774.243
774.242
774.24
774.238
774.236
774.235
774.233
774.231
774.23
774.228
774.227
774.225
774.228
774.441
774.441
774.441
774.441
774.441
774.44
774.44
774.439
774.437
774.434
774.431
774.428
774.426
774.425
774.424
774.424
774.423
774.423
774.422
774.42
774.418
774.415
774.411
774.408
774.404
774.401
774.398
774.395
774.393
774.391
774.391
774.391
774.39
774.39
774.388
774.386
774.383
774.38
774.378
774.376
774.374
774.373
774.372
774.371
774.371
774.371
774.371
774.37
774.37
774.37
774.37
774.37
774.369
774.369
774.369
774.369
774.369
774.369
774.369
774.369
774.369
774.369
774.369
774.369
774.369
774.369
774.369
774.369
774.369
774.369
774.369
774.369
774.37
774.37
774.37
774.37
774.37
774.369
774.369
774.369
774.369
774.369
774.368
774.368
774.367
774.367
774.367
774.366
774.365
774.365
774.364
774.364
774.363
774.363
774.362
774.361
774.361
774.36
774.36
774.359
774.359
774.358
774.358
774.357
774.357
774.356
774.355
774.355
774.354
774.353
774.353
774.352
774.351
774.35
774.349
774.348
774.347
774.346
774.344
774.343
774.342
774.34
774.339
774.338
774.336
774.335
774.333
774.332
774.33
774.329
774.327
774.326
774.324
774.323
774.322
774.321
774.32
774.318
774.317
774.316
774.315
774.314
774.313
774.312
774.311
774.31
774.309
774.308
774.306
774.305
774.303
774.302
774.3
774.298
774.296
774.294
774.292
774.29
774.288
774.286
774.284
774.282
774.28
774.278
774.276
774.274
774.272
774.27
774.268
774.266
774.265
774.263
774.262
774.26
774.259
774.258
774.257
774.256
774.255
774.254
774.253
774.252
774.25
774.249
774.248
774.246
774.245
774.243
774.242
774.24
774.238
774.236
774.235
774.233
774.231
774.23
774.228
774.224
774.227
774.101
774.443
774.443
774.443
774.443
774.443
774.443
774.442
774.441
774.439
774.436
774.433
774.43
774.428
774.427
774.426
774.426
774.425
774.425
774.424
774.422
774.419
774.417
774.413
774.41
774.406
774.403
774.4
774.397
774.394
774.393
774.393
774.392
774.392
774.391
774.39
774.387
774.384
774.382
774.379
774.377
774.375
774.374
774.373
774.373
774.373
774.372
774.372
774.372
774.372
774.371
774.371
774.371
774.371
774.371
774.371
774.37
774.37
774.37
774.37
774.37
774.37
774.37
774.37
774.37
774.37
774.37
774.37
774.37
774.371
774.371
774.371
774.371
774.371
774.371
774.371
774.371
774.371
774.371
774.371
774.371
774.37
774.37
774.37
774.369
774.369
774.368
774.368
774.367
774.367
774.366
774.366
774.365
774.365
774.364
774.363
774.363
774.362
774.362
774.361
774.361
774.36
774.36
774.359
774.358
774.358
774.357
774.357
774.356
774.356
774.355
774.354
774.353
774.352
774.352
774.351
774.349
774.348
774.347
774.346
774.345
774.343
774.342
774.34
774.339
774.337
774.336
774.334
774.333
774.331
774.33
774.329
774.327
774.326
774.325
774.323
774.322
774.321
774.32
774.319
774.318
774.317
774.316
774.315
774.314
774.313
774.311
774.31
774.309
774.308
774.306
774.305
774.303
774.301
774.3
774.298
774.296
774.294
774.292
774.29
774.288
774.286
774.284
774.281
774.279
774.277
774.275
774.273
774.271
774.27
774.268
774.266
774.264
774.263
774.262
774.26
774.259
774.258
774.257
774.256
774.255
774.254
774.253
774.252
774.251
774.249
774.248
774.246
774.245
774.243
774.241
774.239
774.238
774.236
774.234
774.233
774.231
774.23
774.224
774.236
774.014
774.279
774.293
774.292
774.291
774.289
774.288
774.284
774.277
774.267
774.252
774.241
774.243
774.253
774.266
774.242
774.199
774.168
774.153
774.108
774.059
774.266
774.27
774.268
774.264
774.26
774.257
774.25
774.24
774.229
774.213
774.194
774.192
774.204
774.221
774.199
774.134
774.107
774.103
774.078
774.035
774.227
774.225
774.223
774.218
774.212
774.205
774.198
774.192
774.183
774.175
774.165
774.156
774.149
774.141
774.138
774.143
774.145
774.141
774.118
774.101
774.155
774.156
774.161
774.16
774.154
774.139
774.125
774.101
774.086
774.064
774.044
774.029
774.016
773.994
773.979
773.968
773.954
773.945
773.936
773.932
774.101
774.081
774.077
774.079
774.078
774.074
774.062
774.047
774.032
774.018
774
773.988
773.972
773.962
773.948
773.941
773.931
773.933
773.939
773.972
773.899
773.918
773.918
773.929
773.9
773.88
773.882
773.891
773.893
773.888
773.884
773.884
773.884
773.884
773.883
773.882
773.881
773.881
773.88
773.879
773.879
773.878
773.878
773.877
773.877
773.877
773.877
773.877
773.877
773.877
773.878
773.878
773.878
773.878
773.878
773.88
773.88
773.88
773.88
773.88
773.881
773.881
773.881
773.881
773.881
773.881
773.881
773.882
773.884
773.886
773.887
773.888
773.888
773.888
773.889
773.889
773.892
773.897
773.902
773.908
773.912
773.915
773.917
773.918
773.922
773.938
774.01
774.174
774.285
774.318
774.308
774.22
774.039
773.916
773.853
773.829
773.825
773.827
773.837
773.846
773.853
773.857
773.86
773.862
773.863
773.864
773.865
773.866
773.866
773.867
773.867
773.867
773.868
773.868
773.868
773.869
773.869
773.869
773.869
773.869
773.869
773.869
773.869
773.869
773.868
773.868
773.867
773.866
773.866
773.865
773.864
773.863
773.862
773.861
773.859
773.858
773.857
773.856
773.854
773.853
773.851
773.85
773.849
773.847
773.846
773.845
773.843
773.842
773.841
773.84
773.839
773.838
773.837
773.836
773.836
773.835
773.835
773.834
773.834
773.833
773.833
773.833
773.833
773.832
773.832
773.832
773.831
773.831
773.83
773.83
773.829
773.828
773.827
773.826
773.825
773.824
773.823
773.822
773.82
773.819
773.817
773.815
773.814
773.812
773.81
773.808
773.806
773.804
773.802
773.8
773.798
773.795
773.793
773.791
773.789
773.788
773.786
773.784
773.783
773.781
773.78
773.778
773.777
773.776
773.775
773.775
773.774
773.773
773.773
773.772
773.772
773.771
773.77
773.77
773.769
773.768
773.767
773.762
773.767
773.585
773.893
773.911
773.926
773.939
773.913
773.896
773.899
773.909
773.909
773.903
773.9
773.9
773.9
773.899
773.898
773.897
773.897
773.896
773.895
773.895
773.894
773.894
773.893
773.893
773.893
773.893
773.893
773.894
773.894
773.894
773.895
773.896
773.897
773.898
773.899
773.899
773.899
773.898
773.898
773.898
773.898
773.898
773.897
773.898
773.898
773.899
773.901
773.904
773.907
773.908
773.91
773.91
773.911
773.912
773.913
773.917
773.924
773.93
773.935
773.939
773.942
773.943
773.944
773.947
773.96
774.011
774.126
774.211
774.243
774.242
774.199
774.072
773.96
773.893
773.859
773.847
773.844
773.844
773.848
773.853
773.856
773.859
773.86
773.862
773.863
773.863
773.864
773.865
773.865
773.865
773.866
773.866
773.867
773.867
773.867
773.867
773.868
773.868
773.868
773.868
773.868
773.868
773.868
773.867
773.867
773.866
773.866
773.865
773.864
773.864
773.863
773.862
773.86
773.859
773.858
773.857
773.856
773.854
773.853
773.851
773.85
773.849
773.847
773.846
773.845
773.843
773.842
773.841
773.84
773.839
773.838
773.837
773.836
773.835
773.835
773.834
773.833
773.833
773.833
773.832
773.832
773.832
773.831
773.831
773.831
773.83
773.83
773.83
773.829
773.828
773.828
773.827
773.826
773.825
773.824
773.823
773.822
773.82
773.819
773.817
773.816
773.814
773.812
773.81
773.809
773.807
773.805
773.803
773.8
773.798
773.796
773.794
773.792
773.79
773.788
773.786
773.785
773.783
773.781
773.78
773.778
773.777
773.776
773.775
773.774
773.773
773.773
773.772
773.771
773.771
773.77
773.77
773.769
773.768
773.768
773.766
773.766
773.762
773.761
773.657
774.102
774.149
774.163
774.159
774.157
774.158
774.158
774.157
774.154
774.152
774.15
774.148
774.146
774.144
774.142
774.141
774.14
774.139
774.138
774.138
774.139
774.139
774.139
774.139
774.139
774.138
774.138
774.137
774.137
774.136
774.136
774.137
774.138
774.14
774.142
774.143
774.145
774.147
774.15
774.153
774.157
774.161
774.165
774.169
774.171
774.173
774.173
774.172
774.162
774.126
774.071
774.021
773.981
773.95
773.928
773.914
773.906
773.903
773.903
773.903
773.904
773.907
773.909
773.911
773.911
773.91
773.906
773.9
773.893
773.886
773.88
773.876
773.873
773.871
773.87
773.869
773.869
773.868
773.867
773.867
773.866
773.866
773.865
773.865
773.865
773.865
773.865
773.865
773.866
773.866
773.866
773.866
773.867
773.867
773.867
773.867
773.868
773.868
773.868
773.868
773.868
773.868
773.868
773.867
773.867
773.866
773.866
773.865
773.864
773.864
773.863
773.862
773.86
773.859
773.858
773.857
773.856
773.854
773.853
773.851
773.85
773.849
773.847
773.846
773.845
773.843
773.842
773.841
773.84
773.839
773.838
773.837
773.836
773.835
773.835
773.834
773.833
773.833
773.833
773.832
773.832
773.832
773.831
773.831
773.831
773.83
773.83
773.83
773.829
773.828
773.828
773.827
773.826
773.825
773.824
773.823
773.822
773.82
773.819
773.817
773.816
773.814
773.812
773.81
773.809
773.807
773.805
773.803
773.8
773.798
773.796
773.794
773.792
773.79
773.788
773.786
773.784
773.783
773.781
773.78
773.778
773.777
773.776
773.775
773.774
773.773
773.773
773.772
773.771
773.771
773.77
773.77
773.769
773.768
773.767
773.767
773.766
773.765
773.764
773.765
773.91
773.908
773.908
773.904
773.897
773.897
773.899
773.899
773.898
773.896
773.896
773.896
773.895
773.894
773.894
773.893
773.892
773.891
773.891
773.89
773.889
773.888
773.888
773.887
773.886
773.885
773.885
773.884
773.883
773.883
773.883
773.883
773.884
773.884
773.885
773.885
773.886
773.886
773.887
773.888
773.889
773.889
773.889
773.89
773.89
773.891
773.892
773.892
773.893
773.894
773.894
773.895
773.897
773.902
773.906
773.91
773.917
773.927
773.939
773.949
773.954
773.959
773.973
774.008
774.05
774.076
774.085
774.083
774.067
774.01
773.941
773.894
773.867
773.853
773.849
773.848
773.849
773.852
773.855
773.858
773.86
773.861
773.862
773.863
773.864
773.864
773.864
773.865
773.865
773.866
773.866
773.866
773.867
773.867
773.867
773.867
773.868
773.868
773.868
773.868
773.868
773.868
773.868
773.867
773.867
773.866
773.866
773.865
773.864
773.864
773.863
773.862
773.86
773.859
773.858
773.857
773.856
773.854
773.853
773.851
773.85
773.849
773.847
773.846
773.845
773.843
773.842
773.841
773.84
773.839
773.838
773.837
773.836
773.835
773.835
773.834
773.833
773.833
773.833
773.832
773.832
773.832
773.831
773.831
773.831
773.83
773.83
773.83
773.829
773.828
773.828
773.827
773.826
773.825
773.824
773.823
773.822
773.82
773.819
773.817
773.816
773.814
773.812
773.81
773.809
773.807
773.805
773.803
773.8
773.798
773.796
773.794
773.792
773.79
773.788
773.786
773.784
773.783
773.781
773.78
773.778
773.777
773.776
773.775
773.774
773.773
773.772
773.772
773.771
773.771
773.77
773.77
773.769
773.768
773.767
773.767
773.766
773.766
773.767
773.818
774.034
774.034
774.034
774.03
774.024
774.023
774.024
774.024
774.023
774.021
774.021
774.02
774.019
774.018
774.016
774.015
774.014
774.013
774.011
774.01
774.008
774.007
774.005
774.004
774.002
774.001
774
774
774
774
774
774
774.001
774.002
774.002
774.003
774.003
774.004
774.004
774.004
774.003
774.003
774.004
774.004
774.005
774.005
774.005
774.006
774.006
774.007
774.009
774.011
774.014
774.018
774.025
774.032
774.038
774.041
774.042
774.043
774.047
774.073
774.177
774.306
774.375
774.394
774.385
774.324
774.194
774.087
774.011
773.959
773.924
773.902
773.888
773.88
773.874
773.871
773.869
773.868
773.867
773.867
773.866
773.866
773.866
773.866
773.866
773.867
773.867
773.867
773.867
773.868
773.868
773.868
773.869
773.869
773.869
773.869
773.869
773.869
773.869
773.869
773.869
773.869
773.868
773.868
773.867
773.866
773.866
773.865
773.864
773.863
773.862
773.861
773.859
773.858
773.857
773.856
773.854
773.853
773.851
773.85
773.849
773.847
773.846
773.845
773.843
773.842
773.841
773.84
773.839
773.838
773.837
773.836
773.836
773.835
773.835
773.834
773.834
773.833
773.833
773.833
773.833
773.832
773.832
773.832
773.831
773.831
773.83
773.83
773.829
773.828
773.827
773.826
773.825
773.824
773.823
773.822
773.82
773.819
773.817
773.815
773.814
773.812
773.81
773.808
773.806
773.804
773.802
773.8
773.798
773.795
773.793
773.791
773.789
773.788
773.786
773.784
773.783
773.781
773.78
773.778
773.777
773.776
773.775
773.775
773.774
773.773
773.773
773.772
773.771
773.771
773.77
773.77
773.769
773.768
773.767
773.767
773.769
773.823
773.649
773.628
773.622
773.624
773.622
773.616
773.602
773.593
773.573
773.564
773.545
773.534
773.517
773.508
773.495
773.489
773.482
773.483
773.49
773.519
773.698
773.697
773.702
773.701
773.693
773.678
773.661
773.646
773.622
773.61
773.587
773.567
773.559
773.539
773.524
773.508
773.498
773.487
773.477
773.469
773.765
773.764
773.76
773.756
773.75
773.743
773.737
773.729
773.72
773.71
773.702
773.697
773.694
773.693
773.682
773.669
773.659
773.655
773.643
773.638
773.804
773.807
773.805
773.8
773.795
773.791
773.782
773.772
773.766
773.769
773.778
773.76
773.722
773.715
773.706
773.669
773.609
773.605
773.624
773.622
773.816
773.83
773.828
773.827
773.825
773.821
773.815
773.808
773.805
773.81
773.817
773.801
773.773
773.757
773.741
773.697
773.664
773.667
773.687
773.66
773.568
773.565
773.56
773.551
773.549
773.548
773.545
773.54
773.538
773.537
773.535
773.532
773.53
773.529
773.528
773.526
773.525
773.523
773.522
773.52
773.518
773.517
773.515
773.513
773.511
773.508
773.507
773.505
773.504
773.502
773.501
773.5
773.498
773.497
773.496
773.495
773.494
773.493
773.492
773.491
773.489
773.488
773.487
773.487
773.486
773.485
773.483
773.482
773.481
773.48
773.48
773.481
773.483
773.484
773.486
773.489
773.493
773.497
773.499
773.498
773.498
773.5
773.519
773.605
773.739
773.816
773.84
773.836
773.788
773.662
773.55
773.469
773.413
773.375
773.351
773.335
773.326
773.319
773.315
773.312
773.31
773.309
773.308
773.307
773.306
773.306
773.305
773.304
773.304
773.303
773.303
773.302
773.302
773.301
773.3
773.299
773.299
773.294
773.297
773.125
773.449
773.445
773.434
773.428
773.427
773.428
773.425
773.421
773.418
773.417
773.416
773.414
773.411
773.41
773.409
773.408
773.406
773.405
773.404
773.403
773.401
773.4
773.399
773.397
773.396
773.394
773.393
773.391
773.389
773.388
773.387
773.386
773.385
773.384
773.383
773.382
773.381
773.38
773.379
773.378
773.377
773.376
773.375
773.374
773.373
773.372
773.372
773.371
773.37
773.369
773.368
773.367
773.367
773.368
773.37
773.375
773.378
773.381
773.387
773.397
773.405
773.409
773.413
773.423
773.451
773.493
773.521
773.531
773.531
773.519
773.471
773.401
773.35
773.318
773.302
773.295
773.293
773.293
773.295
773.297
773.299
773.301
773.302
773.302
773.303
773.303
773.303
773.302
773.302
773.302
773.301
773.301
773.3
773.3
773.299
773.298
773.297
773.294
773.292
773.194
773.656
773.662
773.669
773.67
773.675
773.676
773.674
773.671
773.67
773.669
773.667
773.665
773.662
773.659
773.656
773.653
773.65
773.647
773.645
773.644
773.642
773.641
773.64
773.639
773.638
773.637
773.636
773.635
773.634
773.633
773.632
773.632
773.631
773.631
773.631
773.632
773.633
773.634
773.634
773.635
773.635
773.636
773.638
773.642
773.644
773.646
773.646
773.646
773.643
773.634
773.601
773.548
773.499
773.457
773.425
773.402
773.386
773.377
773.371
773.368
773.366
773.366
773.366
773.366
773.366
773.366
773.363
773.358
773.351
773.343
773.336
773.33
773.324
773.32
773.318
773.316
773.314
773.313
773.312
773.31
773.309
773.308
773.307
773.306
773.305
773.305
773.304
773.303
773.303
773.302
773.302
773.301
773.301
773.3
773.299
773.298
773.297
773.297
773.295
773.297
773.473
773.464
773.454
773.433
773.417
773.431
773.441
773.435
773.424
773.422
773.424
773.424
773.422
773.419
773.417
773.416
773.415
773.413
773.411
773.409
773.407
773.405
773.404
773.402
773.401
773.4
773.399
773.398
773.397
773.396
773.396
773.395
773.395
773.394
773.393
773.392
773.39
773.39
773.389
773.388
773.387
773.386
773.385
773.383
773.383
773.383
773.383
773.383
773.384
773.384
773.383
773.382
773.381
773.381
773.381
773.384
773.388
773.391
773.393
773.394
773.395
773.395
773.395
773.395
773.396
773.405
773.446
773.555
773.646
773.686
773.689
773.661
773.551
773.429
773.352
773.311
773.293
773.288
773.288
773.29
773.294
773.297
773.299
773.3
773.301
773.302
773.302
773.302
773.302
773.302
773.301
773.301
773.3
773.3
773.299
773.298
773.297
773.298
773.299
773.347
773.498
773.461
773.446
773.422
773.406
773.413
773.427
773.421
773.409
773.405
773.407
773.407
773.406
773.402
773.4
773.399
773.398
773.396
773.395
773.393
773.392
773.39
773.389
773.387
773.386
773.384
773.383
773.382
773.381
773.38
773.379
773.378
773.378
773.377
773.376
773.375
773.374
773.373
773.372
773.371
773.37
773.37
773.369
773.367
773.365
773.364
773.363
773.363
773.363
773.362
773.362
773.361
773.358
773.357
773.356
773.356
773.357
773.36
773.363
773.365
773.366
773.367
773.368
773.368
773.369
773.37
773.379
773.426
773.57
773.7
773.752
773.753
773.701
773.538
773.394
773.315
773.28
773.27
773.27
773.277
773.286
773.293
773.297
773.299
773.301
773.302
773.303
773.303
773.303
773.303
773.302
773.302
773.302
773.301
773.3
773.3
773.299
773.299
773.3
773.352
773.184
773.164
773.157
773.159
773.157
773.151
773.137
773.128
773.109
773.1
773.081
773.07
773.053
773.045
773.032
773.027
773.019
773.02
773.026
773.053
773.231
773.231
773.235
773.234
773.226
773.212
773.194
773.18
773.157
773.145
773.12
773.105
773.095
773.074
773.06
773.045
773.035
773.023
773.014
773.006
773.296
773.295
773.292
773.288
773.282
773.275
773.269
773.261
773.252
773.243
773.235
773.231
773.229
773.226
773.214
773.203
773.194
773.189
773.179
773.176
773.335
773.337
773.336
773.331
773.326
773.322
773.313
773.304
773.299
773.303
773.31
773.283
773.255
773.252
773.236
773.186
773.146
773.152
773.171
773.165
773.346
773.36
773.358
773.357
773.355
773.351
773.346
773.339
773.338
773.343
773.348
773.326
773.303
773.291
773.269
773.22
773.204
773.212
773.233
773.194
773.1
773.099
773.094
773.086
773.086
773.086
773.084
773.081
773.081
773.08
773.08
773.078
773.077
773.077
773.076
773.075
773.074
773.073
773.072
773.072
773.072
773.072
773.072
773.072
773.072
773.073
773.073
773.074
773.074
773.075
773.076
773.076
773.077
773.078
773.078
773.079
773.08
773.081
773.082
773.083
773.084
773.085
773.087
773.088
773.089
773.09
773.091
773.093
773.094
773.098
773.102
773.106
773.111
773.118
773.127
773.136
773.142
773.146
773.148
773.155
773.182
773.283
773.418
773.497
773.522
773.517
773.467
773.343
773.239
773.165
773.117
773.087
773.07
773.061
773.058
773.058
773.06
773.063
773.067
773.072
773.077
773.083
773.088
773.094
773.1
773.105
773.111
773.117
773.124
773.13
773.136
773.142
773.149
773.155
773.161
773.168
773.175
773.181
773.188
773.195
773.201
773.208
773.215
773.222
773.23
773.237
773.244
773.251
773.259
773.267
773.274
773.282
773.29
773.298
773.306
773.315
773.323
773.332
773.341
773.35
773.359
773.368
773.378
773.387
773.397
773.407
773.417
773.427
773.437
773.448
773.458
773.469
773.48
773.491
773.502
773.513
773.525
773.536
773.547
773.559
773.571
773.582
773.594
773.606
773.617
773.629
773.641
773.653
773.665
773.677
773.689
773.701
773.713
773.725
773.737
773.749
773.762
773.774
773.786
773.799
773.812
773.824
773.837
773.85
773.863
773.877
773.89
773.904
773.917
773.931
773.945
773.959
773.973
773.987
774.002
774.017
774.031
774.047
774.062
774.077
774.093
774.108
774.124
774.14
774.156
774.173
774.189
774.206
774.222
774.24
774.255
774.275
774.289
774.31
774.323
774.345
774.358
774.381
774.395
774.442
772.985
772.98
772.971
772.967
772.967
772.967
772.965
772.962
772.961
772.961
772.961
772.96
772.959
772.959
772.959
772.958
772.958
772.957
772.957
772.957
772.957
772.957
772.957
772.958
772.958
772.958
772.959
772.96
772.96
772.961
772.961
772.962
772.963
772.963
772.964
772.965
772.966
772.967
772.968
772.969
772.97
772.971
772.973
772.974
772.976
772.978
772.979
772.981
772.983
772.986
772.987
772.991
772.997
773.005
773.011
773.018
773.03
773.044
773.056
773.063
773.07
773.087
773.126
773.172
773.202
773.215
773.216
773.204
773.154
773.091
773.05
773.028
773.022
773.022
773.025
773.032
773.041
773.05
773.057
773.065
773.072
773.078
773.085
773.091
773.097
773.103
773.11
773.116
773.122
773.128
773.135
773.141
773.147
773.154
773.16
773.167
773.173
773.18
773.187
773.193
773.2
773.207
773.214
773.221
773.228
773.235
773.243
773.25
773.258
773.265
773.273
773.281
773.289
773.297
773.305
773.313
773.322
773.331
773.339
773.348
773.358
773.367
773.376
773.386
773.396
773.405
773.415
773.426
773.436
773.446
773.457
773.468
773.479
773.49
773.501
773.512
773.523
773.535
773.546
773.558
773.569
773.581
773.593
773.604
773.616
773.628
773.64
773.652
773.663
773.675
773.687
773.699
773.711
773.723
773.736
773.748
773.76
773.773
773.785
773.798
773.81
773.823
773.836
773.849
773.862
773.875
773.889
773.902
773.916
773.93
773.944
773.958
773.972
773.986
774.001
774.015
774.03
774.045
774.06
774.076
774.091
774.107
774.123
774.139
774.155
774.171
774.188
774.205
774.221
774.239
774.254
774.274
774.288
774.309
774.322
774.344
774.356
774.38
774.393
774.44
773.191
773.196
773.205
773.209
773.215
773.215
773.212
773.209
773.208
773.206
773.204
773.202
773.201
773.2
773.2
773.2
773.2
773.201
773.201
773.201
773.202
773.202
773.202
773.203
773.203
773.203
773.204
773.204
773.205
773.205
773.205
773.206
773.207
773.208
773.21
773.213
773.215
773.217
773.22
773.225
773.231
773.236
773.242
773.246
773.25
773.252
773.252
773.249
773.231
773.184
773.134
773.093
773.062
773.04
773.025
773.018
773.015
773.016
773.017
773.02
773.025
773.03
773.035
773.038
773.04
773.04
773.038
773.036
773.034
773.033
773.034
773.036
773.039
773.043
773.047
773.052
773.057
773.061
773.066
773.071
773.076
773.082
773.087
773.093
773.098
773.104
773.11
773.116
773.122
773.128
773.135
773.141
773.147
773.154
773.16
773.167
773.173
773.18
773.187
773.193
773.2
773.207
773.214
773.221
773.228
773.235
773.243
773.25
773.258
773.265
773.273
773.281
773.289
773.297
773.305
773.313
773.322
773.331
773.339
773.348
773.358
773.367
773.376
773.386
773.396
773.405
773.415
773.426
773.436
773.446
773.457
773.468
773.479
773.49
773.501
773.512
773.523
773.535
773.546
773.558
773.569
773.581
773.593
773.604
773.616
773.628
773.64
773.652
773.663
773.675
773.687
773.699
773.711
773.723
773.736
773.748
773.76
773.773
773.785
773.798
773.81
773.823
773.836
773.849
773.862
773.875
773.889
773.902
773.916
773.93
773.944
773.958
773.972
773.986
774.001
774.015
774.03
774.045
774.06
774.076
774.091
774.107
774.123
774.139
774.155
774.171
774.188
774.205
774.221
774.238
774.255
774.273
774.289
774.307
774.324
774.341
774.359
774.378
774.391
774.415
773.01
773.003
772.994
772.969
772.962
772.977
772.983
772.974
772.966
772.965
772.967
772.967
772.965
772.964
772.964
772.964
772.964
772.964
772.964
772.964
772.965
772.966
772.966
772.967
772.968
772.968
772.969
772.969
772.97
772.97
772.971
772.972
772.972
772.973
772.973
772.974
772.975
772.976
772.977
772.978
772.979
772.98
772.981
772.983
772.985
772.988
772.991
772.994
772.996
772.998
773
773.001
773.004
773.009
773.018
773.028
773.036
773.044
773.05
773.055
773.059
773.062
773.068
773.084
773.142
773.259
773.345
773.38
773.38
773.342
773.223
773.118
773.058
773.032
773.026
773.026
773.032
773.043
773.053
773.062
773.069
773.077
773.084
773.09
773.097
773.103
773.109
773.116
773.122
773.128
773.134
773.141
773.147
773.154
773.16
773.167
773.173
773.18
773.187
773.193
773.2
773.207
773.214
773.221
773.228
773.235
773.243
773.25
773.258
773.265
773.273
773.281
773.289
773.297
773.305
773.313
773.322
773.331
773.339
773.348
773.358
773.367
773.376
773.386
773.396
773.405
773.415
773.426
773.436
773.446
773.457
773.468
773.479
773.49
773.501
773.512
773.523
773.535
773.546
773.558
773.569
773.581
773.593
773.604
773.616
773.628
773.64
773.652
773.663
773.675
773.687
773.699
773.711
773.723
773.736
773.748
773.76
773.773
773.785
773.798
773.81
773.823
773.836
773.849
773.862
773.875
773.889
773.902
773.916
773.93
773.944
773.958
773.972
773.986
774.001
774.015
774.03
774.045
774.06
774.076
774.091
774.107
774.123
774.139
774.155
774.171
774.188
774.204
774.222
774.237
774.257
774.271
774.291
774.305
774.326
774.339
774.361
774.372
774.4
774.361
773.035
772.999
772.986
772.958
772.948
772.959
772.967
772.959
772.95
772.949
772.951
772.952
772.951
772.949
772.949
772.949
772.949
772.949
772.949
772.949
772.949
772.95
772.95
772.951
772.952
772.952
772.953
772.953
772.953
772.954
772.955
772.956
772.956
772.957
772.958
772.958
772.959
772.96
772.961
772.962
772.963
772.964
772.966
772.967
772.968
772.97
772.972
772.974
772.977
772.979
772.98
772.982
772.983
772.985
772.988
772.995
773.003
773.011
773.019
773.026
773.032
773.036
773.04
773.047
773.066
773.14
773.304
773.417
773.456
773.449
773.37
773.199
773.083
773.027
773.009
773.009
773.015
773.032
773.047
773.058
773.068
773.076
773.084
773.091
773.098
773.104
773.11
773.117
773.123
773.129
773.136
773.142
773.148
773.155
773.161
773.168
773.175
773.181
773.188
773.195
773.201
773.208
773.215
773.222
773.23