/*--------------------------------*- C++ -*----------------------------------*\
| =========                 |                                                 |
| \\      /  F ield         | OpenFOAM: The Open Source CFD Toolbox           |
|  \\    /   O peration     | Version:  3.0.x                                 |
|   \\  /    A nd           | Web:      www.OpenFOAM.org                      |
|    \\/     M anipulation  |                                                 |
\*---------------------------------------------------------------------------*/
FoamFile
{
    version     2.0;
    format      ascii;
    class       volVectorField;
    location    "0.3";
    object      U;
}
// * * * * * * * * * * * * * * * * * * * * * * * * * * * * * * * * * * * * * //

dimensions      [0 1 -1 0 0 0 0];

internalField   nonuniform List<vector> 
6900
(
(42.6981 0.000101129 0)
(42.6959 9.25712e-05 0)
(42.6937 8.99443e-05 0)
(42.6915 9.08702e-05 0)
(42.6893 9.15977e-05 0)
(42.6873 9.20297e-05 0)
(42.6853 9.2366e-05 0)
(42.6834 9.2645e-05 0)
(42.6815 9.28552e-05 0)
(42.6798 9.30392e-05 0)
(42.6781 9.31894e-05 0)
(42.6765 9.33104e-05 0)
(42.6749 9.34104e-05 0)
(42.6735 9.34939e-05 0)
(42.6721 9.35655e-05 0)
(42.6707 9.36291e-05 0)
(42.6694 9.36875e-05 0)
(42.6681 9.37408e-05 0)
(42.6668 9.38052e-05 0)
(42.6655 9.38529e-05 0)
(42.6642 9.39107e-05 0)
(42.6629 9.39684e-05 0)
(42.6615 9.40261e-05 0)
(42.6601 9.40825e-05 0)
(42.6586 9.41367e-05 0)
(42.657 9.41876e-05 0)
(42.6554 9.42335e-05 0)
(42.6537 9.42723e-05 0)
(42.6519 9.4301e-05 0)
(42.65 9.4313e-05 0)
(42.6481 9.43028e-05 0)
(42.6461 9.42596e-05 0)
(42.6441 9.41654e-05 0)
(42.642 9.40326e-05 0)
(42.6399 9.37378e-05 0)
(42.6378 9.33749e-05 0)
(42.6356 9.28343e-05 0)
(42.6335 9.20831e-05 0)
(42.6314 9.10757e-05 0)
(42.6294 8.97624e-05 0)
(42.6274 8.80948e-05 0)
(42.6255 8.60294e-05 0)
(42.6237 8.35322e-05 0)
(42.622 8.05832e-05 0)
(42.6205 7.71777e-05 0)
(42.619 7.33291e-05 0)
(42.6177 6.90752e-05 0)
(42.6166 6.44646e-05 0)
(42.6156 5.95702e-05 0)
(42.6147 5.44763e-05 0)
(42.614 4.92767e-05 0)
(42.6134 4.40689e-05 0)
(42.6129 3.89488e-05 0)
(42.6125 3.4006e-05 0)
(42.6122 2.93187e-05 0)
(42.6119 2.49502e-05 0)
(42.6117 2.09487e-05 0)
(42.6115 1.73458e-05 0)
(42.6114 1.41543e-05 0)
(42.6111 1.1373e-05 0)
(42.6109 8.98599e-06 0)
(42.6106 6.97075e-06 0)
(42.6102 5.29647e-06 0)
(42.6098 3.92333e-06 0)
(42.6093 2.81662e-06 0)
(42.6087 1.93665e-06 0)
(42.608 1.2477e-06 0)
(42.6073 7.16535e-07 0)
(42.6065 3.14159e-07 0)
(42.6056 1.66797e-08 0)
(42.6047 -2.18109e-07 0)
(42.6038 -3.85191e-07 0)
(42.6028 -5.05013e-07 0)
(42.6019 -5.90336e-07 0)
(42.6009 -6.50278e-07 0)
(42.5999 -6.92343e-07 0)
(42.599 -7.23729e-07 0)
(42.5981 -7.43145e-07 0)
(42.5973 -7.57464e-07 0)
(42.5964 -7.67624e-07 0)
(42.5957 -7.74894e-07 0)
(42.5949 -7.80216e-07 0)
(42.5941 -7.84238e-07 0)
(42.5934 -7.8735e-07 0)
(42.5926 -7.89803e-07 0)
(42.5918 -7.91757e-07 0)
(42.591 -7.93327e-07 0)
(42.5901 -7.94604e-07 0)
(42.5891 -7.95642e-07 0)
(42.5879 -7.96483e-07 0)
(42.5867 -7.97144e-07 0)
(42.5853 -7.97645e-07 0)
(42.5837 -7.98002e-07 0)
(42.5819 -7.98244e-07 0)
(42.5799 -7.98396e-07 0)
(42.5777 -7.98459e-07 0)
(42.5752 -7.98435e-07 0)
(42.5725 -7.98303e-07 0)
(42.5695 -7.98049e-07 0)
(42.5662 -7.97693e-07 0)
(42.5627 -7.97287e-07 0)
(42.559 -7.96913e-07 0)
(42.555 -7.96628e-07 0)
(42.5508 -7.96482e-07 0)
(42.5465 -7.96498e-07 0)
(42.542 -7.96734e-07 0)
(42.5373 -7.97234e-07 0)
(42.5325 -7.98011e-07 0)
(42.5277 -7.9905e-07 0)
(42.5228 -8.00292e-07 0)
(42.518 -8.0173e-07 0)
(42.5131 -8.03294e-07 0)
(42.5082 -8.04936e-07 0)
(42.5034 -8.06608e-07 0)
(42.4987 -8.08273e-07 0)
(42.4941 -8.09901e-07 0)
(42.4895 -8.11469e-07 0)
(42.4849 -8.1296e-07 0)
(42.4804 -8.14348e-07 0)
(42.476 -8.15623e-07 0)
(42.4715 -8.1675e-07 0)
(42.4671 -8.17649e-07 0)
(42.4627 -8.18232e-07 0)
(42.4582 -8.18461e-07 0)
(42.4536 -8.18408e-07 0)
(42.4489 -8.18112e-07 0)
(42.4441 -8.17594e-07 0)
(42.4392 -8.16821e-07 0)
(42.434 -8.15783e-07 0)
(42.4287 -8.14492e-07 0)
(42.4232 -8.12983e-07 0)
(42.4174 -8.11272e-07 0)
(42.4113 -8.09381e-07 0)
(42.405 -8.0733e-07 0)
(42.3984 -8.05153e-07 0)
(42.3915 -8.02925e-07 0)
(42.3844 -8.00729e-07 0)
(42.377 -7.98698e-07 0)
(42.3693 -7.96881e-07 0)
(42.3615 -7.95285e-07 0)
(42.3536 -7.93863e-07 0)
(42.3455 -7.92711e-07 0)
(42.3374 -7.91959e-07 0)
(42.3292 -7.91758e-07 0)
(42.3212 -7.91988e-07 0)
(42.3132 -7.92714e-07 0)
(42.3054 -7.93669e-07 0)
(42.2978 -7.95042e-07 0)
(42.2904 -7.96479e-07 0)
(42.2832 -7.9828e-07 0)
(42.2763 -8.00034e-07 0)
(42.2696 -8.01961e-07 0)
(42.2631 -8.03667e-07 0)
(42.2568 -8.0523e-07 0)
(42.2507 -8.06609e-07 0)
(42.2447 -8.07776e-07 0)
(42.2388 -8.0856e-07 0)
(42.233 -8.08806e-07 0)
(42.2272 -8.0869e-07 0)
(42.2213 -8.08418e-07 0)
(42.2154 -8.08057e-07 0)
(42.2093 -8.07394e-07 0)
(42.2032 -8.06342e-07 0)
(42.1969 -8.04799e-07 0)
(42.1904 -8.02899e-07 0)
(42.1837 -8.00578e-07 0)
(42.1767 -7.97785e-07 0)
(42.1695 -7.94644e-07 0)
(42.1619 -7.91015e-07 0)
(42.154 -7.87051e-07 0)
(42.1457 -7.82887e-07 0)
(42.137 -7.78741e-07 0)
(42.128 -7.74357e-07 0)
(42.1186 -7.68812e-07 0)
(42.109 -7.64272e-07 0)
(42.0991 -7.59478e-07 0)
(42.089 -7.55886e-07 0)
(42.0788 -7.52397e-07 0)
(42.0688 -7.49693e-07 0)
(42.0588 -7.47521e-07 0)
(42.0492 -7.46571e-07 0)
(42.0399 -7.45873e-07 0)
(42.0312 -7.46503e-07 0)
(42.0232 -7.47357e-07 0)
(42.0158 -7.49321e-07 0)
(42.0092 -7.51084e-07 0)
(42.0034 -7.53376e-07 0)
(41.9983 -7.5519e-07 0)
(41.9939 -7.57085e-07 0)
(41.99 -7.57811e-07 0)
(41.9866 -7.55474e-07 0)
(41.9835 -7.34969e-07 0)
(41.9806 -6.61072e-07 0)
(41.9779 -3.92322e-08 0)
(41.9752 4.5351e-06 0)
(41.972 3.65506e-05 0)
(41.964 0.000260437 0)
(41.9223 0.00184103 0)
(41.7416 0.0165294 0)
(39.2204 0.0855706 0)
(42.6999 0.000128289 0)
(42.6995 9.90548e-05 0)
(42.699 8.59533e-05 0)
(42.6986 8.53812e-05 0)
(42.6983 8.53574e-05 0)
(42.698 8.49812e-05 0)
(42.6978 8.47135e-05 0)
(42.6977 8.45654e-05 0)
(42.6976 8.44482e-05 0)
(42.6976 8.43898e-05 0)
(42.6977 8.43496e-05 0)
(42.6979 8.43214e-05 0)
(42.6982 8.43062e-05 0)
(42.6985 8.43003e-05 0)
(42.6989 8.43025e-05 0)
(42.6993 8.43121e-05 0)
(42.6998 8.43281e-05 0)
(42.7003 8.43466e-05 0)
(42.7008 8.43885e-05 0)
(42.7013 8.44153e-05 0)
(42.7018 8.44593e-05 0)
(42.7023 8.45044e-05 0)
(42.7027 8.45529e-05 0)
(42.7031 8.46028e-05 0)
(42.7034 8.46526e-05 0)
(42.7036 8.47009e-05 0)
(42.7038 8.47461e-05 0)
(42.7039 8.47862e-05 0)
(42.704 8.48181e-05 0)
(42.7039 8.48349e-05 0)
(42.7038 8.48325e-05 0)
(42.7036 8.48012e-05 0)
(42.7034 8.47226e-05 0)
(42.7031 8.46292e-05 0)
(42.7028 8.4341e-05 0)
(42.7024 8.40364e-05 0)
(42.7021 8.35594e-05 0)
(42.7017 8.2891e-05 0)
(42.7014 8.19922e-05 0)
(42.7011 8.08174e-05 0)
(42.7008 7.93228e-05 0)
(42.7006 7.74685e-05 0)
(42.7004 7.52238e-05 0)
(42.7003 7.2571e-05 0)
(42.7003 6.95055e-05 0)
(42.7003 6.60394e-05 0)
(42.7004 6.2208e-05 0)
(42.7005 5.80529e-05 0)
(42.7007 5.36418e-05 0)
(42.7009 4.90512e-05 0)
(42.7012 4.43654e-05 0)
(42.7015 3.9672e-05 0)
(42.7018 3.50587e-05 0)
(42.7021 3.06061e-05 0)
(42.7024 2.63844e-05 0)
(42.7026 2.24503e-05 0)
(42.7029 1.88479e-05 0)
(42.703 1.56062e-05 0)
(42.7031 1.27353e-05 0)
(42.7032 1.02344e-05 0)
(42.7031 8.08827e-06 0)
(42.703 6.27741e-06 0)
(42.7027 4.77545e-06 0)
(42.7024 3.54337e-06 0)
(42.7019 2.55201e-06 0)
(42.7014 1.76395e-06 0)
(42.7007 1.14641e-06 0)
(42.7 6.68868e-07 0)
(42.6992 3.05069e-07 0)
(42.6984 3.27548e-08 0)
(42.6974 -1.70758e-07 0)
(42.6965 -3.18354e-07 0)
(42.6955 -4.25712e-07 0)
(42.6946 -5.02826e-07 0)
(42.6936 -5.57216e-07 0)
(42.6926 -5.95946e-07 0)
(42.6917 -6.26804e-07 0)
(42.6908 -6.44501e-07 0)
(42.6899 -6.5851e-07 0)
(42.6891 -6.68935e-07 0)
(42.6883 -6.76713e-07 0)
(42.6875 -6.82714e-07 0)
(42.6867 -6.8748e-07 0)
(42.6859 -6.91351e-07 0)
(42.6851 -6.94516e-07 0)
(42.6843 -6.9711e-07 0)
(42.6835 -6.99244e-07 0)
(42.6825 -7.00996e-07 0)
(42.6815 -7.02398e-07 0)
(42.6804 -7.03471e-07 0)
(42.6791 -7.04241e-07 0)
(42.6777 -7.04737e-07 0)
(42.6761 -7.0498e-07 0)
(42.6743 -7.05008e-07 0)
(42.6723 -7.04859e-07 0)
(42.67 -7.04555e-07 0)
(42.6676 -7.04104e-07 0)
(42.6648 -7.03513e-07 0)
(42.6618 -7.02808e-07 0)
(42.6585 -7.02035e-07 0)
(42.655 -7.01289e-07 0)
(42.6513 -7.00663e-07 0)
(42.6473 -7.00242e-07 0)
(42.6431 -7.00084e-07 0)
(42.6387 -7.00248e-07 0)
(42.6341 -7.00834e-07 0)
(42.6295 -7.01897e-07 0)
(42.6247 -7.03463e-07 0)
(42.6199 -7.05499e-07 0)
(42.615 -7.07952e-07 0)
(42.6101 -7.1077e-07 0)
(42.6052 -7.13873e-07 0)
(42.6003 -7.17184e-07 0)
(42.5955 -7.2063e-07 0)
(42.5908 -7.24132e-07 0)
(42.5861 -7.27607e-07 0)
(42.5815 -7.31e-07 0)
(42.5769 -7.34251e-07 0)
(42.5724 -7.37297e-07 0)
(42.5679 -7.40104e-07 0)
(42.5635 -7.426e-07 0)
(42.5591 -7.44675e-07 0)
(42.5546 -7.46209e-07 0)
(42.5501 -7.47181e-07 0)
(42.5455 -7.47671e-07 0)
(42.5408 -7.47738e-07 0)
(42.536 -7.47367e-07 0)
(42.531 -7.46516e-07 0)
(42.5259 -7.45192e-07 0)
(42.5205 -7.4343e-07 0)
(42.515 -7.41277e-07 0)
(42.5091 -7.38771e-07 0)
(42.5031 -7.35946e-07 0)
(42.4967 -7.32864e-07 0)
(42.4901 -7.29616e-07 0)
(42.4832 -7.26327e-07 0)
(42.4761 -7.23133e-07 0)
(42.4686 -7.20238e-07 0)
(42.461 -7.17724e-07 0)
(42.4532 -7.15629e-07 0)
(42.4452 -7.13964e-07 0)
(42.4371 -7.12908e-07 0)
(42.429 -7.12648e-07 0)
(42.4208 -7.13372e-07 0)
(42.4127 -7.14883e-07 0)
(42.4048 -7.17309e-07 0)
(42.3969 -7.20221e-07 0)
(42.3893 -7.23952e-07 0)
(42.3818 -7.27851e-07 0)
(42.3747 -7.32456e-07 0)
(42.3677 -7.36931e-07 0)
(42.361 -7.41771e-07 0)
(42.3545 -7.46177e-07 0)
(42.3482 -7.50354e-07 0)
(42.3421 -7.54146e-07 0)
(42.3361 -7.57506e-07 0)
(42.3302 -7.60308e-07 0)
(42.3243 -7.62106e-07 0)
(42.3185 -7.6344e-07 0)
(42.3126 -7.64263e-07 0)
(42.3067 -7.64823e-07 0)
(42.3006 -7.64717e-07 0)
(42.2945 -7.6395e-07 0)
(42.2881 -7.6222e-07 0)
(42.2816 -7.59883e-07 0)
(42.2749 -7.56864e-07 0)
(42.2679 -7.52927e-07 0)
(42.2607 -7.4856e-07 0)
(42.2531 -7.43267e-07 0)
(42.2451 -7.37504e-07 0)
(42.2368 -7.31453e-07 0)
(42.2281 -7.25163e-07 0)
(42.2191 -7.18735e-07 0)
(42.2097 -7.09522e-07 0)
(42.2 -7.03792e-07 0)
(42.1901 -6.96424e-07 0)
(42.18 -6.92121e-07 0)
(42.1699 -6.87622e-07 0)
(42.1598 -6.84746e-07 0)
(42.1498 -6.82332e-07 0)
(42.1401 -6.82848e-07 0)
(42.1309 -6.83186e-07 0)
(42.1222 -6.86781e-07 0)
(42.1141 -6.89712e-07 0)
(42.1068 -6.95253e-07 0)
(42.1001 -6.99507e-07 0)
(42.0943 -7.05189e-07 0)
(42.0892 -7.09586e-07 0)
(42.0847 -7.14247e-07 0)
(42.0808 -7.13486e-07 0)
(42.0774 -7.06431e-07 0)
(42.0743 -6.07246e-07 0)
(42.0714 -1.69364e-08 0)
(42.0687 3.95672e-06 0)
(42.066 3.16775e-05 0)
(42.0628 0.000224765 0)
(42.0549 0.00156754 0)
(42.0143 0.010872 0)
(41.8386 0.078004 0)
(39.8822 0.369331 0)
(42.6998 -1.86625e-13 0)
(42.6994 -1.94171e-12 0)
(42.699 -2.28744e-12 0)
(42.6986 -1.84008e-12 0)
(42.6982 -4.40405e-12 0)
(42.698 -7.66119e-12 0)
(42.6978 -9.61751e-12 0)
(42.6976 -9.31536e-12 0)
(42.6976 -5.84291e-12 0)
(42.6976 -9.33854e-13 0)
(42.6977 5.00941e-13 0)
(42.6979 4.50721e-13 0)
(42.6982 -5.37405e-13 0)
(42.6985 -2.85993e-12 0)
(42.6989 -4.76471e-12 0)
(42.6993 -7.88154e-12 0)
(42.6998 -8.94664e-12 0)
(42.7003 -1.04753e-11 0)
(42.7008 -1.15561e-11 0)
(42.7013 -1.07573e-11 0)
(42.7018 -9.54584e-12 0)
(42.7023 -8.03863e-12 0)
(42.7027 -7.48583e-12 0)
(42.7031 -7.28765e-12 0)
(42.7034 -6.99466e-12 0)
(42.7036 -6.4867e-12 0)
(42.7038 -7.5114e-12 0)
(42.7039 -7.58977e-12 0)
(42.7039 -9.45865e-12 0)
(42.7039 -1.04507e-11 0)
(42.7038 -1.11617e-11 0)
(42.7036 -1.11887e-11 0)
(42.7034 -1.18325e-11 0)
(42.7031 -1.23748e-11 0)
(42.7028 -1.4763e-11 0)
(42.7024 -1.67952e-11 0)
(42.7021 -1.85389e-11 0)
(42.7017 -1.80506e-11 0)
(42.7014 -1.72831e-11 0)
(42.7011 -1.96628e-11 0)
(42.7008 -2.01442e-11 0)
(42.7006 -2.09773e-11 0)
(42.7004 -1.95304e-11 0)
(42.7003 -1.87484e-11 0)
(42.7003 -1.7283e-11 0)
(42.7003 -1.53937e-11 0)
(42.7004 -1.47206e-11 0)
(42.7005 -1.51322e-11 0)
(42.7007 -1.5442e-11 0)
(42.7009 -1.5988e-11 0)
(42.7012 -1.74377e-11 0)
(42.7015 -1.75279e-11 0)
(42.7018 -1.77622e-11 0)
(42.7021 -1.74843e-11 0)
(42.7024 -1.64223e-11 0)
(42.7027 -1.60588e-11 0)
(42.7029 -1.70337e-11 0)
(42.7031 -1.54026e-11 0)
(42.7032 -1.5742e-11 0)
(42.7032 -1.63659e-11 0)
(42.7031 -1.54259e-11 0)
(42.703 -1.3099e-11 0)
(42.7027 -1.16532e-11 0)
(42.7024 -9.00005e-12 0)
(42.7019 -6.05392e-12 0)
(42.7014 -3.67963e-12 0)
(42.7007 -9.15136e-13 0)
(42.7 2.33235e-12 0)
(42.6992 4.67157e-12 0)
(42.6984 5.6382e-12 0)
(42.6975 4.58412e-12 0)
(42.6965 3.53734e-12 0)
(42.6956 3.57576e-12 0)
(42.6946 3.5252e-12 0)
(42.6936 3.03632e-12 0)
(42.6926 3.14581e-12 0)
(42.6917 4.42873e-12 0)
(42.6908 3.52588e-12 0)
(42.6899 2.29729e-12 0)
(42.6891 6.1261e-13 0)
(42.6883 -4.01527e-12 0)
(42.6875 -7.48704e-12 0)
(42.6867 -9.21384e-12 0)
(42.6859 -9.61147e-12 0)
(42.6852 -9.92033e-12 0)
(42.6843 -9.52768e-12 0)
(42.6835 -1.12702e-11 0)
(42.6826 -1.22852e-11 0)
(42.6815 -1.25568e-11 0)
(42.6804 -1.25151e-11 0)
(42.6792 -1.25954e-11 0)
(42.6777 -1.47418e-11 0)
(42.6761 -1.6421e-11 0)
(42.6743 -1.58093e-11 0)
(42.6723 -1.58752e-11 0)
(42.6701 -1.58313e-11 0)
(42.6676 -1.69518e-11 0)
(42.6648 -1.84145e-11 0)
(42.6618 -1.9074e-11 0)
(42.6585 -1.92188e-11 0)
(42.655 -1.88341e-11 0)
(42.6513 -1.80257e-11 0)
(42.6473 -1.85684e-11 0)
(42.6431 -1.87538e-11 0)
(42.6387 -1.75106e-11 0)
(42.6342 -1.68346e-11 0)
(42.6295 -1.70347e-11 0)
(42.6247 -2.05961e-11 0)
(42.6199 -2.25668e-11 0)
(42.615 -2.30122e-11 0)
(42.6101 -2.13502e-11 0)
(42.6052 -1.86829e-11 0)
(42.6003 -1.63501e-11 0)
(42.5955 -1.45798e-11 0)
(42.5908 -1.15151e-11 0)
(42.5861 -1.02738e-11 0)
(42.5815 -8.95057e-12 0)
(42.5769 -8.01947e-12 0)
(42.5724 -5.54903e-12 0)
(42.568 -3.73331e-12 0)
(42.5635 -3.51932e-12 0)
(42.5591 -3.0972e-12 0)
(42.5546 -4.03532e-12 0)
(42.5501 -3.53694e-12 0)
(42.5455 -1.02317e-12 0)
(42.5408 1.27832e-12 0)
(42.536 2.14096e-12 0)
(42.531 3.54776e-12 0)
(42.5259 3.40271e-12 0)
(42.5205 3.36765e-12 0)
(42.515 4.71858e-12 0)
(42.5092 5.32498e-12 0)
(42.5031 6.12978e-12 0)
(42.4967 7.76936e-12 0)
(42.4901 1.00285e-11 0)
(42.4832 1.11463e-11 0)
(42.4761 1.23644e-11 0)
(42.4687 1.36115e-11 0)
(42.461 1.46862e-11 0)
(42.4532 1.23354e-11 0)
(42.4452 1.33021e-11 0)
(42.4371 7.9292e-12 0)
(42.429 1.72918e-11 0)
(42.4208 5.21111e-13 0)
(42.4128 2.77846e-11 0)
(42.4048 -1.56155e-11 0)
(42.3969 4.32402e-11 0)
(42.3893 -4.37099e-11 0)
(42.3819 6.42918e-11 0)
(42.3747 -7.3716e-11 0)
(42.3677 8.48572e-11 0)
(42.361 -1.15472e-10 0)
(42.3545 -1.32117e-11 0)
(42.3483 -1.28611e-10 0)
(42.3421 -4.03993e-11 0)
(42.3361 -5.4027e-11 0)
(42.3302 -3.31045e-10 0)
(42.3244 -2.22385e-10 0)
(42.3185 -4.99589e-10 0)
(42.3126 -2.90166e-10 0)
(42.3067 -6.9144e-10 0)
(42.3006 -4.68785e-10 0)
(42.2945 -7.78213e-10 0)
(42.2882 -5.85068e-10 0)
(42.2817 -7.06238e-10 0)
(42.2749 -9.76564e-10 0)
(42.268 -4.94198e-10 0)
(42.2607 -7.86172e-10 0)
(42.2531 -2.18409e-10 0)
(42.2451 -9.30859e-11 0)
(42.2368 -3.26959e-10 0)
(42.2282 -2.01694e-10 0)
(42.2191 -2.07003e-09 0)
(42.2097 4.57889e-10 0)
(42.2001 -4.79668e-09 0)
(42.1901 -9.91789e-10 0)
(42.18 -4.83219e-09 0)
(42.1699 -1.5971e-09 0)
(42.1598 -4.34122e-09 0)
(42.1498 -3.05675e-09 0)
(42.1402 -7.60801e-09 0)
(42.1309 -4.07178e-09 0)
(42.1222 -7.22079e-09 0)
(42.1141 -4.45086e-09 0)
(42.1068 -8.93984e-09 0)
(42.1002 -4.34901e-09 0)
(42.0943 -7.21556e-09 0)
(42.0892 -4.3349e-09 0)
(42.0847 -8.06476e-09 0)
(42.0809 -6.45395e-09 0)
(42.0774 -8.64169e-09 0)
(42.0743 1.93501e-07 0)
(42.0714 1.26933e-06 0)
(42.0687 9.21642e-06 0)
(42.0661 6.46922e-05 0)
(42.0637 0.000456884 0)
(42.0611 0.00322485 0)
(42.0569 0.0226497 0)
(42.0381 0.160158 0)
(41.8866 0.733117 0)
(42.6999 -0.000128289 0)
(42.6995 -9.90548e-05 0)
(42.699 -8.59533e-05 0)
(42.6986 -8.53812e-05 0)
(42.6983 -8.53574e-05 0)
(42.698 -8.49812e-05 0)
(42.6978 -8.47135e-05 0)
(42.6977 -8.45654e-05 0)
(42.6976 -8.44482e-05 0)
(42.6976 -8.43898e-05 0)
(42.6977 -8.43496e-05 0)
(42.6979 -8.43214e-05 0)
(42.6982 -8.43062e-05 0)
(42.6985 -8.43003e-05 0)
(42.6989 -8.43025e-05 0)
(42.6993 -8.43121e-05 0)
(42.6998 -8.43281e-05 0)
(42.7003 -8.43466e-05 0)
(42.7008 -8.43885e-05 0)
(42.7013 -8.44153e-05 0)
(42.7018 -8.44593e-05 0)
(42.7023 -8.45044e-05 0)
(42.7027 -8.45529e-05 0)
(42.7031 -8.46028e-05 0)
(42.7034 -8.46526e-05 0)
(42.7036 -8.47009e-05 0)
(42.7038 -8.47461e-05 0)
(42.7039 -8.47861e-05 0)
(42.704 -8.48181e-05 0)
(42.7039 -8.48349e-05 0)
(42.7038 -8.48325e-05 0)
(42.7036 -8.48012e-05 0)
(42.7034 -8.47226e-05 0)
(42.7031 -8.46292e-05 0)
(42.7028 -8.4341e-05 0)
(42.7024 -8.40364e-05 0)
(42.7021 -8.35594e-05 0)
(42.7017 -8.2891e-05 0)
(42.7014 -8.19922e-05 0)
(42.7011 -8.08174e-05 0)
(42.7008 -7.93228e-05 0)
(42.7006 -7.74685e-05 0)
(42.7004 -7.52238e-05 0)
(42.7003 -7.2571e-05 0)
(42.7003 -6.95055e-05 0)
(42.7003 -6.60394e-05 0)
(42.7004 -6.2208e-05 0)
(42.7005 -5.80529e-05 0)
(42.7007 -5.36418e-05 0)
(42.7009 -4.90512e-05 0)
(42.7012 -4.43654e-05 0)
(42.7015 -3.9672e-05 0)
(42.7018 -3.50587e-05 0)
(42.7021 -3.06061e-05 0)
(42.7024 -2.63844e-05 0)
(42.7026 -2.24502e-05 0)
(42.7029 -1.88478e-05 0)
(42.703 -1.56062e-05 0)
(42.7031 -1.27353e-05 0)
(42.7032 -1.02344e-05 0)
(42.7031 -8.08826e-06 0)
(42.703 -6.27741e-06 0)
(42.7027 -4.77545e-06 0)
(42.7024 -3.54337e-06 0)
(42.7019 -2.55201e-06 0)
(42.7014 -1.76395e-06 0)
(42.7007 -1.1464e-06 0)
(42.7 -6.68869e-07 0)
(42.6992 -3.05072e-07 0)
(42.6984 -3.27556e-08 0)
(42.6974 1.70757e-07 0)
(42.6965 3.18354e-07 0)
(42.6955 4.2571e-07 0)
(42.6946 5.02826e-07 0)
(42.6936 5.57213e-07 0)
(42.6926 5.95941e-07 0)
(42.6917 6.26803e-07 0)
(42.6908 6.44502e-07 0)
(42.6899 6.58514e-07 0)
(42.6891 6.68941e-07 0)
(42.6883 6.7672e-07 0)
(42.6875 6.82719e-07 0)
(42.6867 6.87485e-07 0)
(42.6859 6.91354e-07 0)
(42.6851 6.94517e-07 0)
(42.6843 6.97115e-07 0)
(42.6835 6.99247e-07 0)
(42.6825 7.00998e-07 0)
(42.6815 7.02397e-07 0)
(42.6804 7.0347e-07 0)
(42.6791 7.04246e-07 0)
(42.6777 7.0474e-07 0)
(42.6761 7.04983e-07 0)
(42.6743 7.05008e-07 0)
(42.6723 7.04857e-07 0)
(42.67 7.04555e-07 0)
(42.6676 7.04107e-07 0)
(42.6648 7.03518e-07 0)
(42.6618 7.02812e-07 0)
(42.6585 7.02038e-07 0)
(42.655 7.01289e-07 0)
(42.6513 7.00665e-07 0)
(42.6473 7.00246e-07 0)
(42.6431 7.00086e-07 0)
(42.6387 7.00251e-07 0)
(42.6341 7.00833e-07 0)
(42.6295 7.019e-07 0)
(42.6247 7.03467e-07 0)
(42.6199 7.05499e-07 0)
(42.615 7.07953e-07 0)
(42.6101 7.1077e-07 0)
(42.6052 7.13873e-07 0)
(42.6003 7.17187e-07 0)
(42.5955 7.20632e-07 0)
(42.5908 7.24132e-07 0)
(42.5861 7.2761e-07 0)
(42.5815 7.31002e-07 0)
(42.5769 7.34251e-07 0)
(42.5724 7.37299e-07 0)
(42.5679 7.40107e-07 0)
(42.5635 7.42601e-07 0)
(42.5591 7.4468e-07 0)
(42.5546 7.46212e-07 0)
(42.5501 7.4718e-07 0)
(42.5455 7.47672e-07 0)
(42.5408 7.47738e-07 0)
(42.536 7.47365e-07 0)
(42.531 7.46517e-07 0)
(42.5259 7.45193e-07 0)
(42.5205 7.4343e-07 0)
(42.515 7.41275e-07 0)
(42.5091 7.3877e-07 0)
(42.5031 7.35946e-07 0)
(42.4967 7.32863e-07 0)
(42.4901 7.29617e-07 0)
(42.4832 7.26324e-07 0)
(42.4761 7.23127e-07 0)
(42.4686 7.20233e-07 0)
(42.461 7.17722e-07 0)
(42.4532 7.15624e-07 0)
(42.4452 7.13967e-07 0)
(42.4371 7.129e-07 0)
(42.429 7.12658e-07 0)
(42.4208 7.13346e-07 0)
(42.4127 7.14921e-07 0)
(42.4048 7.17256e-07 0)
(42.3969 7.2029e-07 0)
(42.3893 7.23859e-07 0)
(42.3818 7.27966e-07 0)
(42.3747 7.32327e-07 0)
(42.3677 7.3707e-07 0)
(42.361 7.41626e-07 0)
(42.3545 7.46226e-07 0)
(42.3482 7.50255e-07 0)
(42.3421 7.54157e-07 0)
(42.3361 7.57582e-07 0)
(42.3302 7.60038e-07 0)
(42.3243 7.62068e-07 0)
(42.3185 7.63087e-07 0)
(42.3126 7.64353e-07 0)
(42.3067 7.64394e-07 0)
(42.3006 7.64633e-07 0)
(42.2945 7.63403e-07 0)
(42.2881 7.62096e-07 0)
(42.2816 7.59617e-07 0)
(42.2749 7.56288e-07 0)
(42.2679 7.52927e-07 0)
(42.2607 7.48043e-07 0)
(42.2531 7.4334e-07 0)
(42.2451 7.37576e-07 0)
(42.2368 7.31096e-07 0)
(42.2281 7.25451e-07 0)
(42.2191 7.16466e-07 0)
(42.2097 7.11694e-07 0)
(42.2 6.99563e-07 0)
(42.1901 6.97991e-07 0)
(42.18 6.88079e-07 0)
(42.1699 6.88336e-07 0)
(42.1598 6.81524e-07 0)
(42.1498 6.82693e-07 0)
(42.1401 6.77723e-07 0)
(42.1309 6.83513e-07 0)
(42.1222 6.82348e-07 0)
(42.1141 6.89814e-07 0)
(42.1068 6.89585e-07 0)
(42.1001 7.00473e-07 0)
(42.0943 7.01489e-07 0)
(42.0892 7.09796e-07 0)
(42.0847 7.07819e-07 0)
(42.0808 7.20608e-07 0)
(42.0774 7.03651e-07 0)
(42.0743 8.58415e-07 0)
(42.0714 1.53287e-06 0)
(42.0687 6.99786e-06 0)
(42.0663 4.52458e-05 0)
(42.065 0.000318695 0)
(42.0705 0.00227701 0)
(42.1243 0.0164258 0)
(42.3294 0.135288 0)
(45.4729 0.57049 0)
(42.6981 -0.000101129 0)
(42.6959 -9.25712e-05 0)
(42.6937 -8.99443e-05 0)
(42.6915 -9.08702e-05 0)
(42.6893 -9.15977e-05 0)
(42.6873 -9.20297e-05 0)
(42.6853 -9.2366e-05 0)
(42.6834 -9.26449e-05 0)
(42.6815 -9.28552e-05 0)
(42.6798 -9.30392e-05 0)
(42.6781 -9.31894e-05 0)
(42.6765 -9.33104e-05 0)
(42.6749 -9.34104e-05 0)
(42.6735 -9.34939e-05 0)
(42.6721 -9.35655e-05 0)
(42.6707 -9.36291e-05 0)
(42.6694 -9.36875e-05 0)
(42.6681 -9.37408e-05 0)
(42.6668 -9.38052e-05 0)
(42.6655 -9.38529e-05 0)
(42.6642 -9.39107e-05 0)
(42.6629 -9.39684e-05 0)
(42.6615 -9.40261e-05 0)
(42.6601 -9.40825e-05 0)
(42.6586 -9.41367e-05 0)
(42.657 -9.41876e-05 0)
(42.6554 -9.42335e-05 0)
(42.6537 -9.42723e-05 0)
(42.6519 -9.4301e-05 0)
(42.65 -9.4313e-05 0)
(42.6481 -9.43028e-05 0)
(42.6461 -9.42596e-05 0)
(42.6441 -9.41654e-05 0)
(42.642 -9.40326e-05 0)
(42.6399 -9.37378e-05 0)
(42.6378 -9.33749e-05 0)
(42.6356 -9.28343e-05 0)
(42.6335 -9.20831e-05 0)
(42.6314 -9.10757e-05 0)
(42.6294 -8.97624e-05 0)
(42.6274 -8.80948e-05 0)
(42.6255 -8.60294e-05 0)
(42.6237 -8.35322e-05 0)
(42.622 -8.05832e-05 0)
(42.6205 -7.71777e-05 0)
(42.619 -7.33291e-05 0)
(42.6177 -6.90752e-05 0)
(42.6166 -6.44646e-05 0)
(42.6156 -5.95702e-05 0)
(42.6147 -5.44763e-05 0)
(42.614 -4.92767e-05 0)
(42.6134 -4.40689e-05 0)
(42.6129 -3.89488e-05 0)
(42.6125 -3.4006e-05 0)
(42.6122 -2.93187e-05 0)
(42.6119 -2.49502e-05 0)
(42.6117 -2.09487e-05 0)
(42.6115 -1.73458e-05 0)
(42.6114 -1.41543e-05 0)
(42.6111 -1.1373e-05 0)
(42.6109 -8.98599e-06 0)
(42.6106 -6.97076e-06 0)
(42.6102 -5.29647e-06 0)
(42.6098 -3.92334e-06 0)
(42.6093 -2.81662e-06 0)
(42.6087 -1.93666e-06 0)
(42.608 -1.2477e-06 0)
(42.6073 -7.1653e-07 0)
(42.6065 -3.14154e-07 0)
(42.6056 -1.6679e-08 0)
(42.6047 2.18112e-07 0)
(42.6038 3.85197e-07 0)
(42.6028 5.05016e-07 0)
(42.6019 5.90338e-07 0)
(42.6009 6.5028e-07 0)
(42.5999 6.92346e-07 0)
(42.599 7.23725e-07 0)
(42.5981 7.43143e-07 0)
(42.5973 7.57444e-07 0)
(42.5964 7.67614e-07 0)
(42.5957 7.7488e-07 0)
(42.5949 7.80209e-07 0)
(42.5941 7.8423e-07 0)
(42.5934 7.87348e-07 0)
(42.5926 7.898e-07 0)
(42.5918 7.91753e-07 0)
(42.591 7.93324e-07 0)
(42.5901 7.94601e-07 0)
(42.5891 7.95641e-07 0)
(42.5879 7.96483e-07 0)
(42.5867 7.97144e-07 0)
(42.5853 7.97643e-07 0)
(42.5837 7.97998e-07 0)
(42.5819 7.98242e-07 0)
(42.5799 7.984e-07 0)
(42.5777 7.9846e-07 0)
(42.5752 7.98435e-07 0)
(42.5725 7.98301e-07 0)
(42.5695 7.98048e-07 0)
(42.5662 7.97696e-07 0)
(42.5627 7.97291e-07 0)
(42.559 7.9691e-07 0)
(42.555 7.96627e-07 0)
(42.5508 7.96483e-07 0)
(42.5465 7.96501e-07 0)
(42.542 7.96736e-07 0)
(42.5373 7.97229e-07 0)
(42.5325 7.9801e-07 0)
(42.5277 7.99052e-07 0)
(42.5228 8.00316e-07 0)
(42.518 8.01741e-07 0)
(42.5131 8.03298e-07 0)
(42.5082 8.04938e-07 0)
(42.5034 8.06606e-07 0)
(42.4987 8.0827e-07 0)
(42.4941 8.099e-07 0)
(42.4895 8.11469e-07 0)
(42.4849 8.12955e-07 0)
(42.4804 8.14346e-07 0)
(42.476 8.15624e-07 0)
(42.4715 8.16748e-07 0)
(42.4671 8.17649e-07 0)
(42.4627 8.18231e-07 0)
(42.4582 8.18465e-07 0)
(42.4536 8.18402e-07 0)
(42.4489 8.18109e-07 0)
(42.4441 8.17593e-07 0)
(42.4392 8.1682e-07 0)
(42.434 8.1578e-07 0)
(42.4287 8.14494e-07 0)
(42.4232 8.12981e-07 0)
(42.4174 8.11276e-07 0)
(42.4113 8.09385e-07 0)
(42.405 8.0733e-07 0)
(42.3984 8.05157e-07 0)
(42.3915 8.02931e-07 0)
(42.3844 8.00733e-07 0)
(42.377 7.98701e-07 0)
(42.3693 7.96887e-07 0)
(42.3615 7.95283e-07 0)
(42.3536 7.93865e-07 0)
(42.3455 7.92706e-07 0)
(42.3374 7.91973e-07 0)
(42.3292 7.91745e-07 0)
(42.3212 7.92008e-07 0)
(42.3132 7.92687e-07 0)
(42.3054 7.93705e-07 0)
(42.2978 7.94996e-07 0)
(42.2904 7.96527e-07 0)
(42.2832 7.98228e-07 0)
(42.2763 8.00101e-07 0)
(42.2696 8.01938e-07 0)
(42.2631 8.03734e-07 0)
(42.2568 8.05263e-07 0)
(42.2507 8.06659e-07 0)
(42.2447 8.07907e-07 0)
(42.2388 8.0862e-07 0)
(42.233 8.08984e-07 0)
(42.2272 8.08841e-07 0)
(42.2213 8.088e-07 0)
(42.2154 8.08318e-07 0)
(42.2093 8.07777e-07 0)
(42.2032 8.06575e-07 0)
(42.1969 8.05271e-07 0)
(42.1904 8.0335e-07 0)
(42.1837 8.0099e-07 0)
(42.1767 7.98294e-07 0)
(42.1695 7.94923e-07 0)
(42.1619 7.9131e-07 0)
(42.154 7.87217e-07 0)
(42.1457 7.82855e-07 0)
(42.137 7.79226e-07 0)
(42.128 7.74151e-07 0)
(42.1186 7.70527e-07 0)
(42.109 7.64835e-07 0)
(42.0991 7.62044e-07 0)
(42.089 7.56678e-07 0)
(42.0788 7.54722e-07 0)
(42.0688 7.50823e-07 0)
(42.0588 7.50956e-07 0)
(42.0492 7.49068e-07 0)
(42.0399 7.50295e-07 0)
(42.0312 7.49304e-07 0)
(42.0232 7.51937e-07 0)
(42.0158 7.52612e-07 0)
(42.0092 7.56416e-07 0)
(42.0034 7.56903e-07 0)
(41.9983 7.59755e-07 0)
(41.9939 7.58741e-07 0)
(41.99 7.714e-07 0)
(41.9866 7.6139e-07 0)
(41.9835 7.92735e-07 0)
(41.9806 9.08209e-07 0)
(41.9779 1.781e-06 0)
(41.9756 7.72175e-06 0)
(41.9743 5.0214e-05 0)
(41.98 0.000360963 0)
(42.0373 0.00284144 0)
(42.2605 0.0395291 0)
(47.5258 0.161704 0)
(37.8082 1.28408 -3.16366e-15)
(36.7279 3.68403 6.34611e-15)
(36.2997 6.41598 -1.18977e-14)
(35.8697 9.17764 2.45867e-14)
(35.1832 11.9041 -2.537e-14)
(34.2602 14.5795 -1.5848e-15)
(33.2541 17.2527 3.12715e-20)
(32.3799 20.0899 -2.20821e-14)
(31.5676 23.1408 -1.02146e-13)
(30.3161 26.0239 1.00446e-13)
(28.3276 28.298 -2.51098e-14)
(25.7538 29.9017 -5.18478e-14)
(22.8537 30.9668 2.67808e-14)
(19.8707 31.7771 0)
(17.2888 33.3446 2.52567e-14)
(15.3949 36.6998 2.49648e-14)
(13.6339 41.7919 -2.45719e-14)
(11.2833 47.3726 2.42233e-14)
(8.08191 51.7386 1.87604e-16)
(4.54799 54.8522 -1.85862e-16)
(39.0036 2.03063 0)
(38.3573 4.95085 0)
(37.9307 8.16964 -1.61087e-15)
(37.3855 11.3712 -3.2189e-15)
(36.554 14.5152 8.03914e-15)
(35.4444 17.5858 1.60615e-14)
(34.2703 20.5082 0)
(33.2683 23.4566 9.56698e-15)
(32.225 26.7751 1.58761e-14)
(30.4416 30.3397 -3.80591e-14)
(27.7487 33.3364 2.53728e-14)
(24.4233 35.4911 1.268e-14)
(20.774 36.8457 -1.26954e-14)
(17.3419 37.3553 1.27453e-14)
(15.283 37.6177 0)
(14.393 39.2724 -1.5765e-15)
(13.086 43.0533 1.55177e-15)
(10.2894 48.2158 -5.35667e-15)
(5.56035 53.267 -7.59459e-16)
(1.01401 56.572 0)
(41.8375 1.61427 -4.10594e-17)
(41.8374 2.66451 -2.08669e-14)
(41.9394 3.73324 2.11928e-14)
(42.1261 4.799 -2.03693e-14)
(42.3484 5.93533 -2.2342e-14)
(42.5647 7.22147 8.31579e-14)
(42.7247 8.70632 -4.20941e-14)
(42.7803 10.3696 4.08022e-14)
(42.7578 12.1161 -8.30076e-14)
(42.7444 13.9349 1.32574e-15)
(42.6973 15.9714 4.09211e-14)
(42.4408 18.3292 0)
(41.8279 20.9953 -4.09142e-14)
(40.7212 23.9108 4.09183e-14)
(38.9005 26.9358 -3.29957e-16)
(36.4119 29.744 0)
(33.8679 32.0241 3.30864e-16)
(31.9938 33.8053 0)
(31.0623 35.4657 0)
(30.6131 37.3829 0)
(46.0112 2.60654 6.2799e-16)
(45.7404 5.9889 -6.30054e-15)
(44.7287 10.0121 -1.26273e-15)
(43.5325 14.141 2.52281e-15)
(42.4428 18.2145 -2.51207e-15)
(41.3953 22.2237 -4.79822e-19)
(40.2229 26.1631 -9.93194e-15)
(38.7719 29.9889 0)
(37.0034 33.6869 0)
(34.917 37.2507 -4.88614e-15)
(32.487 40.6272 4.86206e-15)
(29.7347 43.8056 0)
(26.6604 46.7332 -4.81706e-15)
(23.2929 49.3757 4.80109e-15)
(19.6725 51.7067 -4.78466e-15)
(15.8375 53.7084 9.53716e-15)
(11.8151 55.3652 -4.75725e-15)
(7.63683 56.6488 0)
(3.37543 57.5465 -2.36732e-15)
(-0.540731 57.9752 0)
(48.9811 1.79852 -9.58016e-16)
(49.9449 4.6091 7.34379e-15)
(49.6488 7.98608 5.10895e-15)
(48.8346 11.5262 1.02102e-14)
(48.006 15.1971 0)
(47.1844 18.9988 0)
(46.2312 22.8831 1.01089e-14)
(45.0192 26.7673 2.51575e-15)
(43.4819 30.6314 -5.00844e-15)
(41.624 34.4041 2.49383e-15)
(39.4041 38.0465 1.98666e-14)
(36.8402 41.5042 -1.23708e-14)
(33.93 44.7287 1.2334e-14)
(30.6893 47.6828 -2.45923e-15)
(27.1464 50.3364 -9.81442e-15)
(23.3398 52.6516 -1.71475e-14)
(19.321 54.5639 -8.56416e-15)
(15.1505 55.9655 -1.22357e-15)
(10.9011 56.6844 7.04026e-15)
(6.83121 56.3678 3.07009e-16)
(1.65424 56.1396 0)
(1.19687 54.926 0)
(0.956565 56.6162 0)
(1.00328 58.4621 0)
(1.06607 58.7193 0)
(1.07978 58.3287 0)
(1.07449 58.1769 0)
(1.06088 58.3024 0)
(1.06479 58.4174 0)
(1.06784 58.4088 0)
(1.06769 58.3517 0)
(1.06589 58.301 0)
(1.06314 58.2624 0)
(1.06013 58.2297 0)
(1.05714 58.198 0)
(1.05421 58.1655 0)
(1.05135 58.1331 0)
(1.04861 58.102 0)
(1.04605 58.0728 0)
(1.0437 58.0462 0)
(1.0416 58.0224 0)
(1.03976 58.0018 0)
(1.03815 57.9844 0)
(1.03677 57.9706 0)
(1.03557 57.9601 0)
(1.03451 57.9525 0)
(1.03356 57.9472 0)
(1.03267 57.9434 0)
(1.03182 57.9399 0)
(1.03094 57.9359 0)
(1.02996 57.9306 0)
(1.02869 57.9248 0)
(1.02655 57.9245 0)
(1.02253 57.9456 0)
(1.01938 57.9919 0)
(1.0191 58.0396 0)
(1.02103 58.0649 0)
(1.02226 58.0639 0)
(1.02254 58.0501 0)
(1.02187 58.0352 0)
(1.02047 58.0216 0)
(1.0183 58.0098 0)
(1.01523 58 0)
(1.01101 57.9923 0)
(1.00536 57.986 0)
(0.997993 57.9806 0)
(0.988592 57.9751 0)
(0.976806 57.9685 0)
(0.962298 57.9596 0)
(0.944701 57.9477 0)
(0.923694 57.9311 0)
(0.89899 57.9078 0)
(0.870404 57.8748 0)
(0.837894 57.8279 0)
(0.801587 57.7622 0)
(0.761796 57.6719 0)
(0.719022 57.5515 0)
(0.673893 57.3956 0)
(0.627129 57.1992 0)
(0.57949 56.958 0)
(0.531703 56.6677 0)
(0.484415 56.3231 0)
(0.438154 55.918 0)
(0.39332 55.4445 0)
(0.350168 54.8941 0)
(0.308803 54.2583 0)
(0.26956 53.5304 0)
(0.232419 52.7089 0)
(0.197698 51.7993 0)
(0.165838 50.8159 0)
(0.137221 49.7825 0)
(0.111936 48.7319 0)
(0.0904225 47.7005 0)
(0.07245 46.7239 0)
(0.0577402 45.8327 0)
(0.0459063 45.0477 0)
(0.0364679 44.3789 0)
(0.0289543 43.8259 0)
(0.0229529 43.3807 0)
(0.0181233 43.0306 0)
(0.01423 42.7607 0)
(0.0110884 42.5562 0)
(0.00856188 42.4035 0)
(0.00654394 42.2908 0)
(0.00494748 42.2086 0)
(0.00369863 42.1491 0)
(0.0027335 42.1063 0)
(0.00199728 42.0756 0)
(0.00144282 42.0536 0)
(0.00103065 42.0377 0)
(0.000728114 42.026 0)
(0.000508844 42.0173 0)
(0.000351839 42.0105 0)
(0.000240767 42.005 0)
(0.000163106 42.0003 0)
(0.000109425 41.9961 0)
(7.27327e-05 41.9921 0)
(4.79277e-05 41.9883 0)