/*--------------------------------*- C++ -*----------------------------------*\
| =========                 |                                                 |
| \\      /  F ield         | OpenFOAM: The Open Source CFD Toolbox           |
|  \\    /   O peration     | Version:  3.0.x                                 |
|   \\  /    A nd           | Web:      www.OpenFOAM.org                      |
|    \\/     M anipulation  |                                                 |
\*---------------------------------------------------------------------------*/
FoamFile
{
    version     2.0;
    format      ascii;
    class       surfaceScalarField;
    location    "0.59";
    object      phi;
}
// * * * * * * * * * * * * * * * * * * * * * * * * * * * * * * * * * * * * * //

dimensions      [1 0 -1 0 0 0 0];

internalField   nonuniform List<scalar> 
26210
(
4.20918
0.000509476
4.1767
0.000357976
4.14424
0.000357108
4.11178
0.000363753
4.07932
0.000368998
4.04686
0.000374113
4.01439
0.000378975
3.98191
0.000383393
3.94942
0.000387367
3.91692
0.000390873
3.88443
0.000393957
3.85194
0.000396496
3.81944
0.000398622
3.78696
0.000400282
3.7545
0.000401467
3.72207
0.000402422
3.68968
0.000403171
3.65733
0.0004036
3.62503
0.000403924
3.59277
0.000404197
3.56057
0.000404433
3.52844
0.000404098
3.49638
0.000405075
3.46438
0.000404711
3.43246
0.000404749
3.40061
0.000404714
3.36883
0.000404412
3.33714
0.000404562
3.30553
0.000403961
3.274
0.000404067
3.24256
0.000403535
3.21121
0.000403544
3.17995
0.000403097
3.14879
0.000403224
3.11773
0.000402854
3.08676
0.000403198
3.05589
0.000402306
3.02512
0.000403027
2.99447
0.000402467
2.96392
0.000402633
2.93348
0.000402066
2.90315
0.000402228
2.87294
0.000401954
2.84284
0.000402005
2.81286
0.000401655
2.78301
0.000401374
2.75327
0.00040159
2.72366
0.000400896
2.69418
0.000401334
2.66483
0.000401243
2.6356
0.000400655
2.60651
0.000400826
2.57755
0.00040081
2.54874
0.000400246
2.52006
0.000400014
2.49152
0.000399598
2.46312
0.000399684
2.43487
0.000398758
2.40676
0.000399471
2.37879
0.000398402
2.35098
0.000399025
2.32331
0.000398234
2.2958
0.000397981
2.26844
0.000397676
2.24123
0.000397274
2.21418
0.000396936
2.18729
0.000396404
2.16056
0.000396583
2.13399
0.000395625
2.10758
0.000395635
2.08134
0.000394905
2.05526
0.000393922
2.02934
0.000392615
2.00359
0.000391175
1.97801
0.00038949
1.95261
0.000386871
1.92737
0.000383536
1.90231
0.000379753
1.87743
0.00037535
1.85272
0.000369828
1.8282
0.000363147
1.80386
0.000355376
1.7797
0.000346431
1.75573
0.000336435
1.73195
0.000325223
1.70836
0.000312868
1.68496
0.000299368
1.66176
0.000284665
1.63875
0.000268896
1.61594
0.000251978
1.59333
0.000234146
1.57093
0.000215799
1.54872
0.000196924
1.52672
0.000177977
1.50492
0.000158882
1.48332
0.000140503
1.46193
0.000122196
1.44074
0.000104869
1.41975
8.86633e-05
1.39897
7.25529e-05
1.37839
5.85178e-05
1.35801
4.50099e-05
1.33782
3.28429e-05
1.31784
2.13187e-05
1.29806
1.31999e-05
1.27847
4.08664e-06
1.25907
-2.32915e-06
1.23987
-9.00804e-06
1.22086
-1.3979e-05
1.20205
-1.95686e-05
1.18343
-2.30145e-05
1.165
-2.58301e-05
1.14676
-2.98158e-05
1.12872
-3.13905e-05
1.11086
-3.43389e-05
1.09319
-3.48505e-05
1.07571
-3.64448e-05
1.05842
-3.65947e-05
1.04132
-3.78133e-05
1.0244
-3.70619e-05
1.00767
-3.75492e-05
0.99113
-3.83151e-05
0.974775
-3.83812e-05
0.958606
-3.82973e-05
0.942621
-3.82905e-05
0.926822
-3.7959e-05
0.911206
-3.75209e-05
0.895774
-3.73054e-05
0.880526
-3.73114e-05
0.865461
-3.75897e-05
0.850578
-3.77517e-05
0.835878
-3.84652e-05
0.821357
-3.82146e-05
0.807018
-3.93817e-05
0.792858
-3.82472e-05
0.778877
-3.88091e-05
0.765073
-3.86736e-05
0.751445
-3.80627e-05
0.737993
-3.78147e-05
0.724715
-3.77525e-05
0.711612
-3.76638e-05
0.698681
-3.75049e-05
0.685922
-3.7398e-05
0.673334
-3.74501e-05
0.660916
-3.76717e-05
0.648667
-3.80537e-05
0.636585
-3.82214e-05
0.624669
-3.81539e-05
0.612918
-3.8047e-05
0.60133
-3.80103e-05
0.589904
-3.78854e-05
0.578638
-3.74506e-05
0.567531
-3.66804e-05
0.556581
-3.59525e-05
0.545786
-3.52794e-05
0.535147
-3.53216e-05
0.524662
-3.5999e-05
0.51433
-3.65424e-05
0.504148
-3.65547e-05
0.494114
-3.63291e-05
0.484228
-3.60565e-05
0.474487
-3.60421e-05
0.464891
-3.62394e-05
0.455438
-3.64707e-05
0.446125
-3.67098e-05
0.436951
-3.64412e-05
0.427915
-3.5894e-05
0.419015
-3.58615e-05
0.410249
-3.59518e-05
0.401616
-3.55013e-05
0.393114
-3.4981e-05
0.384741
-3.52051e-05
0.376496
-3.54382e-05
0.368378
-3.59506e-05
0.360386
-3.58886e-05
0.352516
-3.57515e-05
0.344767
-3.44814e-05
0.337138
-3.39909e-05
0.329627
-3.32267e-05
0.322234
-3.42047e-05
0.314957
-3.39746e-05
0.307794
-3.42354e-05
0.300744
-3.2607e-05
0.293805
-3.33408e-05
0.286977
-3.31518e-05
0.28026
-3.55549e-05
0.273648
-3.2944e-05
0.267145
-3.54554e-05
0.260745
-3.26149e-05
0.254452
-3.65158e-05
0.248256
-3.0467e-05
0.242166
-3.47374e-05
0.236172
-2.79964e-05
0.230269
-2.07757e-05
0.224417
2.83601e-05
0.218472
0.000219085
0.211748
0.00109704
0.203095
0.0031209
0.167288
0.0303692
0.0539179
0.10803
5.95351
0.000465277
5.9081
0.000339396
5.86273
0.000331641
5.81736
0.000339574
5.772
0.000344469
5.72665
0.000349214
5.68129
0.00035386
5.63592
0.000358083
5.59054
0.00036189
5.54516
0.000365281
5.4998
0.000368283
5.45443
0.000370767
5.40906
0.000372835
5.36372
0.000374436
5.31841
0.000375568
5.27314
0.000376471
5.22793
0.000377189
5.18278
0.000377619
5.13768
0.000377962
5.09266
0.000378237
5.04773
0.000378485
5.00288
0.000378076
4.95813
0.000379141
4.91348
0.000378644
4.86893
0.000378793
4.82449
0.000378684
4.78015
0.000378616
4.73592
0.000378763
4.69181
0.000378388
4.64783
0.00037857
4.60396
0.000378175
4.56022
0.000378225
4.51661
0.00037794
4.47313
0.000378075
4.42979
0.000377814
4.38659
0.000378139
4.34353
0.000377394
4.30061
0.000377966
4.25785
0.000377498
4.21524
0.000377592
4.17278
0.000377191
4.13049
0.000377432
4.08835
0.00037738
4.04638
0.000377576
4.00458
0.000377414
3.96294
0.000377228
3.92149
0.000377438
3.8802
0.000376818
3.8391
0.0003772
3.79818
0.000377193
3.75744
0.000376755
3.71689
0.000377045
3.67653
0.000377177
3.63636
0.000376769
3.59639
0.000376602
3.55662
0.000376281
3.51704
0.000376346
3.47767
0.000375624
3.43851
0.000376203
3.39955
0.000375415
3.3608
0.000375741
3.32226
0.000375091
3.28394
0.000374581
3.24583
0.000374193
3.20794
0.000373776
3.17027
0.000373408
3.13282
0.000373013
3.0956
0.000373342
3.0586
0.000372656
3.02184
0.000372786
2.9853
0.000372276
2.949
0.000371426
2.91293
0.000370186
2.87709
0.000368709
2.84149
0.00036695
2.80613
0.000364341
2.771
0.000361081
2.73612
0.000357382
2.70148
0.000353006
2.66709
0.000347418
2.63294
0.000340573
2.59905
0.00033262
2.5654
0.000323573
2.532
0.000313667
2.49885
0.000302787
2.46595
0.000290951
2.4333
0.000278084
2.40091
0.000264027
2.36877
0.000248834
2.33689
0.000232425
2.30527
0.00021508
2.2739
0.000197266
2.24279
0.000179095
2.21195
0.00016107
2.18136
0.000143134
2.15103
0.00012599
2.12096
0.000109012
2.09115
9.29187e-05
2.06161
7.77884e-05
2.03233
6.27781e-05
2.00331
4.96976e-05
1.97456
3.72369e-05
1.94607
2.60778e-05
1.91785
1.56633e-05
1.88989
8.34247e-06
1.86219
3.05678e-07
1.83477
-5.30411e-06
1.8076
-1.0996e-05
1.7807
-1.51485e-05
1.75407
-1.98044e-05
1.7277
-2.26098e-05
1.7016
-2.48788e-05
1.67577
-2.82915e-05
1.6502
-2.96664e-05
1.62489
-3.22282e-05
1.59986
-3.26908e-05
1.57508
-3.40955e-05
1.55057
-3.42469e-05
1.52633
-3.53063e-05
1.50235
-3.46706e-05
1.47864
-3.5075e-05
1.45519
-3.57992e-05
1.432
-3.5875e-05
1.40908
-3.57599e-05
1.38641
-3.57514e-05
1.36401
-3.54498e-05
1.34188
-3.50124e-05
1.32
-3.4837e-05
1.29838
-3.48766e-05
1.27701
-3.51103e-05
1.25591
-3.52879e-05
1.23506
-3.5936e-05
1.21447
-3.57238e-05
1.19414
-3.68091e-05
1.17405
-3.57422e-05
1.15422
-3.62219e-05
1.13464
-3.61149e-05
1.11531
-3.55345e-05
1.09623
-3.53443e-05
1.0774
-3.52434e-05
1.05881
-3.51845e-05
1.04047
-3.49923e-05
1.02237
-3.4939e-05
1.00451
-3.49315e-05
0.986897
-3.52669e-05
0.969517
-3.55539e-05
0.952374
-3.57512e-05
0.935466
-3.55596e-05
0.91879
-3.55445e-05
0.902346
-3.55327e-05
0.886131
-3.53717e-05
0.870144
-3.52701e-05
0.854382
-3.49127e-05
0.838844
-3.44544e-05
0.823527
-3.34326e-05
0.808428
-3.30692e-05
0.793546
-3.32124e-05
0.778879
-3.34936e-05
0.764425
-3.37472e-05
0.750182
-3.35525e-05
0.736146
-3.34307e-05
0.722317
-3.35185e-05
0.708692
-3.37944e-05
0.695269
-3.40949e-05
0.682045
-3.41474e-05
0.669017
-3.42211e-05
0.656185
-3.34403e-05
0.643545
-3.34346e-05
0.631095
-3.35159e-05
0.618834
-3.33955e-05
0.606758
-3.283e-05
0.594864
-3.27972e-05
0.583152
-3.30443e-05
0.571618
-3.32889e-05
0.560261
-3.35492e-05
0.549079
-3.34309e-05
0.538069
-3.22114e-05
0.52723
-3.17363e-05
0.516558
-3.09694e-05
0.506053
-3.22479e-05
0.495711
-3.1618e-05
0.485531
-3.23912e-05
0.475511
-2.96347e-05
0.46565
-3.20276e-05
0.455943
-3.00818e-05
0.446394
-3.49891e-05
0.436992
-2.86642e-05
0.427745
-3.55226e-05
0.418643
-2.81453e-05
0.409692
-3.68914e-05
0.400881
-2.47706e-05
0.392219
-3.43638e-05
0.383693
-1.87715e-05
0.375295
-9.60732e-07
0.366966
0.000122832
0.358485
0.000602154
0.348925
0.00269859
0.335183
0.0090384
0.289198
0.0686678
0.118003
0.217556
8.41953
0.000406705
8.35532
0.00031048
8.29115
0.000295999
8.22699
0.000304878
8.16284
0.000309375
8.0987
0.000313553
8.03456
0.000317776
7.9704
0.000321611
7.90622
0.000325071
7.84205
0.00032818
7.77789
0.000330945
7.71373
0.000333233
7.64958
0.00033511
7.58545
0.00033653
7.52137
0.000337489
7.45736
0.000338218
7.39342
0.00033877
7.32957
0.000339074
7.2658
0.00033929
7.20213
0.000339549
7.13858
0.000339654
7.07516
0.000339673
7.01188
0.000340296
6.94874
0.000340647
6.88573
0.000340388
6.82288
0.000340964
6.76018
0.000340555
6.69764
0.000340706
6.63526
0.000340288
6.57305
0.000339708
6.51102
0.000339347
6.44917
0.000339286
6.38749
0.000338757
6.32601
0.000339141
6.26472
0.000339334
6.20362
0.000339712
6.14273
0.000339175
6.08205
0.000339712
6.02157
0.000339357
5.96131
0.000339148
5.90128
0.000338409
5.84146
0.00033831
5.78188
0.000338188
5.72253
0.000338367
5.66341
0.000338374
5.60454
0.000338408
5.54592
0.000338787
5.48754
0.000338417
5.42941
0.000338773
5.37154
0.000338782
5.31394
0.000338358
5.25659
0.000338605
5.19952
0.000338832
5.14272
0.000338644
5.0862
0.000338761
5.02995
0.000338665
4.97399
0.000339066
4.91832
0.000338213
4.86293
0.000339119
4.80784
0.000337408
4.75305
0.000338165
4.69855
0.000336303
4.64436
0.000335936
4.59047
0.000335446
4.53689
0.000334681
4.48363
0.000335017
4.43067
0.000335183
4.37804
0.000335418
4.32572
0.000335182
4.27373
0.000335659
4.22207
0.000335152
4.17073
0.000333906
4.11973
0.000332385
4.06905
0.000330692
4.01871
0.000328849
3.96871
0.000326433
3.91904
0.000323661
3.86972
0.000320687
3.82073
0.000317154
3.7721
0.000312463
3.72381
0.000306527
3.67587
0.00029947
3.62828
0.000291354
3.58105
0.000282439
3.53416
0.000272662
3.48764
0.000262051
3.44147
0.000250552
3.39565
0.000237967
3.3502
0.000224349
3.30511
0.000209572
3.26038
0.000193893
3.21602
0.000177698
3.17202
0.000161115
3.12838
0.000144602
3.08512
0.000128237
3.04222
0.00011268
2.99969
9.75211e-05
2.95753
8.32921e-05
2.91574
6.99821e-05
2.87432
5.67606e-05
2.83328
4.51004e-05
2.79261
3.39396e-05
2.75231
2.38161e-05
2.71239
1.43852e-05
2.67284
7.59956e-06
2.63367
4.68074e-07
2.59488
-4.72394e-06
2.55646
-9.83141e-06
2.51842
-1.36166e-05
2.48075
-1.77599e-05
2.44346
-2.03253e-05
2.40655
-2.2359e-05
2.37001
-2.53679e-05
2.33385
-2.66915e-05
2.29806
-2.88975e-05
2.26265
-2.93915e-05
2.22762
-3.06018e-05
2.19296
-3.07948e-05
2.15867
-3.16846e-05
2.12476
-3.11831e-05
2.09122
-3.14995e-05
2.05806
-3.21257e-05
2.02527
-3.22475e-05
1.99285
-3.21222e-05
1.9608
-3.2107e-05
1.92912
-3.18555e-05
1.89781
-3.14413e-05
1.86687
-3.12741e-05
1.83629
-3.1371e-05
1.80608
-3.15395e-05
1.77624
-3.1697e-05
1.74676
-3.22333e-05
1.71764
-3.21335e-05
1.68888
-3.30318e-05
1.66047
-3.21228e-05
1.63243
-3.25451e-05
1.60474
-3.24459e-05
1.57741
-3.18937e-05
1.55042
-3.17871e-05
1.52379
-3.16271e-05
1.4975
-3.16105e-05
1.47156
-3.14122e-05
1.44597
-3.13719e-05
1.42071
-3.13617e-05
1.3958
-3.16963e-05
1.37122
-3.19944e-05
1.34697
-3.20955e-05
1.32306
-3.18181e-05
1.29948
-3.19514e-05
1.27622
-3.19698e-05
1.25329
-3.17668e-05
1.23068
-3.16248e-05
1.20839
-3.13463e-05
1.18641
-3.09953e-05
1.16475
-3.00628e-05
1.1434
-2.98206e-05
1.12235
-2.96399e-05
1.10161
-3.00499e-05
1.08117
-3.05054e-05
1.06103
-3.01593e-05
1.04118
-2.99157e-05
1.02162
-3.01519e-05
1.00235
-3.03478e-05
0.98337
-3.0605e-05
0.964668
-3.06826e-05
0.946244
-3.07937e-05
0.928097
-2.981e-05
0.910221
-3.00502e-05
0.892614
-3.0086e-05
0.875274
-3.03308e-05
0.858195
-2.95631e-05
0.841375
-2.93982e-05
0.824811
-2.94329e-05
0.808501
-2.97968e-05
0.79244
-3.02876e-05
0.776625
-2.99276e-05
0.761055
-2.87783e-05
0.745726
-2.88202e-05
0.730633
-2.76093e-05
0.715777
-2.93323e-05
0.70115
-2.79391e-05
0.686755
-2.98798e-05
0.672583
-2.53714e-05
0.658639
-3.04575e-05
0.644911
-2.52161e-05
0.631406
-3.44358e-05
0.61811
-2.26075e-05
0.605033
-3.57031e-05
0.592159
-2.08587e-05
0.579501
-3.77319e-05
0.567041
-1.64687e-05
0.55479
-3.43479e-05
0.542733
-6.04325e-06
0.530861
2.34184e-05
0.519102
0.00023558
0.507207
0.00104475
0.494085
0.00456585
0.476813
0.0152461
0.418848
0.115761
0.202871
0.323293
37.1656
0.000188232
36.8821
0.000161396
36.5989
0.00014659
36.3157
0.00015187
36.0325
0.000154839
35.7494
0.000156857
35.4662
0.000158924
35.183
0.000160729
34.8997
0.000162332
34.6165
0.000163806
34.3332
0.000165115
34.05
0.000166182
33.7668
0.000167039
33.4838
0.000167709
33.2009
0.000168208
32.9184
0.000168686
32.6361
0.000169143
32.3542
0.000169501
32.0728
0.000169764
31.7917
0.000169948
31.5112
0.000169965
31.2313
0.000169473
30.9519
0.000170647
30.6732
0.00017041
30.3951
0.000170591
30.1176
0.000171068
29.8408
0.000171375
29.5648
0.000171537
29.2894
0.00017145
29.0148
0.00017092
28.741
0.000170349
28.468
0.000169854
28.1957
0.00016921
27.9243
0.000169058
27.6538
0.000169145
27.3841
0.000169421
27.1153
0.000169541
26.8474
0.000170108
26.5805
0.000170438
26.3145
0.000170587
26.0495
0.000170453
25.7854
0.000170378
25.5224
0.000170216
25.2604
0.000170014
24.9995
0.000169678
24.7396
0.000169265
24.4808
0.000169
24.2231
0.000168529
23.9665
0.000168497
23.7111
0.000168605
23.4568
0.000168686
23.2037
0.000169207
22.9517
0.000169742
22.701
0.000169985
22.4515
0.000170171
22.2032
0.000170115
21.9562
0.00016999
21.7105
0.000169202
21.466
0.000168832
21.2228
0.00016737
20.9809
0.000166767
20.7404
0.00016553
20.5012
0.000165156
20.2633
0.000165543
20.0268
0.00016618
19.7917
0.000167553
19.5579
0.000168763
19.3256
0.000169487
19.0946
0.000169487
18.8651
0.000169271
18.6371
0.000168467
18.4105
0.000167255
18.1853
0.000166121
17.9616
0.000165043
17.7394
0.000164042
17.5187
0.000162865
17.2994
0.000161591
17.0817
0.000160193
16.8655
0.000158471
16.6508
0.000156197
16.4377
0.000153294
16.2261
0.000149924
16.016
0.000146024
15.8075
0.000141596
15.6005
0.000136596
15.3952
0.000131111
15.1914
0.000125298
14.9891
0.000119194
14.7885
0.000112737
14.5895
0.000105748
14.392
9.81745e-05
14.1962
9.01522e-05
14.002
8.17307e-05
13.8093
7.32419e-05
13.6184
6.4797e-05
13.429
5.67551e-05
13.2413
4.90363e-05
13.0552
4.17734e-05
12.8707
3.50402e-05
12.6879
2.84541e-05
12.5067
2.25566e-05
12.3272
1.69767e-05
12.1493
1.19079e-05
11.9731
7.24424e-06
11.7985
3.84161e-06
11.6256
1.83792e-07
11.4543
-2.41968e-06
11.2848
-4.88476e-06
11.1168
-6.82687e-06
10.9506
-8.83932e-06
10.786
-1.01655e-05
10.623
-1.11967e-05
10.4617
-1.26379e-05
10.3021
-1.33787e-05
10.1441
-1.44058e-05
9.98783
-1.47322e-05
9.83318
-1.52666e-05
9.68019
-1.54235e-05
9.52884
-1.58081e-05
9.37915
-1.56213e-05
9.23111
-1.575e-05
9.08472
-1.60485e-05
8.93997
-1.61174e-05
8.79686
-1.60777e-05
8.65539
-1.60434e-05
8.51555
-1.59248e-05
8.37735
-1.57341e-05
8.24076
-1.56279e-05
8.10579
-1.56848e-05
7.97244
-1.57806e-05
7.8407
-1.58487e-05
7.71056
-1.60992e-05
7.58202
-1.6095e-05
7.45506
-1.64704e-05
7.32969
-1.61077e-05
7.2059
-1.62407e-05
7.08367
-1.62292e-05
6.963
-1.59548e-05
6.84389
-1.58884e-05
6.72633
-1.58193e-05
6.6103
-1.57949e-05
6.49579
-1.57199e-05
6.3828
-1.5676e-05
6.27132
-1.56934e-05
6.16134
-1.58276e-05
6.05284
-1.60141e-05
5.94582
-1.60423e-05
5.84027
-1.59162e-05
5.73617
-1.59572e-05
5.63352
-1.59934e-05
5.53229
-1.59103e-05
5.43249
-1.57996e-05
5.33409
-1.56669e-05
5.23708
-1.54577e-05
5.14146
-1.50477e-05
5.0472
-1.49092e-05
4.9543
-1.4826e-05
4.86275
-1.50343e-05
4.77252
-1.52542e-05
4.6836
-1.51053e-05
4.59599
-1.49376e-05
4.50966
-1.50749e-05
4.4246
-1.5183e-05
4.34081
-1.52794e-05
4.25825
-1.53672e-05
4.17692
-1.53647e-05
4.09682
-1.49332e-05
4.01791
-1.5002e-05
3.94019
-1.50533e-05
3.86364
-1.51554e-05
3.78826
-1.4803e-05
3.71401
-1.47029e-05
3.64089
-1.46888e-05
3.5689
-1.49159e-05
3.498
-1.51382e-05
3.42819
-1.49604e-05
3.35946
-1.43606e-05
3.29179
-1.45454e-05
3.22517
-1.34417e-05
3.15959
-1.57021e-05
3.09503
-1.15711e-05
3.03148
-1.90221e-05
2.96893
-7.26336e-06
2.90737
-2.37969e-05
2.84677
-3.29279e-06
2.78716
-3.07767e-05
2.72847
4.32375e-06
2.67074
-3.66353e-05
2.61392
1.29954e-05
2.55804
-4.49033e-05
2.50304
2.13188e-05
2.44897
-3.82876e-05
2.39574
5.03669e-05
2.34335
0.000119023
2.29149
0.000689018
2.23923
0.0027488
2.18309
0.0110279
2.11398
0.0355089
1.96426
0.217497
0.378244
1.74172
37.1655
-3.63798e-12
36.8821
-9.09495e-13
36.5989
-1.36424e-12
36.3157
-1.36424e-12
36.0325
-6.36646e-12
35.7494
-2.72848e-12
35.4662
-2.72848e-12
35.183
-2.27374e-12
34.8997
9.09495e-13
34.6164
-1.36424e-12
34.3332
1.36424e-12
34.05
4.54747e-13
33.7668
-4.54747e-13
33.4837
2.72848e-12
33.2009
2.27374e-12
32.9183
-2.72848e-12
32.6361
4.54747e-13
32.3542
9.09495e-13
32.0727
-2.27374e-12
31.7917
-5.00222e-12
31.5112
0
31.2312
-4.54747e-13
30.9519
-4.54747e-13
30.6731
2.72848e-12
30.3951
2.27374e-12
30.1176
3.18323e-12
29.8408
4.09273e-12
29.5648
3.18323e-12
29.2894
4.09273e-12
29.0148
1.81899e-12
28.741
-9.09495e-13
28.468
-1.36424e-12
28.1957
-9.09495e-13
27.9243
0
27.6538
1.81899e-12
27.3841
-3.18323e-12
27.1153
-5.45697e-12
26.8474
-2.72848e-12
26.5805
9.09495e-13
26.3145
-5.45697e-12
26.0495
4.54747e-13
25.7854
3.18323e-12
25.5224
9.09495e-13
25.2604
-2.72848e-12
24.9995
-4.54747e-13
24.7396
-2.72848e-12
24.4808
-9.09495e-13
24.2231
-3.63798e-12
23.9665
0
23.7111
9.09495e-13
23.4568
4.54747e-13
23.2037
4.54747e-13
22.9517
-9.09495e-13
22.701
0
22.4515
1.81899e-12
22.2032
-1.36424e-12
21.9562
-9.09495e-13
21.7105
1.36424e-12
21.466
2.72848e-12
21.2228
-4.54747e-13
20.9809
-5.00222e-12
20.7404
-9.09495e-13
20.5012
-4.54747e-13
20.2633
1.81899e-12
20.0268
0
19.7916
4.54747e-13
19.5579
2.72848e-12
19.3255
1.81899e-12
19.0946
-1.81899e-12
18.8651
-2.27374e-12
18.6371
-4.54747e-12
18.4105
-1.81899e-12
18.1853
3.18323e-12
17.9616
2.27374e-12
17.7394
-4.54747e-13
17.5187
-4.54747e-13
17.2994
1.36424e-12
17.0817
4.09273e-12
16.8655
4.54747e-13
16.6508
-1.36424e-12
16.4376
-2.72848e-12
16.226
-3.18323e-12
16.016
-1.36424e-12
15.8075
-4.54747e-13
15.6005
-9.09495e-13
15.3951
1.81899e-12
15.1913
-2.72848e-12
14.9891
-2.27374e-12
14.7885
4.54747e-13
14.5894
-1.81899e-12
14.392
3.18323e-12
14.1962
1.81899e-12
14.002
3.63798e-12
13.8093
4.09273e-12
13.6184
1.36424e-12
13.429
2.27374e-12
13.2413
4.09273e-12
13.0552
4.54747e-12
12.8707
9.09495e-13
12.6879
-4.54747e-13
12.5067
-2.27374e-12
12.3272
-4.54747e-13
12.1493
-1.36424e-12
11.9731
0
11.7985
9.09495e-13
11.6256
9.09495e-13
11.4543
9.09495e-13
11.2848
-4.54747e-13
11.1168
4.54747e-13
10.9506
1.36424e-12
10.786
5.45697e-12
10.623
4.09273e-12
10.4617
9.09495e-13
10.3021
-2.27374e-12
10.1441
4.54747e-13
9.98783
9.09495e-13
9.83318
0
9.68019
4.54747e-13
9.52884
-5.91172e-12
9.37915
-2.72848e-12
9.23111
3.18323e-12
9.08472
3.18323e-12
8.93997
-1.36424e-12
8.79686
-9.09495e-13
8.65539
-2.27374e-12
8.51555
-3.18323e-12
8.37735
-4.54747e-12
8.24076
-4.54747e-13
8.10579
-2.72848e-12
7.97244
-4.54747e-13
7.8407
-4.54747e-12
7.71056
2.72848e-12
7.58202
-5.45697e-12
7.45506
3.63798e-12
7.32969
-5.00222e-12
7.2059
-1.81899e-12
7.08367
-3.18323e-12
6.963
0
6.84389
9.09495e-13
6.72633
3.63798e-12
6.6103
-3.18323e-12
6.49579
4.09273e-12
6.3828
-1.36424e-12
6.27132
1.36424e-12
6.16134
-4.09273e-12
6.05284
4.54747e-13
5.94582
-4.54747e-13
5.84027
4.09273e-12
5.73617
-2.27374e-12
5.63352
2.72848e-12
5.53229
-9.09495e-13
5.43249
4.54747e-13
5.33409
9.09495e-13
5.23708
-1.36424e-12
5.14146
5.91172e-12
5.0472
0
4.9543
-2.27374e-12
4.86275
-1.36424e-12
4.77252
-4.54747e-12
4.6836
5.00222e-12
4.59599
-5.00222e-12
4.50966
2.27374e-12
4.4246
-5.00222e-12
4.34081
-4.54747e-13
4.25825
4.09273e-12
4.17692
1.36424e-12
4.09682
8.18545e-12
4.01791
9.54969e-12
3.94019
-4.09273e-12
3.86364
3.18323e-12
3.78826
-1.81899e-12
3.71401
-3.68345e-11
3.64089
1.54614e-10
3.5689
-9.5406e-10
3.498
4.73347e-09
3.42819
-2.28797e-08
3.35946
9.60308e-08
3.29179
-3.6059e-07
3.22517
1.13604e-06
3.15959
-3.0017e-06
3.09503
6.31574e-06
3.03148
-1.01556e-05
2.96893
1.33556e-05
2.90737
-2.03666e-05
2.84677
2.254e-05
2.78716
-3.22387e-05
2.72846
3.67936e-05
2.67075
-4.63278e-05
2.61391
5.46408e-05
2.55805
-5.69062e-05
2.50304
6.60094e-05
2.44898
-5.35544e-05
2.39575
0.000105052
2.34343
0.000144799
2.2918
0.000913691
2.24036
0.00362574
2.18546
0.016251
2.1131
0.0590297
1.91263
0.369984
0.648699
1.59502
37.1655
-0.000188232
36.8821
-0.000161396
36.5989
-0.00014659
36.3157
-0.00015187
36.0325
-0.000154839
35.7494
-0.000156857
35.4662
-0.000158924
35.183
-0.000160729
34.8997
-0.000162332
34.6164
-0.000163806
34.3332
-0.000165115
34.05
-0.000166182
33.7668
-0.000167039
33.4837
-0.000167709
33.2009
-0.000168208
32.9183
-0.000168686
32.6361
-0.000169143
32.3542
-0.000169501
32.0727
-0.000169764
31.7917
-0.000169948
31.5112
-0.000169965
31.2312
-0.000169473
30.9519
-0.000170647
30.6731
-0.00017041
30.3951
-0.000170591
30.1176
-0.000171068
29.8408
-0.000171375
29.5648
-0.000171537
29.2894
-0.00017145
29.0148
-0.00017092
28.741
-0.000170349
28.468
-0.000169854
28.1957
-0.00016921
27.9243
-0.000169058
27.6538
-0.000169145
27.3841
-0.000169421
27.1153
-0.000169541
26.8474
-0.000170108
26.5805
-0.000170438
26.3145
-0.000170587
26.0495
-0.000170453
25.7854
-0.000170378
25.5224
-0.000170216
25.2604
-0.000170014
24.9995
-0.000169678
24.7396
-0.000169265
24.4808
-0.000169
24.2231
-0.000168529
23.9665
-0.000168497
23.7111
-0.000168605
23.4568
-0.000168686
23.2037
-0.000169207
22.9517
-0.000169742
22.701
-0.000169985
22.4515
-0.000170171
22.2032
-0.000170115
21.9562
-0.00016999
21.7105
-0.000169202
21.466
-0.000168832
21.2228
-0.00016737
20.9809
-0.000166767
20.7404
-0.00016553
20.5012
-0.000165156
20.2633
-0.000165543
20.0268
-0.00016618
19.7916
-0.000167553
19.5579
-0.000168763
19.3255
-0.000169487
19.0946
-0.000169487
18.8651
-0.000169271
18.6371
-0.000168467
18.4105
-0.000167255
18.1853
-0.000166121
17.9616
-0.000165043
17.7394
-0.000164042
17.5187
-0.000162865
17.2994
-0.000161591
17.0817
-0.000160193
16.8655
-0.000158471
16.6508
-0.000156197
16.4376
-0.000153294
16.226
-0.000149924
16.016
-0.000146024
15.8075
-0.000141596
15.6005
-0.000136596
15.3951
-0.000131111
15.1913
-0.000125298
14.9891
-0.000119194
14.7885
-0.000112737
14.5894
-0.000105748
14.392
-9.81745e-05
14.1962
-9.01522e-05
14.002
-8.17307e-05
13.8093
-7.32419e-05
13.6184
-6.4797e-05
13.429
-5.67551e-05
13.2413
-4.90363e-05
13.0552
-4.17734e-05
12.8707
-3.50402e-05
12.6879
-2.84541e-05
12.5067
-2.25566e-05
12.3272
-1.69767e-05
12.1493
-1.19079e-05
11.9731
-7.24424e-06
11.7985
-3.84161e-06
11.6256
-1.83788e-07
11.4543
2.41968e-06
11.2848
4.88476e-06
11.1168
6.82688e-06
10.9506
8.83932e-06
10.786
1.01655e-05
10.623
1.11968e-05
10.4617
1.26379e-05
10.3021
1.33787e-05
10.1441
1.44058e-05
9.98783
1.47322e-05
9.83318
1.52666e-05
9.68019
1.54234e-05
9.52884
1.58081e-05
9.37915
1.56213e-05
9.23111
1.575e-05
9.08472
1.60485e-05
8.93997
1.61174e-05
8.79686
1.60777e-05
8.65539
1.60434e-05
8.51555
1.59248e-05
8.37735
1.57341e-05
8.24076
1.56279e-05
8.10579
1.56848e-05
7.97244
1.57806e-05
7.8407
1.58487e-05
7.71056
1.60992e-05
7.58202
1.6095e-05
7.45506
1.64704e-05
7.32969
1.61077e-05
7.2059
1.62407e-05
7.08367
1.62292e-05
6.963
1.59548e-05
6.84389
1.58884e-05
6.72633
1.58193e-05
6.6103
1.57949e-05
6.49579
1.57199e-05
6.3828
1.5676e-05
6.27132
1.56934e-05
6.16134
1.58276e-05
6.05284
1.60141e-05
5.94582
1.60423e-05
5.84027
1.59162e-05
5.73617
1.59572e-05
5.63352
1.59934e-05
5.53229
1.59103e-05
5.43249
1.57996e-05
5.33409
1.56669e-05
5.23708
1.54577e-05
5.14146
1.50477e-05
5.0472
1.49092e-05
4.9543
1.4826e-05
4.86275
1.50343e-05
4.77252
1.52542e-05
4.6836
1.51053e-05
4.59599
1.49376e-05
4.50966
1.50749e-05
4.4246
1.5183e-05
4.34081
1.52794e-05
4.25825
1.53672e-05
4.17692
1.53647e-05
4.09682
1.49332e-05
4.01791
1.5002e-05
3.94019
1.50533e-05
3.86364
1.51554e-05
3.78826
1.4803e-05
3.71401
1.47028e-05
3.64089
1.46892e-05
3.5689
1.49139e-05
3.498
1.51482e-05
3.42819
1.49105e-05
3.35946
1.45596e-05
3.29179
1.37846e-05
3.22517
1.57378e-05
3.15959
9.82302e-06
3.09503
2.32127e-05
3.03148
2.44292e-06
2.96893
2.52506e-05
2.90737
-3.68103e-06
2.84678
3.35282e-05
2.78715
-1.15282e-05
2.72848
4.47655e-05
2.67072
-1.74912e-05
2.61393
5.17899e-05
2.55802
-2.15403e-05
2.50306
5.67581e-05
2.44897
-3.19324e-05
2.39579
0.000108308
2.34353
0.000108765
2.29225
0.000783585
2.24239
0.00293867
2.19622
0.0127357
2.16351
0.0429057
2.18748
0.298024
0.490841
2.29821
37.1656
-0.000406705
36.8821
-0.00031048
36.5989
-0.000295999
36.3157
-0.000304878
36.0325
-0.000309375
35.7494
-0.000313553
35.4662
-0.000317776
35.183
-0.000321611
34.8997
-0.000325071
34.6165
-0.00032818
34.3332
-0.000330945
34.05
-0.000333233
33.7668
-0.00033511
33.4838
-0.00033653
33.2009
-0.000337489
32.9184
-0.000338218
32.6361
-0.00033877
32.3542
-0.000339074
32.0728
-0.00033929
31.7917
-0.000339549
31.5112
-0.000339654
31.2313
-0.000339673
30.9519
-0.000340296
30.6732
-0.000340647
30.3951
-0.000340388
30.1176
-0.000340964
29.8408
-0.000340555
29.5648
-0.000340706
29.2894
-0.000340288
29.0148
-0.000339708
28.741
-0.000339347
28.468
-0.000339286
28.1957
-0.000338757
27.9243
-0.000339141
27.6538
-0.000339334
27.3841
-0.000339712
27.1153
-0.000339175
26.8474
-0.000339712
26.5805
-0.000339357
26.3145
-0.000339148
26.0495
-0.000338409
25.7854
-0.00033831
25.5224
-0.000338188
25.2604
-0.000338367
24.9995
-0.000338374
24.7396
-0.000338408
24.4808
-0.000338787
24.2231
-0.000338417
23.9665
-0.000338773
23.7111
-0.000338782
23.4568
-0.000338358
23.2037
-0.000338605
22.9517
-0.000338832
22.701
-0.000338644
22.4515
-0.000338761
22.2032
-0.000338665
21.9562
-0.000339066
21.7105
-0.000338213
21.466
-0.000339119
21.2228
-0.000337408
20.9809
-0.000338165
20.7404
-0.000336303
20.5012
-0.000335936
20.2633
-0.000335446
20.0268
-0.000334681
19.7917
-0.000335017
19.5579
-0.000335183
19.3256
-0.000335418
19.0946
-0.000335182
18.8651
-0.000335659
18.6371
-0.000335152
18.4105
-0.000333906
18.1853
-0.000332385
17.9616
-0.000330692
17.7394
-0.000328849
17.5187
-0.000326433
17.2994
-0.000323661
17.0817
-0.000320687
16.8655
-0.000317154
16.6508
-0.000312463
16.4377
-0.000306527
16.2261
-0.00029947
16.016
-0.000291354
15.8075
-0.000282439
15.6005
-0.000272662
15.3952
-0.000262051
15.1914
-0.000250552
14.9891
-0.000237967
14.7885
-0.000224348
14.5895
-0.000209572
14.392
-0.000193893
14.1962
-0.000177698
14.002
-0.000161115
13.8093
-0.000144602
13.6184
-0.000128237
13.429
-0.00011268
13.2413
-9.75211e-05
13.0552
-8.32921e-05
12.8707
-6.99821e-05
12.6879
-5.67606e-05
12.5067
-4.51004e-05
12.3272
-3.39396e-05
12.1493
-2.38161e-05
11.9731
-1.43852e-05
11.7985
-7.59957e-06
11.6256
-4.68071e-07
11.4543
4.72394e-06
11.2848
9.83141e-06
11.1168
1.36166e-05
10.9506
1.77599e-05
10.786
2.03254e-05
10.623
2.2359e-05
10.4617
2.53679e-05
10.3021
2.66915e-05
10.1441
2.88975e-05
9.98783
2.93915e-05
9.83318
3.06018e-05
9.68019
3.07948e-05
9.52884
3.16846e-05
9.37915
3.11831e-05
9.23111
3.14995e-05
9.08472
3.21257e-05
8.93997
3.22474e-05
8.79686
3.21222e-05
8.65539
3.2107e-05
8.51555
3.18555e-05
8.37735
3.14413e-05
8.24076
3.1274e-05
8.10579
3.1371e-05
7.97244
3.15395e-05
7.8407
3.1697e-05
7.71056
3.22333e-05
7.58202
3.21335e-05
7.45506
3.30318e-05
7.32969
3.21228e-05
7.2059
3.25451e-05
7.08367
3.24459e-05
6.963
3.18937e-05
6.84389
3.17871e-05
6.72633
3.16271e-05
6.6103
3.16105e-05
6.49579
3.14122e-05
6.3828
3.13719e-05
6.27132
3.13617e-05
6.16134
3.16963e-05
6.05284
3.19944e-05
5.94582
3.20955e-05
5.84027
3.18181e-05
5.73617
3.19514e-05
5.63352
3.19698e-05
5.53229
3.17668e-05
5.43249
3.16248e-05
5.33409
3.13463e-05
5.23708
3.09953e-05
5.14146
3.00628e-05
5.0472
2.98206e-05
4.9543
2.96399e-05
4.86275
3.00499e-05
4.77252
3.05054e-05
4.6836
3.01593e-05
4.59599
2.99157e-05
4.50966
3.01519e-05
4.4246
3.03478e-05
4.34081
3.0605e-05
4.25825
3.06826e-05
4.17692
3.07937e-05
4.09682
2.981e-05
4.01791
3.00502e-05
3.94019
3.0086e-05
3.86364
3.03308e-05
3.78826
2.95631e-05
3.71401
2.93982e-05
3.64089
2.9433e-05
3.5689
2.97963e-05
3.498
3.02904e-05
3.42819
2.99135e-05
3.35946
2.88358e-05
3.29179
2.85974e-05
3.22517
2.82962e-05
3.15959
2.7553e-05
3.09503
3.14989e-05
3.03148
2.48227e-05
2.96893
3.06845e-05
2.90736
2.21391e-05
2.84678
3.431e-05
2.78714
2.1095e-05
2.72848
3.88354e-05
2.67072
1.8054e-05
2.61393
4.2206e-05
2.55802
1.40964e-05
2.50306
4.37865e-05
2.44895
1.27091e-05
2.39582
6.07526e-05
2.34357
7.03072e-05
2.29261
0.000321731
2.24382
0.00119457
2.20127
0.00558937
2.1763
0.0190542
2.21454
0.211794
0.326944
2.33132
8.41953
-0.000465277
8.35532
-0.000339396
8.29115
-0.000331641
8.22699
-0.000339574
8.16284
-0.000344469
8.0987
-0.000349214
8.03456
-0.00035386
7.9704
-0.000358083
7.90622
-0.00036189
7.84205
-0.000365281
7.77789
-0.000368283
7.71373
-0.000370767
7.64958
-0.000372835
7.58545
-0.000374436
7.52137
-0.000375568
7.45736
-0.000376471
7.39342
-0.000377189
7.32957
-0.000377619
7.2658
-0.000377962
7.20213
-0.000378237
7.13858
-0.000378485
7.07516
-0.000378076
7.01188
-0.000379141
6.94874
-0.000378644
6.88573
-0.000378793
6.82288
-0.000378684
6.76018
-0.000378616
6.69764
-0.000378763
6.63526
-0.000378388
6.57305
-0.00037857
6.51102
-0.000378175
6.44917
-0.000378225
6.38749
-0.00037794
6.32601
-0.000378075
6.26472
-0.000377814
6.20362
-0.000378139
6.14273