/*--------------------------------*- C++ -*----------------------------------*\
| =========                 |                                                 |
| \\      /  F ield         | OpenFOAM: The Open Source CFD Toolbox           |
|  \\    /   O peration     | Version:  3.0.x                                 |
|   \\  /    A nd           | Web:      www.OpenFOAM.org                      |
|    \\/     M anipulation  |                                                 |
\*---------------------------------------------------------------------------*/
FoamFile
{
    version     2.0;
    format      ascii;
    class       volScalarField;
    location    "0.59";
    object      rho;
}
// * * * * * * * * * * * * * * * * * * * * * * * * * * * * * * * * * * * * * //

dimensions      [1 -3 0 0 0 0 0];

internalField   nonuniform List<scalar> 
13800
(
54.8136
54.8174
54.8238
54.8302
54.8362
54.8419
54.8473
54.8523
54.8567
54.8607
54.8642
54.8673
54.8697
54.8715
54.8728
54.8739
54.8747
54.8752
54.8754
54.8754
54.8753
54.875
54.8746
54.8741
54.8736
54.8729
54.8721
54.8713
54.8703
54.8693
54.8681
54.8669
54.8655
54.8641
54.8626
54.861
54.8593
54.8575
54.8556
54.8537
54.8516
54.8494
54.8472
54.8449
54.8425
54.84
54.8375
54.8348
54.8321
54.8293
54.8263
54.8233
54.8203
54.8171
54.8139
54.8106
54.8073
54.8039
54.8005
54.7969
54.7933
54.7896
54.7858
54.782
54.778
54.7741
54.77
54.766
54.7618
54.7576
54.7534
54.7491
54.7447
54.7403
54.7358
54.7313
54.7267
54.722
54.7173
54.7125
54.7077
54.7029
54.698
54.6931
54.6881
54.6831
54.6781
54.673
54.6678
54.6626
54.6574
54.6521
54.6468
54.6415
54.6361
54.6307
54.6253
54.6198
54.6142
54.6087
54.6032
54.5976
54.592
54.5863
54.5807
54.575
54.5693
54.5635
54.5578
54.552
54.5462
54.5404
54.5346
54.5288
54.5229
54.5171
54.5112
54.5053
54.4994
54.4934
54.4875
54.4816
54.4756
54.4697
54.4638
54.4578
54.4519
54.4459
54.4399
54.4339
54.4279
54.422
54.416
54.41
54.404
54.3981
54.3921
54.3861
54.3802
54.3742
54.3683
54.3623
54.3564
54.3505
54.3446
54.3387
54.3328
54.327
54.3211
54.3153
54.3095
54.3037
54.2979
54.2921
54.2864
54.2806
54.2749
54.2693
54.2636
54.258
54.2524
54.2469
54.2413
54.2358
54.2303
54.2249
54.2194
54.2141
54.2088
54.2034
54.1982
54.193
54.1877
54.1826
54.1775
54.1724
54.1674
54.1624
54.1574
54.1525
54.1477
54.1428
54.1381
54.1333
54.1288
54.1239
54.1196
54.1147
54.1106
54.1058
54.1019
54.0971
54.0932
54.0885
54.0848
54.0803
54.0765
54.0725
54.0679
54.0647
54.8142
54.8181
54.8245
54.8308
54.8368
54.8425
54.848
54.853
54.8574
54.8613
54.8649
54.8679
54.8703
54.8721
54.8735
54.8745
54.8753
54.8758
54.876
54.876
54.8759
54.8756
54.8752
54.8747
54.8741
54.8735
54.8727
54.8718
54.8709
54.8698
54.8687
54.8675
54.8661
54.8647
54.8632
54.8615
54.8598
54.8581
54.8561
54.8542
54.8521
54.85
54.8478
54.8454
54.843
54.8405
54.838
54.8353
54.8326
54.8297
54.8268
54.8239
54.8208
54.8176
54.8144
54.8112
54.8078
54.8044
54.8009
54.7974
54.7937
54.7901
54.7863
54.7824
54.7785
54.7745
54.7705
54.7664
54.7623
54.758
54.7538
54.7495
54.7452
54.7408
54.7362
54.7317
54.7271
54.7225
54.7177
54.7129
54.7081
54.7033
54.6985
54.6935
54.6885
54.6835
54.6785
54.6733
54.6682
54.663
54.6578
54.6525
54.6472
54.6419
54.6365
54.631
54.6256
54.6202
54.6146
54.6091
54.6036
54.5979
54.5923
54.5867
54.581
54.5754
54.5696
54.5639
54.5582
54.5524
54.5466
54.5408
54.535
54.5292
54.5233
54.5174
54.5116
54.5057
54.4998
54.4938
54.4879
54.482
54.476
54.4701
54.4641
54.4582
54.4523
54.4462
54.4403
54.4343
54.4283
54.4224
54.4164
54.4104
54.4044
54.3984
54.3925
54.3865
54.3805
54.3746
54.3687
54.3627
54.3568
54.3509
54.3449
54.3391
54.3332
54.3273
54.3215
54.3156
54.3098
54.304
54.2983
54.2925
54.2867
54.281
54.2753
54.2696
54.264
54.2584
54.2527
54.2472
54.2416
54.2362
54.2307
54.2252
54.2198
54.2145
54.2091
54.2038
54.1986
54.1933
54.1881
54.183
54.1779
54.1727
54.1677
54.1627
54.1578
54.1529
54.148
54.1431
54.1385
54.1336
54.1291
54.1243
54.12
54.1151
54.111
54.1062
54.1022
54.0974
54.0936
54.0889
54.0851
54.0806
54.0769
54.0725
54.0688
54.0646
54.8142
54.8181
54.8245
54.8308
54.8368
54.8425
54.848
54.853
54.8574
54.8613
54.8649
54.8679
54.8703
54.8721
54.8735
54.8745
54.8753
54.8758
54.876
54.876
54.8759
54.8756
54.8752
54.8747
54.8741
54.8735
54.8727
54.8718
54.8709
54.8698
54.8687
54.8675
54.8661
54.8647
54.8632
54.8615
54.8598
54.8581
54.8561
54.8542
54.8521
54.85
54.8478
54.8454
54.843
54.8405
54.838
54.8353
54.8326
54.8297
54.8269
54.8239
54.8208
54.8176
54.8144
54.8112
54.8078
54.8044
54.8009
54.7974
54.7937
54.7901
54.7863
54.7825
54.7785
54.7745
54.7705
54.7664
54.7622
54.758
54.7538
54.7495
54.7452
54.7407
54.7362
54.7317
54.7271
54.7225
54.7177
54.7129
54.7081
54.7033
54.6985
54.6935
54.6885
54.6835
54.6785
54.6733
54.6682
54.663
54.6578
54.6525
54.6472
54.6419
54.6365
54.631
54.6256
54.6202
54.6146
54.6091
54.6036
54.5979
54.5923
54.5867
54.581
54.5754
54.5696
54.5639
54.5582
54.5524
54.5466
54.5408
54.535
54.5292
54.5233
54.5174
54.5116
54.5057
54.4998
54.4938
54.4879
54.482
54.476
54.4701
54.4641
54.4582
54.4523
54.4462
54.4403
54.4343
54.4283
54.4224
54.4164
54.4104
54.4044
54.3984
54.3925
54.3865
54.3805
54.3746
54.3687
54.3627
54.3568
54.3509
54.3449
54.3391
54.3332
54.3273
54.3215
54.3156
54.3098
54.304
54.2983
54.2925
54.2867
54.281
54.2753
54.2696
54.264
54.2584
54.2527
54.2472
54.2416
54.2362
54.2307
54.2252
54.2198
54.2145
54.2091
54.2038
54.1986
54.1933
54.1881
54.183
54.1779
54.1727
54.1677
54.1627
54.1578
54.1529
54.148
54.1431
54.1385
54.1336
54.1291
54.1243
54.12
54.1151
54.111
54.1062
54.1022
54.0974
54.0936
54.0889
54.0851
54.0806
54.0769
54.0725
54.0689
54.0647
54.8142
54.8181
54.8245
54.8308
54.8368
54.8425
54.848
54.853
54.8574
54.8613
54.8649
54.8679
54.8703
54.8721
54.8735
54.8745
54.8753
54.8758
54.876
54.876
54.8759
54.8756
54.8752
54.8747
54.8741
54.8735
54.8727
54.8718
54.8709
54.8698
54.8687
54.8675
54.8661
54.8647
54.8632
54.8615
54.8598
54.8581
54.8561
54.8542
54.8521
54.85
54.8478
54.8454
54.843
54.8405
54.838
54.8353
54.8326
54.8297
54.8268
54.8239
54.8208
54.8176
54.8144
54.8112
54.8078
54.8044
54.8009
54.7974
54.7937
54.7901
54.7863
54.7824
54.7785
54.7745
54.7705
54.7664
54.7623
54.758
54.7538
54.7495
54.7452
54.7408
54.7362
54.7317
54.7271
54.7225
54.7177
54.7129
54.7081
54.7033
54.6985
54.6935
54.6885
54.6835
54.6785
54.6733
54.6682
54.663
54.6578
54.6525
54.6472
54.6419
54.6365
54.631
54.6256
54.6202
54.6146
54.6091
54.6036
54.5979
54.5923
54.5867
54.581
54.5754
54.5696
54.5639
54.5582
54.5524
54.5466
54.5408
54.535
54.5292
54.5233
54.5174
54.5116
54.5057
54.4998
54.4938
54.4879
54.482
54.476
54.4701
54.4641
54.4582
54.4523
54.4462
54.4403
54.4343
54.4283
54.4224
54.4164
54.4104
54.4044
54.3984
54.3925
54.3865
54.3805
54.3746
54.3687
54.3627
54.3568
54.3509
54.3449
54.3391
54.3332
54.3273
54.3215
54.3156
54.3098
54.304
54.2983
54.2925
54.2867
54.281
54.2753
54.2696
54.264
54.2584
54.2527
54.2472
54.2416
54.2362
54.2307
54.2252
54.2198
54.2145
54.2091
54.2038
54.1986
54.1933
54.1881
54.183
54.1779
54.1727
54.1677
54.1627
54.1578
54.1529
54.148
54.1431
54.1385
54.1336
54.1291
54.1243
54.12
54.1151
54.111
54.1062
54.1022
54.0974
54.0936
54.0889
54.0851
54.0806
54.0769
54.0725
54.0688
54.0648
54.8142
54.8181
54.8245
54.8308
54.8368
54.8425
54.848
54.853
54.8574
54.8613
54.8649
54.8679
54.8703
54.8721
54.8735
54.8745
54.8753
54.8758
54.876
54.876
54.8759
54.8756
54.8752
54.8747
54.8741
54.8735
54.8727
54.8718
54.8709
54.8698
54.8687
54.8675
54.8661
54.8647
54.8632
54.8615
54.8598
54.8581
54.8561
54.8542
54.8521
54.85
54.8478
54.8454
54.843
54.8405
54.838
54.8353
54.8326
54.8297
54.8268
54.8239
54.8208
54.8176
54.8144
54.8112
54.8078
54.8044
54.8009
54.7974
54.7937
54.7901
54.7863
54.7824
54.7785
54.7745
54.7705
54.7664
54.7623
54.758
54.7538
54.7495
54.7452
54.7408
54.7362
54.7317
54.7271
54.7225
54.7177
54.7129
54.7081
54.7033
54.6985
54.6935
54.6885
54.6835
54.6785
54.6733
54.6682
54.663
54.6578
54.6525
54.6472
54.6419
54.6365
54.631
54.6256
54.6202
54.6146
54.6091
54.6036
54.5979
54.5923
54.5867
54.581
54.5754
54.5696
54.5639
54.5582
54.5524
54.5466
54.5408
54.535
54.5292
54.5233
54.5174
54.5116
54.5057
54.4998
54.4938
54.4879
54.482
54.476
54.4701
54.4641
54.4582
54.4523
54.4462
54.4403
54.4343
54.4283
54.4224
54.4164
54.4104
54.4044
54.3984
54.3925
54.3865
54.3805
54.3746
54.3687
54.3627
54.3568
54.3509
54.3449
54.3391
54.3332
54.3273
54.3215
54.3156
54.3098
54.304
54.2983
54.2925
54.2867
54.281
54.2753
54.2696
54.264
54.2584
54.2527
54.2472
54.2416
54.2362
54.2307
54.2252
54.2198
54.2145
54.2091
54.2038
54.1986
54.1933
54.1881
54.183
54.1779
54.1727
54.1677
54.1627
54.1578
54.1529
54.148
54.1431
54.1385
54.1336
54.1291
54.1243
54.12
54.1151
54.111
54.1062
54.1022
54.0974
54.0936
54.0889
54.0852
54.0806
54.0769
54.0725
54.0689
54.0646
54.8142
54.8181
54.8245
54.8308
54.8368
54.8425
54.848
54.853
54.8574
54.8613
54.8649
54.8679
54.8703
54.8721
54.8735
54.8745
54.8753
54.8758
54.876
54.876
54.8759
54.8756
54.8752
54.8747
54.8741
54.8735
54.8727
54.8718
54.8709
54.8698
54.8687
54.8675
54.8661
54.8647
54.8632
54.8615
54.8598
54.8581
54.8561
54.8542
54.8521
54.85
54.8478
54.8454
54.843
54.8405
54.838
54.8353
54.8326
54.8297
54.8268
54.8239
54.8208
54.8176
54.8144
54.8112
54.8078
54.8044
54.8009
54.7974
54.7937
54.7901
54.7863
54.7824
54.7785
54.7745
54.7705
54.7664
54.7623
54.758
54.7538
54.7495
54.7452
54.7408
54.7362
54.7317
54.7271
54.7225
54.7177
54.7129
54.7081
54.7033
54.6985
54.6935
54.6885
54.6835
54.6785
54.6733
54.6682
54.663
54.6578
54.6525
54.6472
54.6419
54.6365
54.631
54.6256
54.6202
54.6146
54.6091
54.6036
54.5979
54.5923
54.5867
54.581
54.5754
54.5696
54.5639
54.5582
54.5524
54.5466
54.5408
54.535
54.5292
54.5233
54.5174
54.5116
54.5057
54.4998
54.4938
54.4879
54.482
54.476
54.4701
54.4641
54.4582
54.4523
54.4462
54.4403
54.4343
54.4283
54.4224
54.4164
54.4104
54.4044
54.3984
54.3925
54.3865
54.3805
54.3746
54.3687
54.3627
54.3568
54.3509
54.3449
54.3391
54.3332
54.3273
54.3215
54.3156
54.3098
54.304
54.2983
54.2925
54.2867
54.281
54.2753
54.2696
54.264
54.2584
54.2527
54.2472
54.2416
54.2362
54.2307
54.2252
54.2198
54.2145
54.2091
54.2038
54.1986
54.1933
54.1881
54.183
54.1779
54.1727
54.1677
54.1627
54.1578
54.1529
54.148
54.1432
54.1384
54.1337
54.129
54.1244
54.1198
54.1154
54.1106
54.1065
54.1018
54.0977
54.0935
54.089
54.0851
54.0808
54.0767
54.0728
54.0686
54.0648
54.8142
54.8181
54.8245
54.8308
54.8368
54.8425
54.848
54.853
54.8574
54.8613
54.8649
54.8679
54.8703
54.8721
54.8735
54.8745
54.8753
54.8758
54.876
54.876
54.8759
54.8756
54.8752
54.8747
54.8741
54.8735
54.8727
54.8718
54.8709
54.8698
54.8687
54.8675
54.8661
54.8647
54.8632
54.8615
54.8598
54.8581
54.8561
54.8542
54.8521
54.85
54.8478
54.8454
54.843
54.8405
54.838
54.8353
54.8326
54.8297
54.8268
54.8239
54.8208
54.8176
54.8144
54.8112
54.8078
54.8044
54.8009
54.7974
54.7937
54.7901
54.7863
54.7824
54.7785
54.7745
54.7705
54.7664
54.7623
54.758
54.7538
54.7495
54.7452
54.7408
54.7362
54.7317
54.7271
54.7225
54.7177
54.7129
54.7081
54.7033
54.6985
54.6935
54.6885
54.6835
54.6785
54.6733
54.6682
54.663
54.6578
54.6525
54.6472
54.6419
54.6365
54.631
54.6256
54.6202
54.6146
54.6091
54.6036
54.5979
54.5923
54.5867
54.581
54.5754
54.5696
54.5639
54.5582
54.5524
54.5466
54.5408
54.535
54.5292
54.5233
54.5174
54.5116
54.5057
54.4998
54.4938
54.4879
54.482
54.476
54.4701
54.4641
54.4582
54.4523
54.4462
54.4403
54.4343
54.4283
54.4224
54.4164
54.4104
54.4044
54.3984
54.3925
54.3865
54.3805
54.3746
54.3687
54.3627
54.3568
54.3509
54.3449
54.3391
54.3332
54.3273
54.3215
54.3156
54.3098
54.304
54.2983
54.2925
54.2867
54.281
54.2753
54.2696
54.264
54.2584
54.2527
54.2472
54.2416
54.2362
54.2307
54.2252
54.2198
54.2145
54.2091
54.2038
54.1986
54.1933
54.1881
54.183
54.1779
54.1727
54.1677
54.1627
54.1577
54.1529
54.148
54.1433
54.1383
54.1338
54.1289
54.1245
54.1196
54.1154
54.1106
54.1065
54.1018
54.0978
54.0931
54.0893
54.0847
54.081
54.0765
54.0729
54.0685
54.0647
54.8142
54.8181
54.8245
54.8308
54.8368
54.8425
54.848
54.853
54.8574
54.8613
54.8649
54.8679
54.8703
54.8721
54.8735
54.8745
54.8753
54.8758
54.876
54.876
54.8759
54.8756
54.8752
54.8747
54.8741
54.8735
54.8727
54.8718
54.8709
54.8698
54.8687
54.8675
54.8661
54.8647
54.8632
54.8615
54.8598
54.8581
54.8561
54.8542
54.8521
54.85
54.8478
54.8454
54.843
54.8405
54.838
54.8353
54.8326
54.8297
54.8269
54.8239
54.8208
54.8176
54.8144
54.8112
54.8078
54.8044
54.8009
54.7974
54.7937
54.7901
54.7863
54.7825
54.7785
54.7745
54.7705
54.7664
54.7622
54.758
54.7538
54.7495
54.7452
54.7407
54.7362
54.7317
54.7271
54.7225
54.7177
54.7129
54.7081
54.7033
54.6985
54.6935
54.6885
54.6835
54.6785
54.6733
54.6682
54.663
54.6578
54.6525
54.6472
54.6419
54.6365
54.631
54.6256
54.6202
54.6146
54.6091
54.6036
54.5979
54.5923
54.5867
54.581
54.5754
54.5696
54.5639
54.5582
54.5524
54.5466
54.5408
54.535
54.5292
54.5233
54.5174
54.5116
54.5057
54.4998
54.4938
54.4879
54.482
54.476
54.4701
54.4641
54.4582
54.4523
54.4462
54.4403
54.4343
54.4283
54.4224
54.4164
54.4104
54.4044
54.3984
54.3925
54.3865
54.3805
54.3746
54.3687
54.3627
54.3568
54.3509
54.3449
54.3391
54.3332
54.3273
54.3215
54.3156
54.3098
54.304
54.2983
54.2925
54.2867
54.281
54.2753
54.2696
54.264
54.2584
54.2527
54.2472
54.2416
54.2362
54.2307
54.2252
54.2198
54.2145
54.2091
54.2038
54.1986
54.1933
54.1881
54.183
54.1779
54.1727
54.1677
54.1627
54.1577
54.1529
54.148
54.1433
54.1383
54.1338
54.1289
54.1245
54.1196
54.1154
54.1106
54.1066
54.1018
54.0978
54.0932
54.0893
54.0847
54.081
54.0765
54.0729
54.0683
54.0646
54.8142
54.8181
54.8245
54.8308
54.8368
54.8425
54.848
54.853
54.8574
54.8613
54.8649
54.8679
54.8703
54.8721
54.8735
54.8745
54.8753
54.8758
54.876
54.876
54.8759
54.8756
54.8752
54.8747
54.8741
54.8735
54.8727
54.8718
54.8709
54.8698
54.8687
54.8675
54.8661
54.8647
54.8632
54.8615
54.8598
54.8581
54.8561
54.8542
54.8521
54.85
54.8478
54.8454
54.843
54.8405
54.838
54.8353
54.8326
54.8297
54.8268
54.8239
54.8208
54.8176
54.8144
54.8112
54.8078
54.8044
54.8009
54.7974
54.7937
54.7901
54.7863
54.7824
54.7785
54.7745
54.7705
54.7664
54.7623
54.758
54.7538
54.7495
54.7452
54.7408
54.7362
54.7317
54.7271
54.7225
54.7177
54.7129
54.7081
54.7033
54.6985
54.6935
54.6885
54.6835
54.6785
54.6733
54.6682
54.663
54.6578
54.6525
54.6472
54.6419
54.6365
54.631
54.6256
54.6202
54.6146
54.6091
54.6036
54.5979
54.5923
54.5867
54.581
54.5754
54.5696
54.5639
54.5582
54.5524
54.5466
54.5408
54.535
54.5292
54.5233
54.5174
54.5116
54.5057
54.4998
54.4938
54.4879
54.482
54.476
54.4701
54.4641
54.4582
54.4523
54.4462
54.4403
54.4343
54.4283
54.4224
54.4164
54.4104
54.4044
54.3984
54.3925
54.3865
54.3805
54.3746
54.3687
54.3627
54.3568
54.3509
54.3449
54.3391
54.3332
54.3273
54.3215
54.3156
54.3098
54.304
54.2983
54.2925
54.2867
54.281
54.2753
54.2696
54.264
54.2584
54.2527
54.2472
54.2416
54.2362
54.2307
54.2252
54.2198
54.2145
54.2091
54.2038
54.1986
54.1933
54.1881
54.183
54.1779
54.1727
54.1677
54.1627
54.1577
54.1529
54.148
54.1433
54.1383
54.1338
54.1289
54.1246
54.1196
54.1154
54.1106
54.1066
54.1018
54.0978
54.0931
54.0893
54.0847
54.081
54.0765
54.0729
54.0682
54.0643
54.8136
54.8174
54.8238
54.8302
54.8362
54.8419
54.8473
54.8523
54.8567
54.8607
54.8642
54.8673
54.8697
54.8715
54.8728
54.8739
54.8747
54.8752
54.8754
54.8754
54.8753
54.875
54.8746
54.8741
54.8736
54.8729
54.8721
54.8713
54.8703
54.8693
54.8681
54.8669
54.8655
54.8641
54.8626
54.861
54.8593
54.8575
54.8556
54.8537
54.8516
54.8494
54.8472
54.8449
54.8425
54.84
54.8375
54.8348
54.8321
54.8293
54.8263
54.8233
54.8203
54.8171
54.8139
54.8106
54.8073
54.8039
54.8005
54.7969
54.7933
54.7896
54.7858
54.782
54.778
54.7741
54.77
54.766
54.7618
54.7576
54.7534
54.7491
54.7447
54.7403
54.7358
54.7313
54.7267
54.722
54.7173
54.7125
54.7077
54.7029
54.698
54.6931
54.6881
54.6831
54.6781
54.673
54.6678
54.6626
54.6574
54.6521
54.6468
54.6415
54.6361
54.6307
54.6253
54.6198
54.6142
54.6087
54.6032
54.5976
54.592
54.5863
54.5807
54.575
54.5693
54.5635
54.5578
54.552
54.5462
54.5404
54.5346
54.5288
54.5229
54.5171
54.5112
54.5053
54.4994
54.4934
54.4875
54.4816
54.4756
54.4697
54.4638
54.4578
54.4519
54.4459
54.4399
54.4339
54.4279
54.422
54.416
54.41
54.404
54.3981
54.3921
54.3861
54.3802
54.3742
54.3683
54.3623
54.3564
54.3505
54.3446
54.3387
54.3328
54.327
54.3211
54.3153
54.3095
54.3037
54.2979
54.2921
54.2864
54.2806
54.2749
54.2693
54.2636
54.258
54.2524
54.2469
54.2413
54.2358
54.2303
54.2249
54.2194
54.2141
54.2088
54.2034
54.1982
54.193
54.1877
54.1826
54.1775
54.1724
54.1674
54.1624
54.1574
54.1526
54.1476
54.1429
54.138
54.1334
54.1286
54.1242
54.1193
54.1151
54.1102
54.1062
54.1014
54.0975
54.0928
54.089
54.0843
54.0806
54.0761
54.0726
54.0677
54.0639
54.0627
54.0617
54.0606
54.0596
54.0584
54.0571
54.0559
54.0548
54.0539
54.0531
54.0523
54.0516
54.0509
54.0501
54.0493
54.0486
54.0478
54.047
54.0461
54.0453
54.0624
54.0615
54.0606
54.0597
54.0588
54.0578
54.0568
54.0558
54.0549
54.0539
54.053
54.0522
54.0514
54.0506
54.0499
54.0492
54.0485
54.0477
54.0469
54.0461
54.0622
54.0614
54.0605
54.0595
54.0587
54.0578
54.057
54.0561
54.0551
54.0542
54.0533
54.0524
54.0515
54.0508
54.05
54.0493
54.0486
54.0478
54.0471
54.0462
54.0625
54.0616
54.0607
54.0599
54.0591
54.0583
54.0575
54.0567
54.0559
54.055
54.0542
54.0533
54.0523
54.0514
54.0503
54.0494
54.0485
54.0476
54.0467
54.0459
54.0623
54.0615
54.0607
54.06
54.0593
54.0586
54.0579
54.0572
54.0565
54.0557
54.055
54.0543
54.0537
54.053
54.0523
54.0515
54.0507
54.0499
54.0491
54.0484
54.0624
54.0616
54.0608
54.0601
54.0594
54.0587
54.058
54.0573
54.0565
54.0558
54.0551
54.0543
54.0535
54.0527
54.0518
54.0509
54.0498
54.0489
54.0479
54.0471
54.0622
54.0616
54.0609
54.0602
54.0595
54.0588
54.0582
54.0575
54.0569
54.0562
54.0556
54.0549
54.0543
54.0537
54.0532
54.0526
54.0521
54.0516
54.0512
54.0506
54.062
54.0613
54.0606
54.0599
54.0592
54.0585
54.0578
54.0571
54.0565
54.0558
54.0552
54.0546
54.0541
54.0536
54.0533
54.053
54.0528
54.0527
54.0525
54.0521
54.0617
54.0611
54.0604
54.0598
54.0591
54.0585
54.0579
54.0573
54.0567
54.0562
54.0557
54.0553
54.0549
54.0546
54.0543
54.054
54.0538
54.0536
54.0533
54.0527
54.0614
54.0607
54.0601
54.0594
54.0588
54.0583
54.0577
54.0572
54.0568
54.0563
54.0559
54.0555
54.0551
54.0548
54.0545
54.0542
54.054
54.0538
54.0534
54.0525
54.0436
54.0405
54.0376
54.035
54.0323
54.0296
54.0268
54.0243
54.0219
54.0194
54.0168
54.0142
54.0116
54.0092
54.0067
54.0043
54.0019
53.9995
53.9972
53.9949
53.9926
53.9903
53.9881
53.9858
53.9836
53.9815
53.9794
53.9773
53.9752
53.9732
53.9712
53.9693
53.9674
53.9655
53.9635
53.9617
53.9599
53.958
53.9563
53.9546
53.9528
53.9512
53.9496
53.9479
53.9463
53.9448
53.9432
53.9417
53.9402
53.9387
53.9373
53.9359
53.9345
53.9331
53.9317
53.9305
53.9291
53.9279
53.9267
53.9254
53.9242
53.9231
53.9219
53.9208
53.9198
53.9186
53.9176
53.9166
53.9156
53.9147
53.9137
53.9128
53.9119
53.911
53.9102
53.9094
53.9085
53.9078
53.907
53.9063
53.9057
53.9051
53.9047
53.9042
53.9036
53.9029
53.9022
53.9019
53.9022
53.9027
53.9028
53.9019
53.8975
53.8805
53.8355
53.7834
53.7357
53.6953
53.6649
53.6453
53.6363
53.6341
53.6357
53.6512
53.7053
53.7707
53.8234
53.8615
53.886
53.8997
53.9066
53.9094
53.9093
53.906
53.9009
53.8974
53.895
53.8935
53.8925
53.8918
53.8913
53.891
53.8907
53.8905
53.8902
53.89
53.89
53.8898
53.8897
53.8895
53.8894
53.8893
53.8892
53.8892
53.8891
53.8891
53.889
53.8889
53.8888
53.8888
53.8888
53.8888
53.8888
53.8888
53.8887
53.8888
53.8888
53.8888
53.8887
53.8888
53.8888
53.8888
53.8889
53.889
53.889
53.889
53.8891
53.8892
53.8892
53.8893
53.8894
53.8895
53.8895
53.8896
53.8896
53.8898
53.8898
53.8899
53.89
53.8901
53.8902
53.8904
53.8904
53.8905
53.8906
53.8908
53.8909
53.891
53.891
53.8912
53.8913
53.8915
53.8914
53.8918
53.8916
53.8921
53.8918
53.8923
53.8921
53.8926
53.8923
53.8928
53.8925
53.893
53.8928
53.8932
53.893
53.8936
53.8931
53.8934
54.0445
54.0415
54.0383
54.0356
54.033
54.0304
54.0277
54.0251
54.0226
54.0202
54.0177
54.0151
54.0126
54.0101
54.0077
54.0053
54.0029
54.0006
53.9982
53.9959
53.9937
53.9914
53.9891
53.9869
53.9847
53.9826
53.9805
53.9784
53.9763
53.9743
53.9723
53.9703
53.9684
53.9665
53.9646
53.9628
53.961
53.9592
53.9574
53.9557
53.9539
53.9523
53.9507
53.949
53.9474
53.9459
53.9443
53.9428
53.9413
53.9398
53.9384
53.9369
53.9356
53.9342
53.9329
53.9316
53.9303
53.929
53.9278
53.9266
53.9253
53.9242
53.923
53.9219
53.9208
53.9198
53.9187
53.9177
53.9167
53.9158
53.9149
53.9139
53.913
53.9121
53.9112
53.9105
53.9097
53.9088
53.9081
53.9074
53.9067
53.9061
53.9055
53.9049
53.9042
53.9035
53.9028
53.9024
53.9022
53.9023
53.9026
53.9029
53.9036
53.9049
53.9064
53.9078
53.9087
53.9083
53.9053
53.8973
53.8884
53.8796
53.8719
53.8667
53.8648
53.8644
53.8657
53.8722
53.881
53.8874
53.8918
53.8947
53.8965
53.8967
53.8959
53.8945
53.8935
53.8928
53.8923
53.8919
53.8915
53.8912
53.8909
53.8908
53.8906
53.8904
53.8902
53.8901
53.8899
53.8898
53.8897
53.8896
53.8896
53.8895
53.8894
53.8893
53.8892
53.8893
53.8892
53.8892
53.8891
53.8891
53.889
53.8891
53.8891
53.889
53.8891
53.8891
53.8891
53.8891
53.8891
53.8892
53.8892
53.8893
53.8893
53.8893
53.8894
53.8894
53.8895
53.8896
53.8896
53.8897
53.8898
53.8899
53.89
53.89
53.8902
53.8902
53.8904
53.8905
53.8905
53.8906
53.8907
53.8908
53.8909
53.891
53.8911
53.8913
53.8913
53.8915
53.8915
53.8919
53.8917
53.8921
53.892
53.8924
53.8921
53.8926
53.8924
53.8929
53.8926
53.8931
53.8928
53.8933
53.8931
53.8935
53.8933
53.8938
53.8935
53.8937
54.0445
54.0416
54.0384
54.0357
54.033
54.0303
54.0276
54.0249
54.0225
54.02
54.0175
54.015
54.0124
54.01
54.0075
54.0051
54.0028
54.0004
53.998
53.9957
53.9935
53.9912
53.989
53.9867
53.9845
53.9824
53.9803
53.9781
53.9761
53.9741
53.9721
53.9702
53.9682
53.9663
53.9644
53.9626
53.9608
53.9589
53.9572
53.9554
53.9537
53.9521
53.9505
53.9488
53.9472
53.9457
53.9441
53.9426
53.9411
53.9396
53.9382
53.9368
53.9354
53.934
53.9327
53.9314
53.9301
53.9288
53.9276
53.9264
53.9252
53.924
53.9229
53.9218
53.9207
53.9196
53.9186
53.9175
53.9165
53.9156
53.9147
53.9137
53.9128
53.9119
53.9111
53.9103
53.9095
53.9087
53.9079
53.9071
53.9065
53.9058
53.9051
53.9046
53.9041
53.9035
53.9027
53.9018
53.901
53.9011
53.9019
53.9031
53.9054
53.9092
53.9126
53.9153
53.9174
53.9191
53.9206
53.9214
53.9206
53.9169
53.9098
53.9032
53.8975
53.893
53.8898
53.8882
53.888
53.8884
53.8896
53.8907
53.8916
53.8922
53.8924
53.8924
53.8923
53.8921
53.8919
53.8916
53.8914
53.8911
53.8909
53.8908
53.8905
53.8904
53.8902
53.8901
53.8899
53.8898
53.8897
53.8896
53.8896
53.8895
53.8894
53.8893
53.8892
53.8893
53.8892
53.8892
53.8891
53.8891
53.889
53.8891
53.8891
53.8891
53.8891
53.8891
53.8891
53.8891
53.8891
53.8892
53.8892
53.8893
53.8893
53.8893
53.8894
53.8894
53.8895
53.8896
53.8896
53.8897
53.8898
53.8899
53.89
53.89
53.8902
53.8902
53.8904
53.8905
53.8905
53.8906
53.8907
53.8908
53.8909
53.891
53.8911
53.8913
53.8913
53.8915
53.8915
53.8919
53.8917
53.8921
53.892
53.8924
53.8921
53.8926
53.8924
53.8929
53.8926
53.8931
53.8929
53.8933
53.8931
53.8935
53.8933
53.8938
53.8936
53.8938
54.0443
54.0413
54.038
54.0349
54.0319
54.0292
54.0263
54.0234
54.0206
54.018
54.0154
54.0128
54.0102
54.0077
54.0052
54.0027
54.0003
53.9979
53.9956
53.9933
53.9909
53.9886
53.9864
53.9842
53.982
53.9798
53.9777
53.9756
53.9736
53.9716
53.9696
53.9676
53.9657
53.9638
53.9619
53.9601
53.9582
53.9564
53.9547
53.953
53.9513
53.9496
53.9479
53.9463
53.9447
53.9431
53.9416
53.94
53.9385
53.9371
53.9357
53.9342
53.9329
53.9315
53.9301
53.9289
53.9275
53.9263
53.9251
53.9238
53.9226
53.9215
53.9203
53.9192
53.9181
53.9171
53.916
53.915
53.914
53.9131
53.9122
53.9112
53.9104
53.9095
53.9087
53.9078
53.907
53.9063
53.9056
53.9049
53.9043
53.9037
53.9033
53.9027
53.9021
53.9013
53.9006
53.8999
53.8999
53.9006
53.9018
53.9038
53.9069
53.9096
53.9118
53.9136
53.9153
53.9166
53.9174
53.9168
53.9139
53.9097
53.9058
53.9022
53.8992
53.8968
53.8951
53.8939
53.8932
53.8929
53.8927
53.8927
53.8927
53.8926
53.8924
53.8922
53.8921
53.8919
53.8916
53.8914
53.8912
53.891
53.8908
53.8906
53.8904
53.8903
53.8902
53.89
53.8899
53.8898
53.8897
53.8896
53.8895
53.8894
53.8894
53.8893
53.8892
53.8892
53.8892
53.8892
53.8891
53.8891
53.889
53.8891
53.8891
53.8891
53.8891
53.8891
53.8891
53.8891
53.8891
53.8892
53.8892
53.8893
53.8893
53.8893
53.8894
53.8894
53.8895
53.8896
53.8896
53.8897
53.8898
53.8899
53.89
53.89
53.8902
53.8902
53.8904
53.8905
53.8905
53.8906
53.8907
53.8908
53.8909
53.891
53.8911
53.8913
53.8914
53.8915
53.8915
53.8918
53.8918
53.8921
53.892
53.8923
53.8922
53.8926
53.8924
53.8929
53.8926
53.8931
53.8929
53.8933
53.893
53.8935
53.8933
53.8938
53.8937
53.8938
54.0465
54.0433
54.0402
54.0373
54.0343
54.0314
54.0286
54.026
54.0235
54.021
54.0184
54.0158
54.0133
54.0107
54.0083
54.0058
54.0034
54.001
53.9986
53.9963
53.994
53.9918
53.9895
53.9873
53.9851
53.983
53.9809
53.9788
53.9768
53.9747
53.9727
53.9708
53.9688
53.9669
53.9651
53.9632
53.9614
53.9596
53.9578
53.9561
53.9544
53.9528
53.9511
53.9494
53.9478
53.9463
53.9447
53.9432
53.9417
53.9402
53.9388
53.9374
53.936
53.9346
53.9333
53.932
53.9307
53.9294
53.9282
53.927
53.9258
53.9246
53.9235
53.9224
53.9212
53.9202
53.9191
53.9181
53.9171
53.9162
53.9152
53.9143
53.9133
53.9124
53.9116
53.9108
53.91
53.9092
53.9084
53.9076
53.907
53.9062
53.9055
53.9048
53.9041
53.9035
53.903
53.9024
53.9015
53.9006
53.9003
53.9007
53.9016
53.903
53.9045
53.906
53.9072
53.9081
53.9085
53.9082
53.9071
53.9055
53.9038
53.9019
53.9001
53.8985
53.8972
53.8961
53.8952
53.8945
53.894
53.8935
53.8931
53.8928
53.8925
53.8923
53.892
53.8917
53.8916
53.8913
53.8911
53.891
53.8908
53.8906
53.8904
53.8903
53.8902
53.89
53.8899
53.8898
53.8897
53.8896
53.8895
53.8894
53.8894
53.8893
53.8892
53.8892
53.8892
53.8892
53.8891
53.8891
53.889
53.8891
53.8891
53.8891
53.8891
53.8891
53.8891
53.8891
53.8891
53.8892
53.8892
53.8893
53.8893
53.8893
53.8894
53.8894
53.8895
53.8896
53.8896
53.8897
53.8898
53.8899
53.89
53.89
53.8902
53.8902
53.8904
53.8905
53.8905
53.8906
53.8907
53.8908
53.8909
53.891
53.8911
53.8913
53.8914
53.8915
53.8916
53.8917
53.8919
53.892
53.8921
53.8922
53.8923
53.8925
53.8926
53.8926
53.8929
53.8928
53.8931
53.8932
53.8932
53.8935
53.8934
53.8936
53.8937
53.8939
54.0453
54.0413
54.0372
54.0333
54.0297
54.0262
54.0229
54.0197
54.0165
54.0136
54.0107
54.008
54.0053
54.0027
54.0002
53.9977
53.9952
53.9928
53.9905
53.9882
53.9858
53.9835
53.9813
53.9791
53.9769
53.9748
53.9726
53.9705
53.9685
53.9665
53.9645
53.9625
53.9606
53.9587
53.9568
53.955
53.9532
53.9513
53.9496
53.9478
53.9462
53.9445
53.9428
53.9412
53.9397
53.938
53.9365
53.935
53.9336
53.9321
53.9306
53.9292
53.9278
53.9265
53.9252
53.9239
53.9226
53.9214
53.9202
53.919
53.9178
53.9167
53.9156
53.9146
53.9136
53.9126
53.9117
53.9108
53.9099
53.909
53.9081
53.9073
53.9066
53.9059
53.9053
53.9046
53.904
53.9034
53.9029
53.9023
53.9016
53.9008
53.9002
53.8995
53.8991
53.899
53.8995
53.9004
53.9014
53.9026
53.9038
53.9049
53.9056
53.9059
53.9063
53.9066
53.9065
53.9061
53.9055
53.9046
53.9034
53.902
53.9005
53.899
53.8977
53.8966
53.8956
53.8948
53.8943
53.8938
53.8934
53.893
53.8927
53.8924
53.8922
53.8919
53.8917
53.8915
53.8913
53.8912
53.891
53.8908
53.8906
53.8906
53.8904
53.8902
53.8902
53.89
53.8899
53.8898
53.8897
53.8896
53.8895
53.8894
53.8894
53.8893
53.8892
53.8892
53.8892
53.8892
53.8891
53.8891
53.889
53.8891
53.8891
53.8891
53.8891
53.8891
53.8891
53.8891
53.8891
53.8892
53.8892
53.8893
53.8893
53.8893
53.8894
53.8894
53.8895
53.8896
53.8896
53.8897
53.8898
53.8899
53.89
53.89
53.8902
53.8902
53.8904
53.8905
53.8905
53.8906
53.8907
53.8908
53.8909
53.891
53.8912
53.8912
53.8914
53.8915
53.8917
53.8917
53.892
53.8918
53.8922
53.8921
53.8925
53.8923
53.8927
53.8926
53.893
53.8928
53.8932
53.893
53.8934
53.8932
53.8936
53.8935
53.8938
53.8937
54.0489
54.0463
54.0436
54.0409
54.038
54.0352
54.0323
54.0296
54.0269
54.0243
54.0218
54.0192
54.0167
54.0142
54.0117
54.0092
54.0068
54.0044
54.002
53.9998
53.9975
53.9952
53.993
53.9909
53.9887
53.9866
53.9846
53.9825
53.9804
53.9784
53.9764
53.9745
53.9725
53.9707
53.9688
53.9669
53.9651
53.9633
53.9615
53.9598
53.9581
53.9563
53.9547
53.9531
53.9515
53.95
53.9484
53.9469
53.9454
53.9439
53.9425
53.941
53.9397
53.9383
53.9369
53.9356
53.9343
53.9331
53.9319
53.9307
53.9295
53.9283
53.9272
53.9261
53.925
53.9239
53.9229
53.9219
53.9208
53.9198
53.9189
53.9181
53.9172
53.9163
53.9155
53.9146
53.9138
53.913
53.9123
53.9115
53.9108
53.91
53.9094
53.9088
53.9081
53.9074
53.9067
53.906
53.9055
53.905
53.9045
53.9039
53.9033
53.9023
53.901
53.9001
53.8998
53.9001
53.9011
53.9026
53.9043
53.9056
53.9057
53.9044
53.9022
53.9001
53.8983
53.8967
53.8956
53.8946
53.894
53.8934
53.8929
53.8925
53.8922
53.8919
53.8917
53.8915
53.8913
53.8911
53.891
53.8908
53.8906
53.8905
53.8903
53.8902
53.8902
53.89
53.8899
53.8898
53.8897
53.8896
53.8895
53.8894
53.8894
53.8893
53.8892
53.8892
53.8892
53.8892
53.8891
53.8891
53.889
53.8891
53.8891
53.8891
53.8891
53.8891
53.8891
53.8891
53.8891
53.8892
53.8892
53.8893
53.8893
53.8893
53.8894
53.8894
53.8895
53.8896
53.8896
53.8897
53.8898
53.8899
53.89
53.89
53.8902
53.8902
53.8904
53.8905
53.8905
53.8906
53.8907
53.8908
53.8909
53.891
53.8912
53.8912
53.8914
53.8915
53.8917
53.8917
53.892
53.8918
53.8922
53.8921
53.8925
53.8923
53.8927
53.8926
53.893
53.8928
53.8932
53.893
53.8934
53.8933
53.8936
53.8936
53.8936
53.8938
54.0498
54.0457
54.0414
54.0372
54.033
54.029
54.0252
54.0215
54.0179
54.0146
54.0114
54.0085
54.0057
54.003
54.0005
53.9979
53.9955
53.993
53.9907
53.9884
53.9861
53.9838
53.9816
53.9794
53.9772
53.9751
53.9729
53.9708
53.9688
53.9667
53.9648
53.9628
53.9609
53.9591
53.9572
53.9553
53.9536
53.9518
53.9501
53.9484
53.9467
53.9451
53.9434
53.9419
53.9403
53.9387
53.9372
53.9357
53.9342
53.9328
53.9313
53.9299
53.9285
53.9272
53.9258
53.9245
53.9232
53.9219
53.9206
53.9194
53.9183
53.9171
53.916
53.9149
53.9139
53.9129
53.9119
53.911
53.9101
53.9093
53.9085
53.9077
53.907
53.9064
53.9057
53.9051
53.9044
53.9036
53.9028
53.9021
53.9014
53.9007
53.9
53.8992
53.8985
53.898
53.8976
53.8975
53.8979
53.8986
53.8995
53.9004
53.9014