/*--------------------------------*- C++ -*----------------------------------*\
| =========                 |                                                 |
| \\      /  F ield         | OpenFOAM: The Open Source CFD Toolbox           |
|  \\    /   O peration     | Version:  3.0.x                                 |
|   \\  /    A nd           | Web:      www.OpenFOAM.org                      |
|    \\/     M anipulation  |                                                 |
\*---------------------------------------------------------------------------*/
FoamFile
{
    version     2.0;
    format      ascii;
    class       volScalarField;
    location    "0.59";
    object      T;
}
// * * * * * * * * * * * * * * * * * * * * * * * * * * * * * * * * * * * * * //

dimensions      [0 0 0 1 0 0 0];

internalField   nonuniform List<scalar> 
13800
(
786.737
786.703
786.643
786.58
786.519
786.459
786.401
786.348
786.302
786.261
786.224
786.192
786.168
786.151
786.138
786.128
786.121
786.115
786.112
786.111
786.11
786.109
786.108
786.106
786.105
786.102
786.101
786.098
786.095
786.092
786.089
786.085
786.081
786.077
786.072
786.067
786.063
786.057
786.052
786.046
786.041
786.034
786.028
786.021
786.014
786.007
785.999
785.992
785.983
785.975
785.968
785.96
785.951
785.942
785.932
785.923
785.912
785.902
785.892
785.882
785.871
785.86
785.849
785.838
785.827
785.815
785.804
785.792
785.78
785.767
785.754
785.741
785.727
785.714
785.701
785.687
785.674
785.661
785.647
785.633
785.619
785.605
785.59
785.576
785.561
785.546
785.53
785.516
785.501
785.486
785.471
785.456
785.44
785.424
785.409
785.393
785.377
785.361
785.346
785.33
785.314
785.298
785.281
785.266
785.249
785.232
785.216
785.199
785.183
785.167
785.15
785.133
785.116
785.099
785.082
785.065
785.048
785.03
785.014
784.997
784.98
784.963
784.946
784.928
784.911
784.894
784.876
784.859
784.842
784.825
784.807
784.789
784.772
784.756
784.738
784.721
784.703
784.686
784.669
784.652
784.634
784.617
784.6
784.583
784.566
784.549
784.532
784.515
784.498
784.481
784.464
784.447
784.43
784.414
784.397
784.381
784.364
784.348
784.331
784.315
784.299
784.283
784.267
784.25
784.235
784.219
784.204
784.188
784.172
784.157
784.141
784.126
784.112
784.096
784.081
784.067
784.052
784.038
784.023
784.009
783.994
783.982
783.966
783.954
783.938
783.928
783.911
783.902
783.884
783.877
783.858
783.852
783.833
783.827
783.808
783.802
783.786
783.774
783.772
783.751
786.728
786.694
786.633
786.571
786.51
786.45
786.392
786.339
786.293
786.252
786.215
786.183
786.159
786.142
786.129
786.119
786.112
786.107
786.104
786.102
786.101
786.101
786.099
786.098
786.096
786.094
786.092
786.09
786.087
786.084
786.08
786.077
786.073
786.069
786.064
786.06
786.055
786.05
786.045
786.039
786.033
786.026
786.02
786.013
786.007
786
785.992
785.984
785.976
785.968
785.96
785.952
785.943
785.935
785.925
785.916
785.906
785.895
785.885
785.875
785.864
785.853
785.842
785.831
785.82
785.809
785.797
785.785
785.773
785.761
785.748
785.734
785.72
785.708
785.695
785.682
785.668
785.654
785.641
785.628
785.614
785.599
785.584
785.57
785.555
785.54
785.525
785.51
785.496
785.48
785.465
785.45
785.434
785.419
785.403
785.388
785.372
785.356
785.341
785.324
785.308
785.293
785.276
785.26
785.244
785.227
785.211
785.194
785.177
785.16
785.144
785.128
785.11
785.093
785.076
785.06
785.043
785.025
785.008
784.992
784.975
784.957
784.94
784.922
784.905
784.888
784.87
784.853
784.836
784.819
784.802
784.784
784.767
784.75
784.733
784.716
784.698
784.681
784.664
784.647
784.629
784.612
784.595
784.578
784.561
784.543
784.527
784.51
784.493
784.476
784.459
784.442
784.425
784.408
784.392
784.376
784.359
784.343
784.326
784.309
784.294
784.277
784.262
784.245
784.23
784.214
784.199
784.182
784.167
784.152
784.136
784.121
784.106
784.091
784.076
784.062
784.047
784.032
784.018
784.004
783.989
783.976
783.961
783.949
783.933
783.923
783.906
783.897
783.879
783.871
783.853
783.847
783.828
783.822
783.804
783.797
783.78
783.774
783.758
783.752
786.728
786.694
786.633
786.571
786.51
786.45
786.392
786.339
786.293
786.252
786.215
786.183
786.159
786.142
786.129
786.119
786.112
786.107
786.104
786.102
786.101
786.101
786.099
786.098
786.096
786.094
786.092
786.09
786.087
786.084
786.08
786.077
786.073
786.069
786.064
786.06
786.055
786.05
786.045
786.039
786.033
786.027
786.02
786.013
786.007
785.999
785.992
785.984
785.976
785.968
785.96
785.952
785.943
785.935
785.925
785.916
785.905
785.895
785.885
785.875
785.864
785.853
785.842
785.831
785.82
785.809
785.797
785.785
785.773
785.761
785.747
785.734
785.721
785.708
785.695
785.681
785.667
785.654
785.641
785.628
785.614
785.599
785.584
785.57
785.555
785.54
785.525
785.51
785.496
785.48
785.465
785.45
785.434
785.419
785.403
785.388
785.372
785.356
785.341
785.324
785.308
785.293
785.276
785.26
785.244
785.227
785.211
785.194
785.177
785.16
785.144
785.128
785.11
785.093
785.076
785.06
785.043
785.025
785.008
784.992
784.975
784.957
784.94
784.922
784.905
784.888
784.87
784.853
784.836
784.819
784.802
784.784
784.767
784.75
784.733
784.716
784.698
784.681
784.664
784.647
784.629
784.612
784.595
784.578
784.561
784.543
784.527
784.51
784.493
784.476
784.459
784.442
784.425
784.408
784.392
784.376
784.359
784.343
784.326
784.309
784.294
784.277
784.262
784.245
784.23
784.214
784.199
784.182
784.167
784.152
784.136
784.121
784.106
784.091
784.076
784.062
784.047
784.032
784.018
784.004
783.989
783.976
783.961
783.949
783.933
783.923
783.905
783.897
783.879
783.871
783.853
783.847
783.828
783.822
783.804
783.797
783.78
783.774
783.757
783.751
786.728
786.694
786.633
786.571
786.51
786.45
786.392
786.339
786.293
786.252
786.215
786.183
786.159
786.142
786.129
786.119
786.112
786.107
786.104
786.102
786.101
786.101
786.099
786.098
786.096
786.094
786.092
786.09
786.087
786.084
786.08
786.077
786.073
786.069
786.064
786.06
786.055
786.05
786.045
786.039
786.033
786.026
786.02
786.013
786.007
786
785.992
785.984
785.976
785.968
785.96
785.952
785.943
785.935
785.925
785.916
785.906
785.895
785.885
785.875
785.864
785.853
785.842
785.831
785.82
785.809
785.797
785.785
785.773
785.761
785.748
785.734
785.72
785.708
785.695
785.682
785.668
785.654
785.641
785.628
785.614
785.599
785.584
785.57
785.555
785.54
785.525
785.51
785.496
785.48
785.465
785.45
785.434
785.419
785.403
785.388
785.372
785.356
785.341
785.324
785.308
785.293
785.276
785.26
785.244
785.227
785.211
785.194
785.177
785.16
785.144
785.128
785.11
785.093
785.076
785.06
785.043
785.025
785.008
784.992
784.975
784.957
784.94
784.922
784.905
784.888
784.87
784.853
784.836
784.819
784.802
784.784
784.767
784.75
784.733
784.716
784.698
784.681
784.664
784.647
784.629
784.612
784.595
784.578
784.561
784.543
784.527
784.51
784.493
784.476
784.459
784.442
784.425
784.408
784.392
784.376
784.359
784.343
784.326
784.309
784.294
784.277
784.262
784.245
784.23
784.214
784.199
784.182
784.167
784.152
784.136
784.121
784.106
784.091
784.076
784.062
784.047
784.032
784.018
784.004
783.989
783.976
783.961
783.949
783.933
783.923
783.905
783.897
783.879
783.871
783.853
783.847
783.828
783.822
783.804
783.797
783.78
783.774
783.758
783.749
786.728
786.694
786.633
786.571
786.509
786.449
786.392
786.339
786.293
786.251
786.214
786.183
786.159
786.142
786.129
786.12
786.112
786.107
786.104
786.102
786.101
786.101
786.099
786.098
786.096
786.094
786.092
786.09
786.087
786.084
786.08
786.077
786.073
786.069
786.064
786.06
786.055
786.05
786.045
786.039
786.033
786.026
786.02
786.013
786.007
786
785.992
785.984
785.976
785.968
785.96
785.952
785.943
785.935
785.925
785.916
785.906
785.895
785.885
785.875
785.864
785.853
785.842
785.831
785.82
785.809
785.797
785.785
785.773
785.761
785.748
785.734
785.72
785.708
785.695
785.682
785.668
785.654
785.641
785.628
785.614
785.599
785.584
785.57
785.555
785.54
785.525
785.51
785.496
785.48
785.465
785.45
785.434
785.419
785.403
785.388
785.372
785.356
785.341
785.324
785.308
785.293
785.276
785.26
785.244
785.227
785.211
785.194
785.177
785.16
785.144
785.128
785.11
785.093
785.076
785.06
785.043
785.025
785.008
784.992
784.975
784.957
784.94
784.922
784.905
784.888
784.87
784.853
784.836
784.819
784.802
784.784
784.767
784.75
784.733
784.716
784.698
784.681
784.664
784.647
784.629
784.612
784.595
784.578
784.561
784.543
784.527
784.51
784.493
784.476
784.459
784.442
784.425
784.408
784.392
784.376
784.359
784.343
784.326
784.309
784.294
784.277
784.262
784.245
784.23
784.214
784.199
784.182
784.167
784.152
784.136
784.121
784.106
784.091
784.076
784.062
784.047
784.032
784.018
784.004
783.989
783.976
783.961
783.949
783.933
783.923
783.905
783.897
783.879
783.871
783.853
783.846
783.828
783.821
783.803
783.798
783.78
783.774
783.757
783.751
786.728
786.694
786.633
786.571
786.509
786.449
786.392
786.339
786.293
786.251
786.214
786.183
786.159
786.142
786.129
786.12
786.112
786.107
786.104
786.102
786.101
786.101
786.099
786.098
786.096
786.094
786.092
786.09
786.087
786.084
786.08
786.077
786.073
786.069
786.064
786.06
786.055
786.05
786.045
786.039
786.033
786.026
786.02
786.013
786.007
786
785.992
785.984
785.976
785.968
785.96
785.952
785.943
785.935
785.925
785.916
785.906
785.895
785.885
785.875
785.864
785.853
785.842
785.831
785.82
785.809
785.797
785.785
785.773
785.761
785.748
785.734
785.72
785.708
785.695
785.682
785.668
785.654
785.641
785.628
785.614
785.599
785.584
785.57
785.555
785.54
785.525
785.51
785.496
785.48
785.465
785.45
785.434
785.419
785.403
785.388
785.372
785.356
785.341
785.324
785.308
785.293
785.276
785.26
785.244
785.227
785.211
785.194
785.177
785.16
785.144
785.128
785.11
785.093
785.076
785.06
785.043
785.025
785.008
784.992
784.975
784.957
784.94
784.922
784.905
784.888
784.87
784.853
784.836
784.819
784.802
784.784
784.767
784.75
784.733
784.716
784.698
784.681
784.664
784.647
784.629
784.612
784.595
784.578
784.561
784.543
784.527
784.51
784.493
784.476
784.459
784.442
784.425
784.408
784.392
784.376
784.359
784.343
784.326
784.309
784.294
784.277
784.262
784.245
784.23
784.214
784.199
784.182
784.167
784.152
784.136
784.121
784.106
784.091
784.076
784.062
784.047
784.032
784.018
784.004
783.989
783.976
783.962
783.948
783.935
783.92
783.909
783.894
783.884
783.867
783.858
783.843
783.83
783.82
783.805
783.795
783.783
783.769
783.761
783.746
786.728
786.694
786.633
786.571
786.51
786.45
786.392
786.339
786.293
786.252
786.215
786.183
786.159
786.142
786.129
786.119
786.112
786.107
786.104
786.102
786.101
786.101
786.099
786.098
786.096
786.094
786.092
786.09
786.087
786.084
786.08
786.077
786.073
786.069
786.064
786.06
786.055
786.05
786.045
786.039
786.033
786.026
786.02
786.013
786.007
786
785.992
785.984
785.976
785.968
785.96
785.952
785.943
785.935
785.925
785.916
785.906
785.895
785.885
785.875
785.864
785.853
785.842
785.831
785.82
785.809
785.797
785.785
785.773
785.761
785.748
785.734
785.72
785.708
785.695
785.682
785.668
785.654
785.641
785.628
785.614
785.599
785.584
785.57
785.555
785.54
785.525
785.51
785.496
785.48
785.465
785.45
785.434
785.419
785.403
785.388
785.372
785.356
785.341
785.324
785.308
785.293
785.276
785.26
785.244
785.227
785.211
785.194
785.177
785.16
785.144
785.128
785.11
785.093
785.076
785.06
785.043
785.025
785.008
784.992
784.975
784.957
784.94
784.922
784.905
784.888
784.87
784.853
784.836
784.819
784.802
784.784
784.767
784.75
784.733
784.716
784.698
784.681
784.664
784.647
784.629
784.612
784.595
784.578
784.561
784.543
784.527
784.51
784.493
784.476
784.459
784.442
784.425
784.408
784.392
784.376
784.359
784.343
784.326
784.309
784.294
784.277
784.262
784.245
784.23
784.214
784.199
784.182
784.167
784.152
784.136
784.121
784.106
784.091
784.076
784.062
784.047
784.032
784.018
784.003
783.99
783.975
783.963
783.947
783.936
783.919
783.91
783.893
783.884
783.866
783.858
783.84
783.834
783.816
783.81
783.792
783.786
783.768
783.761
783.747
786.728
786.694
786.633
786.571
786.51
786.45
786.392
786.339
786.293
786.252
786.215
786.183
786.159
786.142
786.129
786.119
786.112
786.107
786.104
786.102
786.101
786.101
786.099
786.098
786.096
786.094
786.092
786.09
786.087
786.084
786.08
786.077
786.073
786.069
786.064
786.06
786.055
786.05
786.045
786.039
786.033
786.027
786.02
786.013
786.007
785.999
785.992
785.984
785.976
785.968
785.96
785.952
785.943
785.935
785.925
785.916
785.905
785.895
785.885
785.875
785.864
785.853
785.842
785.831
785.82
785.809
785.797
785.785
785.773
785.761
785.747
785.734
785.721
785.708
785.695
785.681
785.667
785.654
785.641
785.628
785.614
785.599
785.584
785.57
785.555
785.54
785.525
785.51
785.496
785.48
785.465
785.45
785.434
785.419
785.403
785.388
785.372
785.356
785.341
785.324
785.308
785.293
785.276
785.26
785.244
785.227
785.211
785.194
785.177
785.16
785.144
785.128
785.11
785.093
785.076
785.06
785.043
785.025
785.008
784.992
784.975
784.957
784.94
784.922
784.905
784.888
784.87
784.853
784.836
784.819
784.802
784.784
784.767
784.75
784.733
784.716
784.698
784.681
784.664
784.647
784.629
784.612
784.595
784.578
784.561
784.543
784.527
784.51
784.493
784.476
784.459
784.442
784.425
784.408
784.392
784.376
784.359
784.343
784.326
784.309
784.294
784.277
784.262
784.245
784.23
784.214
784.199
784.182
784.167
784.152
784.136
784.121
784.106
784.091
784.076
784.062
784.047
784.032
784.018
784.003
783.99
783.975
783.963
783.947
783.936
783.919
783.91
783.893
783.885
783.866
783.859
783.841
783.834
783.816
783.81
783.792
783.786
783.767
783.764
783.749
786.728
786.694
786.633
786.571
786.51
786.45
786.392
786.339
786.293
786.252
786.215
786.183
786.159
786.142
786.129
786.119
786.112
786.107
786.104
786.102
786.101
786.101
786.099
786.098
786.096
786.094
786.092
786.09
786.087
786.084
786.08
786.077
786.073
786.069
786.064
786.06
786.055
786.05
786.045
786.039
786.033
786.026
786.02
786.013
786.007
786
785.992
785.984
785.976
785.968
785.96
785.952
785.943
785.935
785.925
785.916
785.906
785.895
785.885
785.875
785.864
785.853
785.842
785.831
785.82
785.809
785.797
785.785
785.773
785.761
785.748
785.734
785.72
785.708
785.695
785.682
785.668
785.654
785.641
785.628
785.614
785.599
785.584
785.57
785.555
785.54
785.525
785.51
785.496
785.48
785.465
785.45
785.434
785.419
785.403
785.388
785.372
785.356
785.341
785.324
785.308
785.293
785.276
785.26
785.244
785.227
785.211
785.194
785.177
785.16
785.144
785.128
785.11
785.093
785.076
785.06
785.043
785.025
785.008
784.992
784.975
784.957
784.94
784.922
784.905
784.888
784.87
784.853
784.836
784.819
784.802
784.784
784.767
784.75
784.733
784.716
784.698
784.681
784.664
784.647
784.629
784.612
784.595
784.578
784.561
784.543
784.527
784.51
784.493
784.476
784.459
784.442
784.425
784.408
784.392
784.376
784.359
784.343
784.326
784.309
784.294
784.277
784.262
784.245
784.23
784.214
784.199
784.182
784.167
784.152
784.136
784.121
784.106
784.091
784.076
784.062
784.047
784.032
784.018
784.003
783.99
783.975
783.963
783.947
783.936
783.919
783.911
783.892
783.885
783.866
783.859
783.841
783.835
783.816
783.81
783.792
783.786
783.768
783.766
783.753
786.737
786.703
786.643
786.58
786.519
786.459
786.401
786.348
786.302
786.261
786.224
786.192
786.168
786.151
786.138
786.128
786.121
786.115
786.112
786.111
786.11
786.109
786.108
786.106
786.105
786.102
786.101
786.098
786.095
786.092
786.089
786.085
786.081
786.077
786.072
786.067
786.063
786.057
786.052
786.046
786.041
786.034
786.028
786.021
786.014
786.007
785.999
785.992
785.983
785.975
785.968
785.96
785.951
785.942
785.932
785.923
785.912
785.902
785.892
785.882
785.871
785.86
785.849
785.838
785.827
785.815
785.804
785.792
785.78
785.767
785.754
785.741
785.727
785.714
785.701
785.687
785.674
785.661
785.647
785.633
785.619
785.605
785.59
785.576
785.561
785.546
785.53
785.516
785.501
785.486
785.471
785.456
785.44
785.424
785.409
785.393
785.377
785.361
785.346
785.33
785.314
785.298
785.281
785.266
785.249
785.232
785.216
785.199
785.183
785.167
785.15
785.133
785.116
785.099
785.082
785.065
785.048
785.03
785.014
784.997
784.98
784.963
784.946
784.928
784.911
784.894
784.876
784.859
784.842
784.825
784.807
784.789
784.772
784.756
784.738
784.721
784.703
784.686
784.669
784.652
784.634
784.617
784.6
784.583
784.566
784.549
784.532
784.515
784.498
784.481
784.464
784.447
784.43
784.414
784.397
784.381
784.364
784.348
784.331
784.315
784.299
784.283
784.267
784.25
784.235
784.219
784.204
784.188
784.172
784.157
784.141
784.126
784.112
784.096
784.081
784.067
784.052
784.037
784.024
784.008
783.995
783.98
783.968
783.952
783.941
783.924
783.915
783.898
783.89
783.871
783.864
783.846
783.839
783.82
783.815
783.797
783.792
783.772
783.774
783.758
783.743
783.744
783.746
783.748
783.752
783.759
783.764
783.767
783.768
783.768
783.767
783.766
783.765
783.763
783.762
783.761
783.759
783.758
783.757
783.754
783.748
783.747
783.746
783.746
783.747
783.748
783.75
783.752
783.754
783.756
783.757
783.757
783.757
783.756
783.754
783.751
783.749
783.747
783.745
783.742
783.75
783.748
783.748
783.748
783.747
783.748
783.748
783.749
783.751
783.752
783.753
783.754
783.755
783.754
783.753
783.75
783.748
783.745
783.742
783.741
783.745
783.744
783.744
783.742
783.742
783.74
783.74
783.739
783.739
783.739
783.74
783.741
783.742
783.744
783.746
783.747
783.748
783.747
783.746
783.745
783.746
783.743
783.742
783.739
783.737
783.735
783.732
783.73
783.729
783.728
783.726
783.724
783.722
783.72
783.718
783.716
783.715
783.714
783.712
783.71
783.741
783.739
783.738
783.736
783.734
783.732
783.73
783.728
783.727
783.725
783.725
783.723
783.722
783.722
783.724
783.724
783.727
783.729
783.731
783.73
783.738
783.736
783.735
783.732
783.731
783.728
783.725
783.722
783.719
783.716
783.714
783.711
783.708
783.705
783.701
783.698
783.694
783.69
783.686
783.682
783.738
783.736
783.734
783.732
783.73
783.728
783.726
783.724
783.721
783.719
783.716
783.713
783.709
783.705
783.699
783.693
783.686
783.678
783.671
783.665
783.741
783.739
783.736
783.734
783.731
783.727
783.724
783.721
783.717
783.713
783.708
783.703
783.697
783.69
783.684
783.678
783.671
783.665
783.66
783.656
783.746
783.742
783.739
783.736
783.733
783.729
783.724
783.719
783.714
783.709
783.704
783.698
783.692
783.686
783.68
783.674
783.668
783.662
783.659
783.659
783.747
783.74
783.73
783.716
783.704
783.693
783.684
783.672
783.66
783.649
783.641
783.632
783.625
783.617
783.608
783.601
783.592
783.586
783.578
783.571
783.564
783.557
783.552
783.545
783.54
783.533
783.527
783.521
783.515
783.509
783.503
783.497
783.491
783.486
783.481
783.476
783.47
783.466
783.46
783.455
783.451
783.446
783.44
783.436
783.431
783.426
783.423
783.417
783.413
783.41
783.405
783.4
783.396
783.392
783.389
783.385
783.381
783.377
783.374
783.371
783.367
783.363
783.361
783.357
783.354
783.351
783.349
783.346
783.342
783.339
783.337
783.334
783.332
783.329
783.326
783.323
783.322
783.319
783.318
783.315
783.311
783.307
783.301
783.297
783.295
783.294
783.293
783.288
783.274
783.258
783.247
783.252
783.307
783.546
784.193
784.945
785.635
786.218
786.656
786.937
787.062
787.087
787.057
786.824
786.024
785.063
784.288
783.728
783.367
783.161
783.057
783.011
783.008
783.051
783.122
783.168
783.199
783.217
783.228
783.235
783.239
783.241
783.243
783.243
783.244
783.244
783.243
783.244
783.244
783.243
783.244
783.243
783.243
783.243
783.242
783.242
783.242
783.242
783.243
783.242
783.242
783.242
783.242
783.242
783.242
783.242
783.241
783.241
783.243
783.242
783.242
783.243
783.242
783.242
783.243
783.243
783.243
783.243
783.244
783.243
783.243
783.243
783.244
783.244
783.245
783.245
783.245
783.246
783.246
783.246
783.246
783.246
783.247
783.247
783.247
783.248
783.248
783.248
783.249
783.248
783.25
783.248
783.252
783.249
783.253
783.249
783.254
783.249
783.255
783.249
783.256
783.25
783.256
783.251
783.257
783.252
783.257
783.251
783.261
783.258
783.734
783.725
783.719
783.707
783.693
783.682
783.671
783.661
783.649
783.637
783.627
783.619
783.611
783.602
783.594
783.586
783.578
783.57
783.564
783.556
783.549
783.542
783.536
783.53
783.524
783.517
783.51
783.506
783.499
783.494
783.487
783.482
783.476
783.47
783.465
783.46
783.454
783.45
783.444
783.439
783.435
783.43
783.424
783.42
783.415
783.41
783.407
783.401
783.397
783.393
783.389
783.385
783.38
783.377
783.373
783.369
783.364
783.361
783.357
783.354
783.351
783.347
783.345
783.341
783.338
783.335
783.332
783.329
783.327
783.323
783.32
783.318
783.315
783.313
783.311
783.308
783.306
783.304
783.301
783.298
783.296
783.293
783.29
783.287
783.286
783.286
783.285
783.282
783.274
783.264
783.25
783.236
783.218
783.192
783.161
783.133
783.112
783.112
783.149
783.257
783.38
783.501
783.607
783.676
783.697
783.696
783.672
783.572
783.438
783.341
783.272
783.224
783.195
783.187
783.194
783.21
783.221
783.228
783.232
783.235
783.237
783.238
783.239
783.239
783.239
783.239
783.239
783.239
783.239
783.239
783.239
783.239
783.238
783.238
783.238
783.238
783.239
783.237
783.238
783.237
783.237
783.238
783.238
783.237
783.237
783.238
783.237
783.237
783.238
783.237
783.238
783.238
783.238
783.238
783.238
783.238
783.238
783.239
783.239
783.239
783.239
783.239
783.24
783.24
783.24
783.24
783.24
783.241
783.241
783.241
783.241
783.242
783.242
783.243
783.243
783.244
783.244
783.244
783.245
783.244
783.246
783.243
783.247
783.244
783.248
783.244
783.25
783.245
783.25
783.245
783.251
783.246
783.252
783.247
783.252
783.248
783.253
783.248
783.254
783.254
783.733
783.724
783.717
783.706
783.693
783.683
783.673
783.663
783.651
783.64
783.63
783.621
783.613
783.605
783.596
783.589
783.581
783.573
783.566
783.559
783.552
783.545
783.538
783.532
783.526
783.52
783.513
783.509
783.502
783.497
783.491
783.484
783.479
783.473
783.468
783.462
783.457
783.453
783.447
783.443
783.438
783.432
783.427
783.423
783.418
783.413
783.409
783.405
783.4
783.396
783.392
783.387
783.383
783.379
783.375
783.371
783.367
783.364
783.36
783.357
783.353
783.35
783.347
783.343
783.341
783.338
783.334
783.332
783.329
783.326
783.323
783.32
783.318
783.316
783.314
783.31
783.308
783.306
783.304
783.302
783.299
783.297
783.295
783.291
783.287
783.285
783.287
783.29
783.292
783.281
783.26
783.234
783.192
783.129
783.071
783.025
782.987
782.955
782.926
782.908
782.911
782.959
783.056
783.144
783.221
783.281
783.321
783.339
783.337
783.325
783.303
783.283
783.265
783.252
783.245
783.241
783.239
783.238
783.238
783.238
783.238
783.239
783.239
783.238
783.24
783.239
783.239
783.239
783.239
783.239
783.239
783.239
783.238
783.238
783.238
783.238
783.239
783.237
783.238
783.237
783.237
783.238
783.238
783.237
783.237
783.237
783.237
783.237
783.238
783.237
783.238
783.238
783.238
783.238
783.238
783.238
783.238
783.239
783.239
783.239
783.239
783.239
783.24
783.24
783.24
783.24
783.24
783.241
783.241
783.241
783.241
783.242
783.242
783.243
783.243
783.244
783.244
783.244
783.245
783.244
783.246
783.243
783.247
783.244
783.248
783.244
783.25
783.245
783.25
783.245
783.251
783.246
783.251
783.247
783.252
783.248
783.253
783.248
783.253
783.252
783.735
783.728
783.724
783.718
783.709
783.699
783.692
783.685
783.678
783.669
783.66
783.652
783.646
783.638
783.631
783.623
783.616
783.609
783.602
783.595
783.588
783.582
783.575
783.569
783.563
783.557
783.551
783.545
783.539
783.533
783.527
783.521
783.515
783.51
783.504
783.499
783.494
783.489
783.484
783.479
783.474
783.468
783.465
783.46
783.455
783.45
783.446
783.442
783.437
783.433
783.428
783.425
783.42
783.416
783.412
783.408
783.405
783.4
783.397
783.394
783.391
783.387
783.384
783.38
783.377
783.374
783.371
783.368
783.365
783.362
783.359
783.357
783.354
783.352
783.349
783.347
783.344
783.341
783.338
783.335
783.331
783.327
783.322
783.318
783.316
783.317
783.317
783.317
783.307
783.287
783.261
783.224
783.171
783.122
783.083
783.049
783.018
782.991
782.973
782.974
783.009
783.063
783.113
783.159
783.196
783.225
783.244
783.256
783.261
783.261
783.258
783.254
783.25
783.247
783.245
783.243
783.242
783.241
783.241
783.241
783.241
783.241
783.241
783.241
783.241
783.24
783.24
783.24
783.24
783.239
783.24
783.239
783.239
783.239
783.238
783.238
783.238
783.238
783.238
783.237
783.237
783.238
783.238
783.237
783.237
783.237
783.237
783.237
783.238
783.237
783.238
783.238
783.238
783.238
783.238
783.238
783.238
783.239
783.239
783.239
783.239
783.239
783.24
783.24
783.24
783.24
783.24
783.241
783.241
783.241
783.241
783.242
783.242
783.243
783.243
783.244
783.244
783.244
783.244
783.244
783.246
783.244
783.247
783.244
783.248
783.246
783.249
783.245
783.251
783.246
783.251
783.246
783.251
783.247
783.253
783.248
783.252
783.248
783.251
783.251
783.704
783.698
783.69
783.682
783.674
783.666
783.658
783.646
783.635
783.625
783.616
783.609
783.601
783.593
783.586
783.578
783.571
783.564
783.557
783.55
783.543
783.536
783.53
783.524
783.517
783.511
783.505
783.499
783.492
783.487
783.481
783.475
783.47
783.464
783.458
783.453
783.448
783.443
783.438
783.432
783.428
783.422
783.418
783.413
783.409
783.404
783.4
783.395
783.391
783.387
783.382
783.378
783.374
783.37
783.367
783.363
783.359
783.355
783.351
783.348
783.345
783.341
783.338
783.334
783.332
783.329
783.326
783.324
783.321
783.318
783.315
783.312
783.311
783.308
783.306
783.303
783.3
783.299
783.297
783.295
783.292
783.291
783.29
783.289
783.287
783.285
783.282
783.281
783.285
783.288
783.284
783.27
783.247
783.219
783.19
783.16
783.134
783.114
783.101
783.099
783.108
783.124
783.143
783.163
783.183
783.2
783.214
783.224
783.232
783.238
783.24
783.243
783.243
783.243
783.244
783.243
783.243
783.243
783.242
783.243
783.242
783.241
783.241
783.241
783.241
783.24
783.24
783.24
783.24
783.239
783.24
783.239
783.239
783.239
783.238
783.238
783.238
783.238
783.238
783.237
783.237
783.238
783.238
783.237
783.237
783.237
783.237
783.237
783.238
783.237
783.238
783.238
783.238
783.238
783.238
783.238
783.238
783.239
783.239
783.239
783.239
783.239
783.24
783.24
783.24
783.24
783.24
783.241
783.241
783.241
783.241
783.242
783.242
783.243
783.243
783.244
783.244
783.244
783.244
783.245
783.245
783.245
783.245
783.246
783.246
783.246
783.248
783.247
783.247
783.249
783.247
783.25
783.248
783.249
783.251
783.249
783.252
783.25
783.251
783.25
783.723
783.729
783.734
783.739
783.742
783.742
783.741
783.739
783.737
783.733
783.728
783.722
783.717
783.71
783.704
783.696
783.689
783.683
783.676
783.668
783.663
783.656
783.65
783.643
783.637
783.631
783.625
783.619
783.612
783.607
783.601
783.595
783.59
783.585
783.579
783.573
783.568
783.563
783.558
783.553
783.548
783.542
783.538
783.533
783.528
783.524
783.519
783.514
783.51
783.506
783.502
783.498
783.493
783.489
783.485
783.48
783.476
783.472
783.468
783.464
783.461
783.457
783.452
783.448
783.443
783.44
783.435
783.43
783.426
783.422
783.418
783.413
783.409
783.403
783.398
783.393
783.388
783.382
783.378
783.373
783.371
783.37
783.368
783.365
783.361
783.351
783.334
783.311
783.286
783.259
783.232
783.208
783.19
783.177
783.163
783.151
783.144
783.143
783.145
783.152
783.161
783.175
783.19
783.206
783.219
783.229
783.237
783.243
783.245
783.248
783.249
783.25
783.25
783.249
783.249
783.248
783.248
783.247
783.246
783.245
783.244
783.243
783.244
783.242
783.242
783.242
783.24
783.24
783.24
783.239
783.24
783.239
783.239
783.239
783.238
783.238
783.238
783.238
783.238
783.237
783.237
783.238
783.238
783.237
783.237
783.237
783.237
783.237
783.238
783.237
783.238
783.238
783.238
783.238
783.238
783.238
783.238
783.239
783.239
783.239
783.239
783.239
783.24
783.24
783.24
783.24
783.24
783.241
783.241
783.241
783.241
783.242
783.242
783.243
783.243
783.244
783.243
783.245
783.244
783.245
783.244
783.246
783.244
783.248
783.244
783.249
783.245
783.25
783.245
783.25
783.246
783.251
783.247
783.252
783.247
783.253
783.249
783.252
783.249
783.253
783.671
783.654
783.639
783.628
783.619
783.61
783.602
783.593
783.585
783.576
783.567
783.559
783.55
783.543
783.536
783.529
783.521
783.515
783.508
783.5
783.493
783.487
783.48
783.472
783.465
783.459
783.451
783.446
783.439
783.434
783.427
783.422
783.416
783.41
783.404
783.4
783.394
783.389
783.384
783.379
783.374
783.37
783.365
783.36
783.355
783.351
783.346
783.342
783.337
783.334
783.329
783.325
783.321
783.317
783.313
783.31
783.306
783.302
783.298
783.294
783.291
783.288
783.284
783.281
783.278
783.275
783.272
783.269
783.267
783.264
783.261
783.258
783.255
783.252
783.25
783.248
783.246
783.244
783.241
783.239
783.238
783.236
783.234
783.231
783.229
783.229
783.229
783.229
783.227
783.225
783.224
783.222
783.223
783.229
783.241
783.246
783.243
783.232
783.21
783.18
783.149
783.124
783.116
783.127
783.153
783.177
783.198
783.215
783.227
783.235
783.24
783.244
783.246
783.248
783.248
783.248
783.248
783.247
783.246
783.246
783.244
783.244
783.243
783.243
783.242
783.242
783.24
783.241
783.24
783.239
783.24
783.239
783.239
783.239
783.238
783.238
783.238
783.238
783.238
783.237
783.237
783.238
783.238
783.237
783.237
783.237
783.237
783.237
783.238
783.237
783.238
783.238
783.238
783.238
783.238
783.238
783.238
783.239
783.239
783.239
783.239
783.239
783.24
783.24
783.24
783.24
783.24
783.241
783.241
783.241
783.241
783.242
783.242
783.243
783.243
783.244
783.243
783.245
783.244
783.245
783.244
783.246
783.244
783.248
783.244
783.249
783.245
783.25
783.245
783.25
783.246
783.251
783.247
783.252
783.247
783.252
783.248
783.251
783.252
783.252
783.658
783.663
783.672
783.682
783.692
783.699
783.706
783.712
783.716
783.717
783.717
783.715
783.711
783.705
783.699
783.692
783.685
783.679
783.672
783.665
783.658
783.652
783.645
783.639
783.632
783.626
783.62
783.614
783.608
783.603
783.597
783.591
783.585
783.579
783.573
783.568
783.562
783.556
783.55
783.545
783.54
783.534
783.529
783.523
783.518
783.514
783.51
783.505
783.5
783.495
783.492
783.487
783.483
783.479
783.475
783.472
783.468
783.465
783.461
783.458
783.454
783.451
783.447
783.443
783.439
783.435
783.432
783.428
783.423
783.417
783.413
783.408
783.403
783.397
783.392
783.387
783.383
783.38
783.379
783.377
783.374
783.372
783.371
783.371
783.369
783.367
783.362
783.353
783.338
783.318
783.296
783.274
783.251
783.229
783.211
783.192
783.176