/*--------------------------------*- C++ -*----------------------------------*\
| =========                 |                                                 |
| \\      /  F ield         | OpenFOAM: The Open Source CFD Toolbox           |
|  \\    /   O peration     | Version:  3.0.x                                 |
|   \\  /    A nd           | Web:      www.OpenFOAM.org                      |
|    \\/     M anipulation  |                                                 |
\*---------------------------------------------------------------------------*/
FoamFile
{
    version     2.0;
    format      ascii;
    class       surfaceScalarField;
    location    "0.34995";
    object      phi;
}
// * * * * * * * * * * * * * * * * * * * * * * * * * * * * * * * * * * * * * //

dimensions      [1 0 -1 0 0 0 0];

internalField   nonuniform List<scalar> 
26210
(
6.98859
0.000504181
6.98823
0.000347442
6.98788
0.000340312
6.98752
0.000342065
6.98717
0.000342086
6.98681
0.000341993
6.98646
0.000341988
6.9861
0.000341972
6.98575
0.000341968
6.98539
0.00034196
6.98504
0.000341951
6.98469
0.000341941
6.98433
0.000341931
6.98398
0.000341921
6.98363
0.000341909
6.98328
0.000341892
6.98292
0.000341855
6.98257
0.000341893
6.98222
0.000341847
6.98187
0.000341815
6.98152
0.000341792
6.98117
0.000341783
6.98082
0.000341652
6.98046
0.000342494
6.9801
0.000341197
6.97974
0.000341745
6.97939
0.000341755
6.97904
0.00034172
6.97869
0.000341734
6.97835
0.000341715
6.97802
0.00034201
6.97769
0.000341865
6.97736
0.000341901
6.97703
0.000341933
6.97669
0.000341963
6.97635
0.00034199
6.976
0.000342012
6.97566
0.00034203
6.97532
0.000342042
6.97497
0.00034205
6.97463
0.000342053
6.97428
0.000342002
6.97394
0.000342016
6.97359
0.000342067
6.97323
0.000342145
6.97288
0.000342052
6.97253
0.000342051
6.97219
0.000342053
6.97185
0.000341866
6.97151
0.000342003
6.97118
0.000342645
6.97086
0.000341796
6.97053
0.000342128
6.9702
0.000342156
6.96986
0.000342185
6.96952
0.000342216
6.96918
0.000342249
6.96884
0.000342281
6.96851
0.000342256
6.96817
0.000342151
6.96785
0.000343836
6.96753
0.000341213
6.96721
0.000342436
6.96688
0.000342484
6.96655
0.000342512
6.96622
0.00034254
6.96589
0.000342566
6.96556
0.000342588
6.96522
0.000342605
6.96489
0.000342617
6.96455
0.000342622
6.96421
0.00034262
6.96387
0.000342651
6.96353
0.000342544
6.96317
0.000342529
6.96282
0.000342452
6.96248
0.000342331
6.96213
0.000342171
6.96179
0.0003419
6.96145
0.000341421
6.96112
0.000341184
6.96079
0.000342001
6.96047
0.000339125
6.96015
0.000339183
6.95983
0.000338096
6.9595
0.000336725
6.95918
0.000335032
6.95886
0.000332961
6.95854
0.000330458
6.95822
0.000327467
6.9579
0.000323931
6.95758
0.000319795
6.95727
0.00031501
6.95697
0.000309531
6.95667
0.000303323
6.95638
0.000296361
6.9561
0.000288632
6.95582
0.000280136
6.95556
0.00027089
6.9553
0.000260926
6.95506
0.00025029
6.95483
0.000239046
6.9546
0.000227271
6.95439
0.000215055
6.9542
0.000202497
6.95401
0.000189706
6.95384
0.000176794
6.95368
0.000163878
6.95353
0.000151072
6.95339
0.000138485
6.95327
0.000126236
6.95316
0.000114364
6.95305
0.000103026
6.95296
9.22546e-05
6.95288
8.21072e-05
6.9528
7.263e-05
6.95273
6.38514e-05
6.95267
5.57779e-05
6.95262
4.84408e-05
6.95257
4.17872e-05
6.95253
3.58239e-05
6.95249
3.05155e-05
6.95246
2.58272e-05
6.95243
2.17146e-05
6.9524
1.81668e-05
6.95238
1.50715e-05
6.95235
1.24317e-05
6.95233
1.01873e-05
6.95231
8.29303e-06
6.95229
6.70634e-06
6.95228
5.38673e-06
6.95226
4.29717e-06
6.95224
3.40402e-06
6.95223
2.67698e-06
6.95221
2.08941e-06
6.9522
1.61787e-06
6.95218
1.2422e-06
6.95217
9.45181e-07
6.95216
7.11878e-07
6.95214
5.29873e-07
6.95213
3.8882e-07
6.95211
2.80423e-07
6.9521
1.97848e-07
6.95209
1.35502e-07
6.95207
8.87958e-08
6.95206
5.40585e-08
6.95204
2.83944e-08
6.95203
9.52241e-09
6.95201
-4.24552e-09
6.952
-1.42154e-08
6.95198
-2.14295e-08
6.95197
-2.66755e-08
6.95196
-3.05354e-08
6.95194
-3.33621e-08
6.95193
-3.54448e-08
6.95192
-3.70037e-08
6.9519
-3.81733e-08
6.95189
-3.90719e-08
6.95188
-3.97249e-08
6.95187
-4.01651e-08
6.95186
-4.0447e-08
6.95185
-4.0578e-08
6.95184
-4.05998e-08
6.95183
-4.05471e-08
6.95183
-4.0427e-08
6.95182
-4.02088e-08
6.95181
-3.98868e-08
6.9518
-3.95121e-08
6.9518
-3.91192e-08
6.95179
-3.8719e-08
6.95178
-3.82934e-08
6.95177
-3.7795e-08
6.95177
-3.72129e-08
6.95176
-3.66053e-08
6.95175
-3.59396e-08
6.95175
-3.52211e-08
6.95174
-3.44717e-08
6.95173
-3.3644e-08
6.95172
-3.27855e-08
6.95172
-3.19797e-08
6.95171
-3.13084e-08
6.9517
-3.09792e-08
6.9517
-2.92748e-08
6.95169
-2.92821e-08
6.95169
-3.63852e-08
6.95168
2.42162e-08
6.95168
-6.136e-08
6.95168
-3.27946e-08
6.95168
2.37196e-08
6.95168
1.52062e-07
6.95168
8.10851e-07
6.95167
4.10392e-06
6.95166
1.98637e-05
6.95157
9.63042e-05
6.95111
0.000465021
6.94888
0.00223611
6.93859
0.0103092
6.89161
0.0469934
6.65851
0.233112
0.912989
5.74554
9.88435
0.00046002
9.88435
0.000330525
9.88435
0.000315559
9.88435
0.000319248
9.88435
0.000319381
9.88436
0.000319182
9.88436
0.000319212
9.88436
0.000319218
9.88436
0.000319245
9.88437
0.000319261
9.88437
0.000319275
9.88438
0.00031929
9.88438
0.000319305
9.88439
0.000319318
9.88439
0.000319331
9.8844
0.000319347
9.8844
0.000319316
9.88441
0.000319388
9.88442
0.000319367
9.88442
0.000319358
9.88443
0.000319362
9.88444
0.000319378
9.88445
0.000319294
9.88444
0.000320034
9.88444
0.000318945
9.88444
0.000319425
9.88444
0.000319468
9.88445
0.000319458
9.88446
0.0003195
9.88448
0.000319504
9.88452
0.000319789
9.88456
0.000319687
9.88459
0.000319745
9.88462
0.000319798
9.88465
0.00031985
9.88467
0.000319898
9.88469
0.000319942
9.8847
0.000319982
9.88472
0.000320017
9.88474
0.000320047
9.88475
0.000320074
9.88477
0.000320054
9.88478
0.000320089
9.88479
0.000320148
9.88479
0.000320254
9.8848
0.00032019
9.88481
0.000320212
9.88483
0.000320237
9.88485
0.000320093
9.88487
0.000320244
9.88492
0.000320809
9.88496
0.000320135
9.885
0.000320425
9.88503
0.000320476
9.88506
0.000320527
9.88508
0.00032058
9.88511
0.000320634
9.88513
0.000320688
9.88516
0.000320689
9.88519
0.000320635
9.88523
0.000322167
9.88528
0.000319824
9.88533
0.000320933
9.88537
0.000321021
9.88541
0.000321069
9.88545
0.000321119
9.88548
0.000321166
9.88552
0.00032121
9.88555
0.000321249
9.88558
0.000321283
9.88561
0.00032131
9.88563
0.000321329
9.88565
0.000321386
9.88567
0.000321304
9.88568
0.000321293
9.88568
0.000321253
9.88569
0.000321151
9.88571
0.000321014
9.88573
0.000320771
9.88575
0.000320337
9.88578
0.000320113
9.88582
0.000320799
9.88586
0.000318203
9.88591
0.00031817
9.88595
0.000317126
9.88599
0.000315793
9.88602
0.000314145
9.88606
0.000312128
9.88609
0.00030969
9.88612
0.000306778
9.88615
0.000303338
9.88617
0.000299319
9.8862
0.000294675
9.88622
0.000289366
9.88625
0.00028336
9.88627
0.000276637
9.8863
0.000269187
9.88632
0.000261015
9.88635
0.000252139
9.88637
0.000242594
9.8864
0.000232428
9.88642
0.000221706
9.88644
0.000210502
9.88646
0.000198906
9.88648
0.000187015
9.8865
0.000174931
9.88652
0.000162765
9.88654
0.000150624
9.88655
0.000138616
9.88657
0.000126844
9.88658
0.000115416
9.88659
0.000104369
9.8866
9.38451e-05
9.8866
8.38728e-05
9.88661
7.45021e-05
9.88661
6.57732e-05
9.88661
5.77076e-05
9.88661
5.03108e-05
9.88661
4.36018e-05
9.8866
3.75347e-05
9.8866
3.21179e-05
9.88659
2.72955e-05
9.88658
2.30549e-05
9.88657
1.93451e-05
9.88655
1.61489e-05
9.88654
1.3368e-05
9.88652
1.10041e-05
9.88651
8.99809e-06
9.88649
7.30927e-06
9.88647
5.89825e-06
9.88646
4.72759e-06
9.88644
3.76336e-06
9.88642
2.97494e-06
9.8864
2.33469e-06
9.88638
1.81854e-06
9.88636
1.40527e-06
9.88634
1.07678e-06
9.88632
8.17692e-07
9.8863
6.146e-07
9.88628
4.56457e-07
9.88626
3.34136e-07
9.88624
2.40298e-07
9.88622
1.68917e-07
9.8862
1.15138e-07
9.88618
7.49224e-08
9.88616
4.50545e-08
9.88613
2.3043e-08
9.88611
6.89397e-09
9.88609
-4.88399e-09
9.88607
-1.34478e-08
9.88604
-1.96651e-08
9.88602
-2.42126e-08
9.886
-2.75795e-08
9.88598
-3.00533e-08
9.88596
-3.1896e-08
9.88594
-3.32875e-08
9.88592
-3.43316e-08
9.88591
-3.51465e-08
9.88589
-3.5745e-08
9.88587
-3.61597e-08
9.88586
-3.64307e-08
9.88584
-3.6569e-08
9.88583
-3.66053e-08
9.88582
-3.65708e-08
9.8858
-3.64744e-08
9.88579
-3.62979e-08
9.88578
-3.60124e-08
9.88577
-3.56795e-08
9.88575
-3.5323e-08
9.88574
-3.49537e-08
9.88573
-3.45499e-08
9.88572
-3.40679e-08
9.88571
-3.35094e-08
9.8857
-3.28964e-08
9.88568
-3.22343e-08
9.88567
-3.15085e-08
9.88566
-3.07391e-08
9.88565
-2.99315e-08
9.88564
-2.90875e-08
9.88563
-2.83489e-08
9.88561
-2.80143e-08
9.8856
-2.84454e-08
9.88559
-2.5555e-08
9.88559
-2.68319e-08
9.88558
-4.53892e-08
9.88557
9.8069e-08
9.88556
-1.06114e-07
9.88556
-3.98177e-08
9.88556
9.39744e-08
9.88555
4.03366e-07
9.88555
1.99208e-06
9.88555
9.90196e-06
9.88553
4.80294e-05
9.8854
0.000232538
9.88475
0.0011228
9.8816
0.00539883
9.867
0.0249176
9.80044
0.113576
9.47748
0.556099
2.10836
8.28213
13.9786
0.000401482
13.9786
0.000303657
13.9786
0.000281379
13.9786
0.000286636
13.9786
0.000287002
13.9786
0.000286671
13.9786
0.000286714
13.9786
0.00028672
13.9786
0.000286756
13.9786
0.00028677
13.9786
0.000286783
13.9786
0.000286798
13.9786
0.000286812
13.9786
0.000286825
13.9786
0.000286837
13.9787
0.000286863
13.9787
0.000286812
13.9787
0.000286891
13.9787
0.000286871
13.9787
0.000286861
13.9787
0.000286867
13.9787
0.000286884
13.9787
0.000286826
13.9787
0.000287407
13.9787
0.000286548
13.9787
0.000286914
13.9787
0.000286963
13.9787
0.000286955
13.9788
0.000286997
13.9788
0.000287
13.9788
0.00028724
13.9789
0.00028716
13.9789
0.000287213
13.979
0.00028726
13.979
0.000287306
13.9791
0.00028735
13.9791
0.00028739
13.9791
0.000287425
13.9791
0.000287457
13.9792
0.000287484
13.9792
0.000287507
13.9792
0.000287496
13.9792
0.000287524
13.9792
0.000287566
13.9792
0.000287671
13.9793
0.000287614
13.9793
0.000287633
13.9793
0.000287653
13.9793
0.000287533
13.9794
0.000287667
13.9794
0.000288109
13.9795
0.000287612
13.9795
0.000287822
13.9796
0.000287869
13.9796
0.000287915
13.9797
0.000287963
13.9797
0.000288011
13.9797
0.000288059
13.9798
0.000288061
13.9798
0.000288037
13.9799
0.000289338
13.98
0.000287332
13.98
0.00028826
13.9801
0.000288361
13.9802
0.000288402
13.9802
0.000288448
13.9803
0.00028849
13.9803
0.00028853
13.9804
0.000288565
13.9804
0.000288596
13.9804
0.000288621
13.9805
0.000288638
13.9805
0.000288696
13.9805
0.00028862
13.9806
0.000288593
13.9806
0.000288573
13.9806
0.000288478
13.9806
0.000288358
13.9806
0.00028814
13.9807
0.000287763
13.9807
0.000287564
13.9808
0.000288104
13.9808
0.000285902
13.9809
0.000285806
13.981
0.000284884
13.981
0.000283692
13.9811
0.000282218
13.9811
0.000280413
13.9812
0.000278232
13.9812
0.000275626
13.9813
0.000272546
13.9813
0.000268948
13.9813
0.00026479
13.9814
0.000260035
13.9814
0.000254655
13.9814
0.000248631
13.9815
0.000241955
13.9815
0.00023463
13.9816
0.000226673
13.9816
0.000218114
13.9816
0.000208997
13.9816
0.000199379
13.9817
0.000189327
13.9817
0.000178921
13.9817
0.000168247
13.9818
0.000157399
13.9818
0.000146474
13.9818
0.000135569
13.9818
0.000124782
13.9818
0.000114204
13.9818
0.000103933
13.9819
9.40029e-05
13.9819
8.45399e-05
13.9819
7.55711e-05
13.9819
6.71411e-05
13.9819
5.92872e-05
13.9819
5.20281e-05
13.9819
4.53675e-05
13.9819
3.93281e-05
13.9818
3.38631e-05
13.9818
2.89815e-05
13.9818
2.46375e-05
13.9818
2.08141e-05
13.9818
1.74691e-05
13.9818
1.45865e-05
13.9817
1.20779e-05
13.9817
9.94474e-06
13.9817
8.13396e-06
13.9817
6.60905e-06
13.9817
5.33476e-06
13.9816
4.27717e-06
13.9816
3.40578e-06
13.9816
2.69312e-06
13.9815
2.11418e-06
13.9815
1.64734e-06
13.9815
1.27343e-06
13.9815
9.76117e-07
13.9814
7.41572e-07
13.9814
5.57657e-07
13.9814
4.14365e-07
13.9813
3.03537e-07
13.9813
2.18497e-07
13.9813
1.53746e-07
13.9813
1.0498e-07
13.9812
6.84945e-08
13.9812
4.13643e-08
13.9812
2.13663e-08
13.9811
6.7057e-09
13.9811
-4.02042e-09
13.9811
-1.18157e-08
13.981
-1.74673e-08
13.981
-2.161e-08
13.981
-2.46773e-08
13.981
-2.69151e-08
13.9809
-2.86009e-08
13.9809
-2.98687e-08
13.9809
-3.0811e-08
13.9808
-3.15572e-08
13.9808
-3.20961e-08
13.9808
-3.24676e-08
13.9808
-3.27209e-08
13.9808
-3.28455e-08
13.9807
-3.28814e-08
13.9807
-3.28446e-08
13.9807
-3.27509e-08
13.9807
-3.26095e-08
13.9807
-3.23462e-08
13.9806
-3.20479e-08
13.9806
-3.17341e-08
13.9806
-3.13962e-08
13.9806
-3.10333e-08
13.9806
-3.0594e-08
13.9806
-3.01015e-08
13.9805
-2.95422e-08
13.9805
-2.89533e-08
13.9805
-2.83126e-08
13.9805
-2.75923e-08
13.9805
-2.69074e-08
13.9805
-2.61844e-08
13.9804
-2.56387e-08
13.9804
-2.58665e-08
13.9804
-2.74963e-08
13.9804
-2.29052e-08
13.9804
-2.60306e-08
13.9804
-6.20153e-08
13.9804
1.9571e-07
13.9804
-1.68855e-07
13.9804
-5.12305e-08
13.9804
1.87588e-07
13.9803
7.45812e-07
13.9803
3.60771e-06
13.9803
1.78494e-05
13.9803
8.66448e-05
13.9801
0.000419352
13.9792
0.00202494
13.9749
0.00973755
13.9549
0.0449807
13.8637
0.20481
13.4274
0.992417
3.67718
11.8586
61.7044
0.000184725
61.7044
0.000159386
61.7044
0.000139581
61.7044
0.000142702
61.7044
0.000143849
61.7044
0.000143503
61.7045
0.000143413
61.7045
0.000143427
61.7045
0.000143433
61.7045
0.000143426
61.7045
0.000143424
61.7046
0.000143426
61.7046
0.000143428
61.7046
0.000143431
61.7047
0.000143435
61.7047
0.000143456
61.7048
0.000143405
61.7048
0.000143453
61.7049
0.000143444
61.7049
0.000143433
61.705
0.000143439
61.705
0.00014345
61.705
0.000143438
61.705
0.000143615
61.705
0.000143358
61.705
0.000143447
61.705
0.000143482
61.7051
0.00014348
61.7052
0.000143505
61.7053
0.000143507
61.7055
0.000143605
61.7058
0.00014358
61.706
0.000143608
61.7062
0.00014363
61.7064
0.000143654
61.7065
0.000143676
61.7066
0.000143696
61.7067
0.000143714
61.7068
0.000143729
61.707
0.000143743
61.7071
0.000143754
61.7072
0.000143756
61.7073
0.000143766
61.7073
0.00014377
61.7073
0.000143836
61.7074
0.000143808
61.7075
0.000143815
61.7076
0.000143824
61.7077
0.000143774
61.7079
0.000143838
61.7081
0.00014399
61.7084
0.000143854
61.7087
0.00014391
61.7089
0.000143933
61.7091
0.000143956
61.7092
0.00014398
61.7094
0.000144004
61.7096
0.000144027
61.7097
0.000144031
61.7099
0.000144048
61.7102
0.000144593
61.7105
0.000143735
61.7109
0.000144104
61.7111
0.000144181
61.7114
0.0001442
61.7116
0.000144224
61.7118
0.000144245
61.7121
0.000144265
61.7123
0.000144283
61.7125
0.000144298
61.7127
0.00014431
61.7128
0.00014432
61.713
0.000144358
61.7131
0.000144316
61.7131
0.000144282
61.7132
0.000144292
61.7133
0.000144241
61.7134
0.000144183
61.7135
0.000144076
61.7137
0.000143905
61.7139
0.000143806
61.7141
0.000143981
61.7144
0.000143048
61.7147
0.000142918
61.715
0.000142474
61.7152
0.000141887
61.7155
0.00014116
61.7157
0.000140269
61.7159
0.00013919
61.7161
0.000137901
61.7162
0.000136377
61.7164
0.000134595
61.7166
0.000132534
61.7168
0.000130176
61.7169
0.000127507
61.7171
0.000124516
61.7172
0.000121199
61.7174
0.000117557
61.7175
0.000113599
61.7177
0.000109339
61.7178
0.000104799
61.7179
0.000100005
61.7181
9.49931e-05
61.7182
8.9801e-05
61.7183
8.44724e-05
61.7184
7.90535e-05
61.7185
7.35929e-05
61.7186
6.81394e-05
61.7187
6.27413e-05
61.7188
5.74454e-05
61.7188
5.22983e-05
61.7189
4.73223e-05
61.7189
4.25752e-05
61.7189
3.80742e-05
61.7189
3.38411e-05
61.7189
2.98956e-05
61.7189
2.62465e-05
61.7189
2.28944e-05
61.7189
1.98577e-05
61.7188
1.71061e-05
61.7188
1.46447e-05
61.7187
1.24565e-05
61.7187
1.05277e-05
61.7186
8.83957e-06
61.7185
7.38395e-06
61.7184
6.11722e-06
61.7183
5.03903e-06
61.7182
4.12324e-06
61.7181
3.35164e-06
61.718
2.70679e-06
61.7179
2.17114e-06
61.7178
1.72959e-06
61.7176
1.36833e-06
61.7175
1.07469e-06
61.7174
8.37877e-07
61.7173
6.48094e-07
61.7171
4.97012e-07
61.717
3.77957e-07
61.7169
2.84426e-07
61.7168
2.11473e-07
61.7167
1.55113e-07
61.7165
1.11859e-07
61.7164
7.87568e-08
61.7163
5.39219e-08
61.7161
3.5312e-08
61.716
2.13925e-08
61.7159
1.12077e-08
61.7157
3.72734e-09
61.7156
-1.7119e-09
61.7154
-5.68753e-09
61.7153
-8.54425e-09
61.7152
-1.06693e-08
61.715
-1.22614e-08
61.7149
-1.33666e-08
61.7148
-1.4255e-08
61.7147
-1.4915e-08
61.7145
-1.53641e-08
61.7144
-1.57695e-08
61.7143
-1.60451e-08
61.7142
-1.62067e-08
61.7141
-1.63641e-08
61.714
-1.64287e-08
61.714
-1.64468e-08
61.7139
-1.6413e-08
61.7138
-1.63466e-08
61.7137
-1.63334e-08
61.7136
-1.6187e-08
61.7136
-1.59896e-08
61.7135
-1.58745e-08
61.7134
-1.56929e-08
61.7133
-1.55042e-08
61.7133
-1.53316e-08
61.7132
-1.50201e-08
61.7131
-1.47738e-08
61.7131
-1.44846e-08
61.713
-1.41251e-08
61.7129
-1.38261e-08
61.7128
-1.34862e-08
61.7128
-1.33714e-08
61.7127
-1.37659e-08
61.7126
-1.62242e-08
61.7126
-2.3731e-08
61.7125
-1.04774e-08
61.7124
-2.39784e-08
61.7124
-1.48167e-07
61.7123
4.87021e-07
61.7123
-3.04516e-07
61.7123
-1.01472e-07
61.7123
5.65914e-07
61.7122
2.08943e-06
61.7122
9.90997e-06
61.7122
5.00696e-05
61.7121
0.000236396
61.7114
0.00114987
61.7079
0.00555375
61.6911
0.0266812
61.6129
0.123246
61.264
0.553852
59.8105
2.44606
8.79213
54.6957
61.7043
-2.04636e-12
61.7044
-2.95586e-12
61.7044
2.27374e-13
61.7044
-9.09495e-13
61.7044
-9.09495e-13
61.7044
1.13687e-12
61.7044
0
61.7044
1.13687e-12
61.7045
1.81899e-12
61.7045
1.59162e-12
61.7045
0
61.7045
6.82121e-13
61.7046
1.13687e-12
61.7046
2.27374e-12
61.7046
6.82121e-13
61.7047
-2.27374e-13
61.7047
2.27374e-13
61.7048
-4.54747e-13
61.7048
-9.09495e-13
61.7049
2.27374e-13
61.7049
0
61.705
0
61.705
-2.27374e-13
61.705
2.27374e-13
61.705
2.27374e-13
61.705
2.27374e-12
61.705
6.82121e-13
61.7051
2.27374e-13
61.7051
4.54747e-13
61.7053
-1.13687e-12
61.7055
-1.13687e-12
61.7058
-4.54747e-13
61.706
-1.81899e-12
61.7062
-1.13687e-12
61.7063
0
61.7065
1.13687e-12
61.7066
-4.54747e-13
61.7067
0
61.7068
-4.54747e-13
61.7069
1.59162e-12
61.707
-1.36424e-12
61.7071
-1.81899e-12
61.7072
-4.54747e-13
61.7073
0
61.7073
-6.82121e-13
61.7074
9.09495e-13
61.7074
-1.36424e-12
61.7076
-9.09495e-13
61.7077
1.13687e-12
61.7079
1.59162e-12
61.7081
6.82121e-13
61.7084
0
61.7086
-1.81899e-12
61.7089
-9.09495e-13
61.709
0
61.7092
1.13687e-12
61.7094
-1.13687e-12
61.7095
-2.27374e-13
61.7097
-1.81899e-12
61.7099
-4.54747e-13
61.7102
1.59162e-12
61.7105
6.82121e-13
61.7108
4.54747e-13
61.7111
2.27374e-12
61.7114
-4.54747e-13
61.7116
-6.82121e-13
61.7118
-1.36424e-12
61.7121
-1.36424e-12
61.7123
-1.13687e-12
61.7125
1.36424e-12
61.7126
6.82121e-13
61.7128
-4.54747e-13
61.713
2.27374e-13
61.7131
4.54747e-13
61.7131
4.54747e-13
61.7132
6.82121e-13
61.7133
4.54747e-13
61.7134
0
61.7135
-1.13687e-12
61.7137
9.09495e-13
61.7138
4.54747e-13
61.7141
-2.27374e-13
61.7144
-3.63798e-12
61.7147
6.82121e-13
61.7149
2.27374e-12
61.7152
0
61.7154
-2.27374e-13
61.7157
1.13687e-12
61.7159
9.09495e-13
61.716
-1.36424e-12
61.7162
0
61.7164
4.54747e-13
61.7166
0
61.7167
-1.36424e-12
61.7169
-2.27374e-12
61.7171
-6.82121e-13
61.7172
-2.27374e-13
61.7174
9.09495e-13
61.7175
6.82121e-13
61.7177
2.27374e-13
61.7178
-1.36424e-12
61.7179
-6.82121e-13
61.7181
-2.95586e-12
61.7182
-2.04636e-12
61.7183
-1.13687e-12
61.7184
-6.82121e-13
61.7185
1.13687e-12
61.7186
9.09495e-13
61.7187
1.36424e-12
61.7187
6.82121e-13
61.7188
-2.27374e-13
61.7189
9.09495e-13
61.7189
-2.27374e-13
61.7189
-1.13687e-12
61.7189
-2.27374e-12
61.7189
-1.7053e-11
61.7189
3.05363e-10
61.7189
-3.33148e-09
61.7189
2.25805e-09
61.7188
9.5406e-10
61.7188
4.83396e-10
61.7187
-6.01631e-10
61.7187
-2.24645e-10
61.7186
5.3501e-10
61.7185
-2.21462e-10
61.7184
-6.86668e-11
61.7183
-5.59339e-11
61.7182
-4.3201e-11
61.7181
-1.35969e-10
61.718
1.33923e-10
61.7179
4.45652e-11
61.7178
1.68257e-11
61.7176
2.72848e-12
61.7175
-2.81943e-11
61.7174
1.68257e-11
61.7173
6.5711e-11
61.7171
-1.62117e-10
61.717
1.28694e-10
61.7169
6.13909e-12
61.7168
-6.00267e-11
61.7167
-2.20552e-11
61.7165
1.19371e-10
61.7164
-1.06411e-10
61.7163
9.77707e-12
61.7161
6.86668e-11
61.716
-4.97948e-11
61.7159
-1.61435e-11
61.7157
2.93312e-11
61.7156
-9.77707e-12
61.7154
-1.50067e-11
61.7153
2.59206e-11
61.7152
-7.04858e-12
61.715
-3.06954e-11
61.7149
4.84306e-11
61.7148
-5.45697e-12
61.7147
-6.00267e-11
61.7145
4.63842e-11
61.7144
3.41061e-11
61.7143
-4.79758e-11
61.7142
-1.13687e-11
61.7141
2.84217e-11
61.714
9.54969e-12
61.714
-2.91038e-11
61.7139
-3.04681e-11
61.7138
2.95586e-11
61.7137
3.29692e-11
61.7136
-7.27596e-12
61.7136
-1.40972e-11
61.7135
-1.04592e-11
61.7134
1.15961e-11
61.7133
7.27596e-12
61.7133
-1.27329e-11
61.7132
3.18323e-11
61.7131
2.50111e-12
61.7131
-1.15961e-11
61.713
-2.77396e-11
61.7129
-4.1382e-11
61.7128
-7.95808e-11
61.7128
-2.78305e-10
61.7127
-1.80739e-09
61.7126
-5.85601e-09
61.7126
-2.33319e-08
61.7125
1.01609e-08
61.7124
1.63072e-08
61.7124
-4.44993e-09
61.7123
2.25154e-07
61.7123
3.71838e-08
61.7123
-2.16163e-07
61.7123
5.86404e-07
61.7122
2.68037e-06
61.7122
1.20074e-05
61.7122
6.19738e-05
61.7122
0.000295604
61.712
0.00143009
61.7106
0.00692651
61.704
0.0333656
61.6713
0.156051
61.5131
0.712173
60.7573
3.20205
11.6549
57.8946
61.7043
-0.000184725
61.7044
-0.000159386
61.7044
-0.000139581
61.7044
-0.000142702
61.7044
-0.000143849
61.7044
-0.000143503
61.7044
-0.000143413
61.7044
-0.000143427
61.7045
-0.000143433
61.7045
-0.000143426
61.7045
-0.000143424
61.7045
-0.000143426
61.7046
-0.000143428
61.7046
-0.000143431
61.7046
-0.000143435
61.7047
-0.000143456
61.7047
-0.000143405
61.7048
-0.000143453
61.7048
-0.000143444
61.7049
-0.000143433
61.7049
-0.000143439
61.705
-0.00014345
61.705
-0.000143438
61.705
-0.000143615
61.705
-0.000143358
61.705
-0.000143447
61.705
-0.000143482
61.7051
-0.00014348
61.7051
-0.000143505
61.7053
-0.000143507
61.7055
-0.000143605
61.7058
-0.00014358
61.706
-0.000143608
61.7062
-0.00014363
61.7063
-0.000143654
61.7065
-0.000143676
61.7066
-0.000143696
61.7067
-0.000143714
61.7068
-0.000143729
61.7069
-0.000143743
61.707
-0.000143754
61.7071
-0.000143756
61.7072
-0.000143766
61.7073
-0.00014377
61.7073
-0.000143836
61.7074
-0.000143808
61.7074
-0.000143815
61.7076
-0.000143824
61.7077
-0.000143774
61.7079
-0.000143838
61.7081
-0.00014399
61.7084
-0.000143854
61.7086
-0.00014391
61.7089
-0.000143933
61.709
-0.000143956
61.7092
-0.00014398
61.7094
-0.000144004
61.7095
-0.000144027
61.7097
-0.000144031
61.7099
-0.000144048
61.7102
-0.000144593
61.7105
-0.000143735
61.7108
-0.000144104
61.7111
-0.000144181
61.7114
-0.0001442
61.7116
-0.000144224
61.7118
-0.000144245
61.7121
-0.000144265
61.7123
-0.000144283
61.7125
-0.000144298
61.7126
-0.00014431
61.7128
-0.00014432
61.713
-0.000144358
61.7131
-0.000144316
61.7131
-0.000144282
61.7132
-0.000144292
61.7133
-0.000144241
61.7134
-0.000144183
61.7135
-0.000144076
61.7137
-0.000143905
61.7138
-0.000143806
61.7141
-0.000143981
61.7144
-0.000143048
61.7147
-0.000142918
61.7149
-0.000142474
61.7152
-0.000141887
61.7154
-0.00014116
61.7157
-0.000140269
61.7159
-0.00013919
61.716
-0.000137901
61.7162
-0.000136377
61.7164
-0.000134595
61.7166
-0.000132534
61.7167
-0.000130176
61.7169
-0.000127507
61.7171
-0.000124516
61.7172
-0.000121199
61.7174
-0.000117557
61.7175
-0.000113599
61.7177
-0.000109339
61.7178
-0.000104799
61.7179
-0.000100005
61.7181
-9.49931e-05
61.7182
-8.9801e-05
61.7183
-8.44724e-05
61.7184
-7.90535e-05
61.7185
-7.35929e-05
61.7186
-6.81394e-05
61.7187
-6.27413e-05
61.7187
-5.74454e-05
61.7188
-5.22983e-05
61.7189
-4.73223e-05
61.7189
-4.25752e-05
61.7189
-3.80742e-05
61.7189
-3.38411e-05
61.7189
-2.98957e-05
61.7189
-2.62465e-05
61.7189
-2.28975e-05
61.7189
-1.98557e-05
61.7188
-1.71045e-05
61.7188
-1.46442e-05
61.7187
-1.24573e-05
61.7187
-1.05279e-05
61.7186
-8.83926e-06
61.7185
-7.38407e-06
61.7184
-6.11722e-06
61.7183
-5.03912e-06
61.7182
-4.12331e-06
61.7181
-3.3518e-06
61.718
-2.70663e-06
61.7179
-2.17107e-06
61.7178
-1.72957e-06
61.7176
-1.36832e-06
61.7175
-1.07473e-06
61.7174
-8.3785e-07
61.7173
-6.48024e-07
61.7171
-4.97213e-07
61.717
-3.77801e-07
61.7169
-2.84405e-07
61.7168
-2.11578e-07
61.7167
-1.5511e-07
61.7165
-1.11725e-07
61.7164
-7.88757e-08
61.7163
-5.39185e-08
61.7161
-3.52279e-08
61.716
-2.14625e-08
61.7159
-1.12241e-08
61.7157
-3.7021e-09
61.7156
1.70644e-09
61.7154
5.66547e-09
61.7153
8.56994e-09
61.7152
1.06818e-08
61.715
1.22127e-08
61.7149
1.34162e-08
61.7148
1.42554e-08
61.7147
1.48493e-08
61.7145
1.54214e-08
61.7144
1.57888e-08
61.7143
1.59953e-08
61.7142
1.62163e-08
61.7141
1.63811e-08
61.714
1.64207e-08
61.714
1.63955e-08
61.7139
1.64302e-08
61.7138
1.64191e-08
61.7137
1.62927e-08
61.7136
1.61549e-08
61.7136
1.60137e-08
61.7135
1.58802e-08
61.7134
1.57218e-08
61.7133
1.54992e-08
61.7133
1.52772e-08
61.7132
1.5058e-08
61.7131
1.47809e-08
61.7131
1.4496e-08
61.713
1.41279e-08
61.7129
1.37977e-08
61.7128
1.32395e-08
61.7128
1.28632e-08
61.7127
1.05342e-08
61.7126
6.13068e-09
61.7126
-3.07652e-08
61.7125
3.75903e-08
61.7124
2.16892e-09
61.7124
-1.70972e-07
61.7123
2.32015e-07
61.7123
1.93418e-07
61.7123
-1.64542e-07
61.7123
5.26472e-07
61.7122
2.18964e-06
61.7122
1.04487e-05
61.7123
4.90638e-05
61.7124
0.000238625
61.7127
0.00115898
61.714
0.00565929
61.7196
0.0277723
61.7457
0.130116
61.8412
0.616742
61.9958
3.04765
10.6951
62.9557
61.7044
-0.000401482
61.7044
-0.000303657
61.7044
-0.000281379
61.7044
-0.000286636
61.7044
-0.000287002
61.7044
-0.000286671
61.7045
-0.000286714
61.7045
-0.00028672
61.7045
-0.000286756
61.7045
-0.00028677
61.7045
-0.000286783
61.7046
-0.000286798
61.7046
-0.000286812
61.7046
-0.000286825
61.7047
-0.000286837
61.7047
-0.000286863
61.7048
-0.000286812
61.7048
-0.000286891
61.7049
-0.000286871
61.7049
-0.000286861
61.705
-0.000286867
61.705
-0.000286884
61.705
-0.000286826
61.705
-0.000287407
61.705
-0.000286548
61.705
-0.000286914
61.705
-0.000286963
61.7051
-0.000286955
61.7052
-0.000286997
61.7053
-0.000287
61.7055
-0.00028724
61.7058
-0.00028716
61.706
-0.000287213
61.7062
-0.00028726
61.7064
-0.000287306
61.7065
-0.00028735
61.7066
-0.00028739
61.7067
-0.000287425
61.7068
-0.000287457
61.707
-0.000287484
61.7071
-0.000287507
61.7072
-0.000287496
61.7073
-0.000287524
61.7073
-0.000287566
61.7073
-0.000287671
61.7074
-0.000287614
61.7075
-0.000287633
61.7076
-0.000287653
61.7077
-0.000287533
61.7079
-0.000287667
61.7081
-0.000288109
61.7084
-0.000287612
61.7087
-0.000287822
61.7089
-0.000287869
61.7091
-0.000287915
61.7092
-0.000287963
61.7094
-0.000288011
61.7096
-0.000288059
61.7097
-0.000288061
61.7099
-0.000288037
61.7102
-0.000289338
61.7105
-0.000287332
61.7109
-0.00028826
61.7111
-0.000288361
61.7114
-0.000288402
61.7116
-0.000288448
61.7118
-0.00028849
61.7121
-0.00028853
61.7123
-0.000288565
61.7125
-0.000288596
61.7127
-0.000288621
61.7128
-0.000288638
61.713
-0.000288696
61.7131
-0.00028862
61.7131
-0.000288593
61.7132
-0.000288573
61.7133
-0.000288478
61.7134
-0.000288358
61.7135
-0.00028814
61.7137
-0.000287763
61.7139
-0.000287564
61.7141
-0.000288104
61.7144
-0.000285902
61.7147
-0.000285806
61.715
-0.000284883
61.7152
-0.000283692
61.7155
-0.000282218
61.7157
-0.000280413
61.7159
-0.000278232
61.7161
-0.000275626
61.7162
-0.000272546
61.7164
-0.000268948
61.7166
-0.00026479
61.7168
-0.000260035
61.7169
-0.000254655
61.7171
-0.000248631
61.7172
-0.000241955
61.7174
-0.00023463
61.7175
-0.000226673
61.7177
-0.000218114
61.7178
-0.000208997
61.7179
-0.000199379
61.7181
-0.000189327
61.7182
-0.000178921
61.7183
-0.000168247
61.7184
-0.000157399
61.7185
-0.000146474
61.7186
-0.000135569
61.7187
-0.000124782
61.7188
-0.000114204
61.7188
-0.000103933
61.7189
-9.40029e-05
61.7189
-8.45399e-05
61.7189
-7.55711e-05
61.7189
-6.71412e-05
61.7189
-5.92872e-05
61.7189
-5.20283e-05
61.7189
-4.53677e-05
61.7189
-3.93281e-05
61.7188
-3.38625e-05
61.7188
-2.89814e-05
61.7187
-2.46378e-05
61.7187
-2.08142e-05
61.7186
-1.74689e-05
61.7185
-1.45866e-05
61.7184
-1.20779e-05
61.7183
-9.94477e-06
61.7182
-8.13399e-06
61.7181
-6.60908e-06
61.718
-5.33471e-06
61.7179
-4.27713e-06
61.7178
-3.40578e-06
61.7176
-2.69311e-06
61.7175
-2.11419e-06
61.7174
-1.64734e-06
61.7173
-1.27341e-06
61.7171
-9.76188e-07
61.717
-7.41523e-07
61.7169
-5.57644e-07
61.7168
-4.144e-07
61.7167
-3.0354e-07
61.7165
-2.18447e-07
61.7164
-1.53793e-07
61.7163
-1.04985e-07
61.7161
-6.84618e-08
61.716
-4.13888e-08
61.7159
-2.13813e-08
61.7157
-6.69888e-09
61.7156
4.01587e-09
61.7154
1.18093e-08
61.7153
1.7475e-08
61.7152
2.16164e-08
61.715
2.46646e-08
61.7149
2.69256e-08
61.7148
2.86e-08
61.7147
2.98469e-08
61.7145
3.08314e-08
61.7144
3.15563e-08
61.7143
3.20792e-08
61.7142
3.24753e-08
61.7141
3.27268e-08
61.714
3.28232e-08
61.714
3.28787e-08
61.7139
3.28782e-08
61.7138
3.27445e-08
61.7137
3.25849e-08
61.7136
3.23498e-08
61.7136
3.20588e-08
61.7135
3.17586e-08
61.7134
3.13958e-08
61.7133
3.0996e-08
61.7133
3.05972e-08
61.7132
3.01102e-08
61.7131
2.95481e-08
61.7131
2.89983e-08
61.713
2.82807e-08
61.7129
2.76418e-08
61.7128
2.67451e-08
61.7128
2.59583e-08
61.7127
2.29161e-08
61.7126
2.10375e-08
61.7126
-5.1125e-08
61.7125
8.80191e-08
61.7124
2.04886e-08
61.7124
1.56916e-07
61.7123
-2.35126e-07
61.7123
1.88562e-07
61.7123
-1.27208e-07
61.7123
3.09826e-07
61.7122
7.46754e-07
61.7122
3.88331e-06
61.7123
1.79296e-05
61.7125
8.71372e-05
61.7132
0.000423695
61.7169
0.00207512
61.7345
0.0102405
61.816
0.0486439
62.1883
0.244588
63.6011
1.63503
5.49594
68.8004
13.9786
-0.00046002
13.9786
-0.000330525
13.9786
-0.000315559
13.9786
-0.000319248
13.9786
-0.000319381
13.9786
-0.000319182
13.9786
-0.000319212
13.9786
-0.000319218
13.9786
-0.000319245
13.9786
-0.000319261
13.9786
-0.000319275
13.9786
-0.00031929
13.9786
-0.000319305
13.9786
-0.000319318
13.9786
-0.000319331
13.9787
-0.000319347
13.9787
-0.000319316
13.9787
-0.000319388
13.9787
-0.000319367
13.9787
-0.000319358
13.9787
-0.000319362
13.9787
-0.000319378
13.9787
-0.000319294
13.9787
-0.000320034
13.9787
-0.000318945
13.9787
-0.000319425
13.9787
-0.000319468
13.9787
-0.000319458
13.9788
-0.0003195
13.9788
-0.000319504
13.9788
-0.000319789
13.9789
-0.000319687
13.9789
-0.000319745
13.979
-0.000319798
13.979
-0.00031985
13.9791
-0.000319898
13.9791
-0.000319942
13.9791
-0.000319982
13.9791
-0.000320017
13.9792
-0.000320047
13.9792
-0.000320074
13.9792
-0.000320054
13.9792
-0.000320089
13.9792
-0.000320148
13.9792
-0.000320254
13.9793
-0.00032019
13.9793
-0.000320212
13.9793
-0.000320237
13.9793
-0.000320093
13.9794
-0.000320244
13.9794
-0.000320809
13.9795
-0.000320135
13.9795
-0.000320425