/*--------------------------------*- C++ -*----------------------------------*\
| =========                 |                                                 |
| \\      /  F ield         | OpenFOAM: The Open Source CFD Toolbox           |
|  \\    /   O peration     | Version:  3.0.x                                 |
|   \\  /    A nd           | Web:      www.OpenFOAM.org                      |
|    \\/     M anipulation  |                                                 |
\*---------------------------------------------------------------------------*/
FoamFile
{
    version     2.0;
    format      ascii;
    class       volVectorField;
    location    "0.21";
    object      U;
}
// * * * * * * * * * * * * * * * * * * * * * * * * * * * * * * * * * * * * * //

dimensions      [0 1 -1 0 0 0 0];

internalField   nonuniform List<vector> 
27600
(
(42.6849 0.000288203 0)
(42.67 0.000241518 0)
(42.655 0.00023835 0)
(42.64 0.000240679 0)
(42.625 0.000242919 0)
(42.6099 0.000244938 0)
(42.5949 0.000246765 0)
(42.5799 0.000248326 0)
(42.5649 0.000249687 0)
(42.5498 0.000250894 0)
(42.5348 0.000251973 0)
(42.5199 0.000252939 0)
(42.5049 0.000253781 0)
(42.4899 0.000254577 0)
(42.475 0.000255292 0)
(42.46 0.000255933 0)
(42.4451 0.000256497 0)
(42.4302 0.000256969 0)
(42.4153 0.000257366 0)
(42.4004 0.000257586 0)
(42.3855 0.000257568 0)
(42.3706 0.000257247 0)
(42.3559 0.000256545 0)
(42.3412 0.000255029 0)
(42.3266 0.000252801 0)
(42.3121 0.000249456 0)
(42.298 0.000244786 0)
(42.2841 0.000238568 0)
(42.2706 0.000230627 0)
(42.2577 0.000220858 0)
(42.2453 0.000209254 0)
(42.2336 0.000195933 0)
(42.2227 0.000181096 0)
(42.2127 0.000165079 0)
(42.2035 0.000148287 0)
(42.1953 0.000131166 0)
(42.188 0.000114188 0)
(42.1815 9.77846e-05 0)
(42.1759 8.2349e-05 0)
(42.171 6.81773e-05 0)
(42.1669 5.54808e-05 0)
(42.1632 4.43716e-05 0)
(42.1601 3.48745e-05 0)
(42.1573 2.69365e-05 0)
(42.1548 2.04465e-05 0)
(42.1524 1.52536e-05 0)
(42.1502 1.11861e-05 0)
(42.1481 8.06579e-06 0)
(42.1459 5.71967e-06 0)
(42.1437 3.99009e-06 0)
(42.1414 2.7406e-06 0)
(42.139 1.85594e-06 0)
(42.1365 1.24309e-06 0)
(42.1338 8.28201e-07 0)
(42.1309 5.54624e-07 0)
(42.1279 3.79717e-07 0)
(42.1247 2.71518e-07 0)
(42.1213 2.07973e-07 0)
(42.1178 1.73166e-07 0)
(42.1142 1.56441e-07 0)
(42.1104 1.5057e-07 0)
(42.1065 1.51179e-07 0)
(42.1024 1.55027e-07 0)
(42.0983 1.60264e-07 0)
(42.0942 1.65991e-07 0)
(42.09 1.70658e-07 0)
(42.0858 1.74275e-07 0)
(42.0817 1.75917e-07 0)
(42.0776 1.7562e-07 0)
(42.0737 1.7312e-07 0)
(42.0699 1.6774e-07 0)
(42.0663 1.60084e-07 0)
(42.0629 1.50053e-07 0)
(42.0598 1.36651e-07 0)
(42.0569 1.20978e-07 0)
(42.0544 1.02598e-07 0)
(42.0523 8.17071e-08 0)
(42.0505 5.8498e-08 0)
(42.0491 3.32279e-08 0)
(42.0481 6.12994e-09 0)
(42.0474 -2.10475e-08 0)
(42.0472 -5.37515e-08 0)
(42.0473 -9.69238e-08 0)
(42.0477 -1.37605e-07 0)
(42.0485 -1.76503e-07 0)
(42.0493 -1.36386e-07 0)
(42.0502 -1.94307e-07 0)
(42.0517 -3.27304e-07 0)
(42.0535 -3.01867e-07 0)
(42.0552 -3.14696e-07 0)
(42.0568 -3.41774e-07 0)
(42.0584 -3.65943e-07 0)
(42.0598 -3.86299e-07 0)
(42.0611 -4.03812e-07 0)
(42.0622 -4.18532e-07 0)
(42.0631 -4.30505e-07 0)
(42.0636 -4.39583e-07 0)
(42.0638 -4.45541e-07 0)
(42.0636 -4.48979e-07 0)
(42.0629 -4.48781e-07 0)
(42.0619 -4.46146e-07 0)
(42.0604 -4.41415e-07 0)
(42.0585 -4.33388e-07 0)
(42.0562 -4.24049e-07 0)
(42.0535 -4.12239e-07 0)
(42.0504 -3.98964e-07 0)
(42.0469 -3.84553e-07 0)
(42.0432 -3.68888e-07 0)
(42.0391 -3.52552e-07 0)
(42.0348 -3.35748e-07 0)
(42.0304 -3.18792e-07 0)
(42.0258 -3.01692e-07 0)
(42.0211 -2.85047e-07 0)
(42.0163 -2.68691e-07 0)
(42.0116 -2.52774e-07 0)
(42.0069 -2.37689e-07 0)
(42.0022 -2.23344e-07 0)
(41.9977 -2.09859e-07 0)
(41.9932 -1.97103e-07 0)
(41.989 -1.85094e-07 0)
(41.9849 -1.73629e-07 0)
(41.981 -1.6271e-07 0)
(41.9773 -1.52297e-07 0)
(41.9739 -1.42406e-07 0)
(41.9707 -1.32989e-07 0)
(41.9677 -1.24381e-07 0)
(41.9649 -1.16609e-07 0)
(41.9623 -1.07784e-07 0)
(41.96 -1.22894e-07 0)
(41.958 -1.12892e-07 0)
(41.9562 -7.32462e-08 0)
(41.9544 -8.43718e-08 0)
(41.9529 -8.50508e-08 0)
(41.9517 -7.81756e-08 0)
(41.9506 -7.20149e-08 0)
(41.9497 -6.87996e-08 0)
(41.949 -6.62307e-08 0)
(41.9485 -6.34452e-08 0)
(41.9482 -5.99044e-08 0)
(41.9481 -5.5983e-08 0)
(41.9482 -5.12727e-08 0)
(41.9485 -4.61555e-08 0)
(41.949 -4.31953e-08 0)
(41.9498 -3.86855e-08 0)
(41.9507 -3.40707e-08 0)
(41.952 -2.90965e-08 0)
(41.9534 -2.43599e-08 0)
(41.9551 -1.94264e-08 0)
(41.9571 -1.45466e-08 0)
(41.9593 -9.09784e-09 0)
(41.9618 -1.24254e-09 0)
(41.9646 4.90053e-09 0)
(41.9677 1.02277e-08 0)
(41.971 1.41845e-08 0)
(41.9746 1.77347e-08 0)
(41.9784 2.04779e-08 0)
(41.9825 2.30455e-08 0)
(41.9868 2.4787e-08 0)
(41.9913 2.61889e-08 0)
(41.9959 2.63001e-08 0)
(42.0006 2.62445e-08 0)
(42.0055 2.48325e-08 0)
(42.0104 2.25621e-08 0)
(42.0152 1.97202e-08 0)
(42.0201 1.55621e-08 0)
(42.0248 1.03431e-08 0)
(42.0294 4.59121e-09 0)
(42.0338 -2.46956e-09 0)
(42.0379 -1.08261e-08 0)
(42.0417 -1.95961e-08 0)
(42.0452 -3.3952e-08 0)
(42.0482 -5.35719e-08 0)
(42.0508 -7.17697e-08 0)
(42.0529 -8.95902e-08 0)
(42.0545 -1.0553e-07 0)
(42.0556 -1.20479e-07 0)
(42.056 -1.37622e-07 0)
(42.0559 -1.55191e-07 0)
(42.0551 -1.72563e-07 0)
(42.0537 -1.819e-07 0)
(42.0516 -1.93637e-07 0)
(42.0489 -2.04688e-07 0)
(42.0456 -2.14573e-07 0)
(42.0417 -2.23337e-07 0)
(42.0373 -2.30996e-07 0)
(42.0324 -2.37609e-07 0)
(42.027 -2.43189e-07 0)
(42.0211 -2.4759e-07 0)
(42.0149 -2.49883e-07 0)
(42.0084 -2.45721e-07 0)
(42.0015 -2.16505e-07 0)
(41.9945 -4.79198e-08 0)
(41.9871 8.22443e-07 0)
(41.9795 5.09645e-06 0)
(41.9705 2.63164e-05 0)
(41.9558 0.000131057 0)
(41.9136 0.000641491 0)
(41.7427 0.00306903 0)
(41.2706 0.0153384 0)
(36.7047 0.0553588 0)
(42.7002 0.000463054 0)
(42.7005 0.00033004 0)
(42.7007 0.000313266 0)
(42.7009 0.000310496 0)
(42.701 0.000308134 0)
(42.7012 0.000306266 0)
(42.7013 0.000304843 0)
(42.7015 0.000303556 0)
(42.7016 0.00030241 0)
(42.7018 0.000301385 0)
(42.7019 0.000300462 0)
(42.7021 0.000299608 0)
(42.7022 0.000298765 0)
(42.7024 0.000298047 0)
(42.7025 0.000297352 0)
(42.7027 0.000296684 0)
(42.7029 0.000296025 0)
(42.703 0.000295342 0)
(42.7032 0.000294672 0)
(42.7034 0.00029385 0)
(42.7035 0.0002928 0)
(42.7037 0.000291464 0)
(42.7038 0.000289786 0)
(42.704 0.000287073 0)
(42.7041 0.000283688 0)
(42.7042 0.000279022 0)
(42.7043 0.000272874 0)
(42.7044 0.000265003 0)
(42.7045 0.000255227 0)
(42.7046 0.00024345 0)
(42.7046 0.000229689 0)
(42.7046 0.000214118 0)
(42.7046 0.000196974 0)
(42.7046 0.000178668 0)
(42.7045 0.000159669 0)
(42.7043 0.000140477 0)
(42.7041 0.000121617 0)
(42.7037 0.000103552 0)
(42.7033 8.67017e-05 0)
(42.7028 7.13578e-05 0)
(42.7022 5.77232e-05 0)
(42.7014 4.58891e-05 0)
(42.7005 3.58528e-05 0)
(42.6995 2.75295e-05 0)
(42.6983 2.07772e-05 0)
(42.697 1.54161e-05 0)
(42.6955 1.12496e-05 0)
(42.6939 8.07875e-06 0)
(42.6921 5.7133e-06 0)
(42.6902 3.98334e-06 0)
(42.6881 2.74436e-06 0)
(42.6858 1.87575e-06 0)
(42.6833 1.28109e-06 0)
(42.6807 8.83263e-07 0)
(42.6778 6.24028e-07 0)
(42.6748 4.60741e-07 0)
(42.6716 3.61901e-07 0)
(42.6683 3.06682e-07 0)
(42.6648 2.79837e-07 0)
(42.6611 2.71105e-07 0)
(42.6573 2.73344e-07 0)
(42.6534 2.82155e-07 0)
(42.6493 2.93924e-07 0)
(42.6452 3.06734e-07 0)
(42.6411 3.19608e-07 0)
(42.6369 3.30328e-07 0)
(42.6327 3.3916e-07 0)
(42.6285 3.44715e-07 0)
(42.6245 3.47067e-07 0)
(42.6205 3.45772e-07 0)
(42.6167 3.39725e-07 0)
(42.6131 3.29873e-07 0)
(42.6097 3.15933e-07 0)
(42.6066 2.96413e-07 0)
(42.6037 2.73026e-07 0)
(42.6012 2.44931e-07 0)
(42.599 2.12447e-07 0)
(42.5972 1.75847e-07 0)
(42.5958 1.35346e-07 0)
(42.5948 9.05173e-08 0)
(42.5941 4.18483e-08 0)
(42.5938 -5.96829e-09 0)
(42.5939 -5.08877e-08 0)
(42.5944 -1.00386e-07 0)
(42.5951 -1.56342e-07 0)
(42.5959 -7.54136e-08 0)
(42.5968 -1.99832e-07 0)
(42.5983 -4.30563e-07 0)
(42.6 -3.74305e-07 0)
(42.6017 -3.94484e-07 0)
(42.6033 -4.40049e-07 0)
(42.6048 -4.80139e-07 0)
(42.6063 -5.13596e-07 0)
(42.6075 -5.42216e-07 0)
(42.6086 -5.66232e-07 0)
(42.6094 -5.8582e-07 0)
(42.6099 -6.00761e-07 0)
(42.61 -6.1071e-07 0)
(42.6098 -6.16854e-07 0)
(42.6091 -6.16962e-07 0)
(42.6081 -6.13437e-07 0)
(42.6066 -6.06626e-07 0)
(42.6046 -5.94734e-07 0)
(42.6023 -5.8087e-07 0)
(42.5995 -5.63154e-07 0)
(42.5964 -5.4342e-07 0)
(42.5929 -5.22013e-07 0)
(42.5891 -4.98673e-07 0)
(42.585 -4.74326e-07 0)
(42.5807 -4.49331e-07 0)
(42.5762 -4.24069e-07 0)
(42.5716 -3.98674e-07 0)
(42.5669 -3.74034e-07 0)
(42.5621 -3.4985e-07 0)
(42.5574 -3.26404e-07 0)
(42.5526 -3.04265e-07 0)
(42.5479 -2.83247e-07 0)
(42.5434 -2.63543e-07 0)
(42.5389 -2.45051e-07 0)
(42.5346 -2.28054e-07 0)
(42.5305 -2.12196e-07 0)
(42.5266 -1.9747e-07 0)
(42.5229 -1.83813e-07 0)
(42.5195 -1.71303e-07 0)
(42.5162 -1.59928e-07 0)
(42.5132 -1.49488e-07 0)
(42.5104 -1.38968e-07 0)
(42.5078 -1.2567e-07 0)
(42.5055 -1.50208e-07 0)
(42.5035 -1.27036e-07 0)
(42.5016 -7.50873e-08 0)
(42.4999 -1.02712e-07 0)
(42.4984 -1.06705e-07 0)
(42.4971 -9.69696e-08 0)
(42.496 -8.79299e-08 0)
(42.4951 -8.34492e-08 0)
(42.4944 -7.99831e-08 0)
(42.4939 -7.62136e-08 0)
(42.4936 -7.12875e-08 0)
(42.4934 -6.56823e-08 0)
(42.4935 -5.85225e-08 0)
(42.4938 -5.04207e-08 0)
(42.4943 -4.63538e-08 0)
(42.495 -3.92573e-08 0)
(42.496 -3.17618e-08 0)
(42.4972 -2.35581e-08 0)
(42.4986 -1.55709e-08 0)
(42.5003 -6.95764e-09 0)
(42.5022 1.65908e-09 0)
(42.5045 1.05675e-08 0)
(42.507 2.23656e-08 0)
(42.5097 3.27733e-08 0)
(42.5128 4.27952e-08 0)
(42.5161 5.12912e-08 0)
(42.5197 5.96115e-08 0)
(42.5235 6.67533e-08 0)
(42.5276 7.37064e-08 0)
(42.5318 7.92962e-08 0)
(42.5363 8.44261e-08 0)
(42.5409 8.76355e-08 0)
(42.5456 9.05538e-08 0)
(42.5505 9.13034e-08 0)
(42.5553 9.07616e-08 0)
(42.5602 8.92088e-08 0)
(42.565 8.53712e-08 0)
(42.5698 7.99369e-08 0)
(42.5743 7.34242e-08 0)
(42.5787 6.47985e-08 0)
(42.5828 5.43138e-08 0)
(42.5866 4.37255e-08 0)
(42.59 3.12392e-08 0)
(42.5931 1.6658e-08 0)
(42.5957 -1.43508e-10 0)
(42.5978 -1.99323e-08 0)
(42.5993 -3.97453e-08 0)
(42.6003 -5.9737e-08 0)
(42.6008 -8.59084e-08 0)
(42.6006 -1.14987e-07 0)
(42.5998 -1.42435e-07 0)
(42.5984 -1.58838e-07 0)
(42.5963 -1.7956e-07 0)
(42.5935 -1.99886e-07 0)
(42.5902 -2.18884e-07 0)
(42.5863 -2.36519e-07 0)
(42.5819 -2.52705e-07 0)
(42.577 -2.67432e-07 0)
(42.5715 -2.80484e-07 0)
(42.5657 -2.91321e-07 0)
(42.5595 -2.9698e-07 0)
(42.5529 -2.83054e-07 0)
(42.546 -1.77451e-07 0)
(42.5389 3.52e-07 0)
(42.5316 3.05433e-06 0)
(42.5239 1.64982e-05 0)
(42.5149 8.33597e-05 0)
(42.5001 0.000413365 0)
(42.4576 0.00202092 0)
(42.2853 0.00964509 0)
(41.8022 0.0472226 0)
(37.3327 0.161209 0)
(42.7002 0.000369222 0)
(42.7005 0.0002389 0)
(42.7007 0.000231574 0)
(42.701 0.000235348 0)
(42.7011 0.00023666 0)
(42.7013 0.000237606 0)
(42.7015 0.000238641 0)
(42.7017 0.000239586 0)
(42.7019 0.000240506 0)
(42.7021 0.000241407 0)
(42.7024 0.00024229 0)
(42.7026 0.000243143 0)
(42.7028 0.000243917 0)
(42.7031 0.000244732 0)
(42.7034 0.000245486 0)
(42.7036 0.000246198 0)
(42.7039 0.000246856 0)
(42.7042 0.000247432 0)
(42.7045 0.000247962 0)
(42.7048 0.000248306 0)
(42.7051 0.000248387 0)
(42.7054 0.000248158 0)
(42.7057 0.000247568 0)
(42.706 0.000245979 0)
(42.7062 0.000243744 0)
(42.7065 0.000240289 0)
(42.7067 0.000235441 0)
(42.7069 0.000228986 0)
(42.7071 0.000220765 0)
(42.7072 0.0002107 0)
(42.7073 0.000198816 0)
(42.7073 0.000185288 0)
(42.7073 0.000170333 0)
(42.7072 0.000154338 0)
(42.7071 0.000137733 0)
(42.7068 0.000120971 0)
(42.7065 0.000104523 0)
(42.706 8.8799e-05 0)
(42.7055 7.41697e-05 0)
(42.7049 6.08845e-05 0)
(42.7041 4.91145e-05 0)
(42.7033 3.89318e-05 0)
(42.7023 3.03242e-05 0)
(42.7012 2.32097e-05 0)
(42.7 1.74579e-05 0)
(42.6986 1.29067e-05 0)
(42.6971 9.38193e-06 0)
(42.6955 6.70854e-06 0)
(42.6936 4.72087e-06 0)
(42.6917 3.27208e-06 0)
(42.6896 2.23792e-06 0)
(42.6872 1.51493e-06 0)
(42.6848 1.02087e-06 0)
(42.6821 6.90742e-07 0)
(42.6793 4.75959e-07 0)
(42.6763 3.40855e-07 0)
(42.6731 2.58991e-07 0)
(42.6697 2.12885e-07 0)
(42.6662 1.89777e-07 0)
(42.6625 1.81212e-07 0)
(42.6587 1.81373e-07 0)
(42.6548 1.86756e-07 0)
(42.6508 1.94474e-07 0)
(42.6467 2.0296e-07 0)
(42.6425 2.11452e-07 0)
(42.6383 2.18287e-07 0)
(42.6341 2.23618e-07 0)
(42.63 2.26304e-07 0)
(42.6259 2.26428e-07 0)
(42.622 2.23662e-07 0)
(42.6181 2.17233e-07 0)
(42.6145 2.07891e-07 0)
(42.6111 1.95333e-07 0)
(42.608 1.78487e-07 0)
(42.6052 1.58814e-07 0)
(42.6027 1.35642e-07 0)
(42.6005 1.09292e-07 0)
(42.5987 8.00331e-08 0)
(42.5973 4.81904e-08 0)
(42.5962 1.39327e-08 0)
(42.5956 -2.03321e-08 0)
(42.5953 -5.70862e-08 0)
(42.5954 -9.59886e-08 0)
(42.5958 -1.3566e-07 0)
(42.5965 -1.79264e-07 0)
(42.5973 -1.01494e-07 0)
(42.5982 -2.21042e-07 0)
(42.5997 -4.05669e-07 0)
(42.6015 -3.45023e-07 0)
(42.6031 -3.58713e-07 0)
(42.6047 -3.94085e-07 0)
(42.6063 -4.2389e-07 0)
(42.6077 -4.47846e-07 0)
(42.609 -4.67704e-07 0)
(42.61 -4.83783e-07 0)
(42.6108 -4.96306e-07 0)
(42.6113 -5.05102e-07 0)
(42.6115 -5.09955e-07 0)
(42.6112 -5.12001e-07 0)
(42.6106 -5.09208e-07 0)
(42.6095 -5.03868e-07 0)
(42.608 -4.96035e-07 0)
(42.6061 -4.84386e-07 0)
(42.6037 -4.71438e-07 0)
(42.601 -4.55699e-07 0)
(42.5978 -4.38594e-07 0)
(42.5943 -4.20354e-07 0)
(42.5905 -4.00901e-07 0)
(42.5865 -3.80964e-07 0)
(42.5822 -3.6073e-07 0)
(42.5777 -3.40474e-07 0)
(42.5731 -3.2031e-07 0)
(42.5683 -3.00895e-07 0)
(42.5636 -2.81964e-07 0)
(42.5588 -2.63704e-07 0)
(42.554 -2.46563e-07 0)
(42.5494 -2.30346e-07 0)
(42.5448 -2.15194e-07 0)
(42.5404 -2.01033e-07 0)
(42.5361 -1.88215e-07 0)
(42.532 -1.76479e-07 0)
(42.5281 -1.65846e-07 0)
(42.5244 -1.56157e-07 0)
(42.5209 -1.47358e-07 0)
(42.5177 -1.39286e-07 0)
(42.5146 -1.32001e-07 0)
(42.5119 -1.25242e-07 0)
(42.5093 -1.17645e-07 0)
(42.507 -1.39748e-07 0)
(42.5049 -1.19881e-07 0)
(42.5031 -8.3429e-08 0)
(42.5013 -1.06529e-07 0)
(42.4998 -1.08364e-07 0)
(42.4985 -9.97156e-08 0)
(42.4974 -9.24509e-08 0)
(42.4965 -8.91408e-08 0)
(42.4958 -8.66435e-08 0)
(42.4953 -8.37612e-08 0)
(42.495 -7.99241e-08 0)
(42.4949 -7.54996e-08 0)
(42.495 -6.95831e-08 0)
(42.4952 -6.2854e-08 0)
(42.4957 -6.00082e-08 0)
(42.4965 -5.44105e-08 0)
(42.4974 -4.84666e-08 0)
(42.4986 -4.19495e-08 0)
(42.5 -3.55647e-08 0)
(42.5017 -2.85294e-08 0)
(42.5037 -2.17653e-08 0)
(42.5059 -1.59888e-08 0)
(42.5084 -1.08822e-08 0)
(42.5112 -4.81205e-09 0)
(42.5142 1.9477e-09 0)
(42.5175 8.26985e-09 0)
(42.5211 1.48047e-08 0)
(42.5249 2.06157e-08 0)
(42.529 2.62215e-08 0)
(42.5333 3.07627e-08 0)
(42.5377 3.49012e-08 0)
(42.5423 3.74956e-08 0)
(42.5471 3.98419e-08 0)
(42.5519 4.04591e-08 0)
(42.5568 3.99878e-08 0)
(42.5617 3.86907e-08 0)
(42.5665 3.55504e-08 0)
(42.5712 3.09981e-08 0)
(42.5758 2.54433e-08 0)
(42.5801 1.81724e-08 0)
(42.5842 9.02828e-09 0)
(42.588 -1.56008e-10 0)
(42.5915 -9.38783e-09 0)
(42.5945 -1.84883e-08 0)
(42.5971 -2.62017e-08 0)
(42.5992 -3.64701e-08 0)
(42.6008 -4.79337e-08 0)
(42.6018 -5.96355e-08 0)
(42.6022 -7.91439e-08 0)
(42.6021 -1.03223e-07 0)
(42.6013 -1.19258e-07 0)
(42.5998 -1.33631e-07 0)
(42.5977 -1.50144e-07 0)
(42.595 -1.66816e-07 0)
(42.5917 -1.82912e-07 0)
(42.5878 -1.98257e-07 0)
(42.5833 -2.12613e-07 0)
(42.5784 -2.25865e-07 0)
(42.573 -2.37511e-07 0)
(42.5671 -2.46576e-07 0)
(42.5609 -2.47974e-07 0)
(42.5543 -2.16541e-07 0)
(42.5475 -2.92123e-08 0)
(42.5403 9.30171e-07 0)
(42.533 5.72625e-06 0)
(42.5253 2.96576e-05 0)
(42.5164 0.000148734 0)
(42.5018 0.000736609 0)
(42.4601 0.00360297 0)
(42.2918 0.0171976 0)
(41.8264 0.0839215 0)
(37.4754 0.282951 0)
(42.7002 0.000375329 0)
(42.7005 0.00027675 0)
(42.7007 0.000271335 0)
(42.7009 0.000276138 0)
(42.7011 0.000277009 0)
(42.7013 0.000277154 0)
(42.7015 0.000277271 0)
(42.7017 0.000277197 0)
(42.7019 0.000277021 0)
(42.7021 0.000276787 0)
(42.7023 0.000276521 0)
(42.7026 0.000276226 0)
(42.7028 0.000275868 0)
(42.7031 0.000275571 0)
(42.7034 0.000275244 0)
(42.7036 0.000274906 0)
(42.7039 0.000274548 0)
(42.7042 0.000274139 0)
(42.7045 0.000273716 0)
(42.7048 0.000273143 0)
(42.7051 0.000272334 0)
(42.7054 0.000271243 0)
(42.7057 0.000269803 0)
(42.7059 0.000267401 0)
(42.7062 0.000264344 0)
(42.7065 0.000260072 0)
(42.7067 0.000254399 0)
(42.7069 0.000247099 0)
(42.7071 0.000238002 0)
(42.7072 0.000227024 0)
(42.7073 0.000214178 0)
(42.7073 0.000199641 0)
(42.7073 0.000183626 0)
(42.7072 0.000166528 0)
(42.7071 0.000148787 0)
(42.7068 0.000130871 0)
(42.7065 0.000113272 0)
(42.706 9.64216e-05 0)
(42.7055 8.07109e-05 0)
(42.7049 6.64103e-05 0)
(42.7041 5.37074e-05 0)
(42.7033 4.26864e-05 0)
(42.7023 3.33424e-05 0)
(42.7012 2.55954e-05 0)
(42.7 1.93121e-05 0)
(42.6986 1.43242e-05 0)
(42.6971 1.04481e-05 0)
(42.6955 7.49819e-06 0)
(42.6936 5.29734e-06 0)
(42.6917 3.68748e-06 0)
(42.6896 2.53396e-06 0)
(42.6873 1.72419e-06 0)
(42.6848 1.16861e-06 0)
(42.6821 7.96675e-07 0)
(42.6793 5.54917e-07 0)
(42.6763 4.03156e-07 0)
(42.6731 3.11537e-07 0)
(42.6697 2.59943e-07 0)
(42.6662 2.34019e-07 0)
(42.6626 2.24225e-07 0)
(42.6587 2.24074e-07 0)
(42.6548 2.29649e-07 0)
(42.6508 2.37852e-07 0)
(42.6467 2.47001e-07 0)
(42.6425 2.56216e-07 0)
(42.6383 2.63777e-07 0)
(42.6341 2.69812e-07 0)
(42.63 2.73249e-07 0)
(42.6259 2.7414e-07 0)
(42.622 2.7212e-07 0)
(42.6181 2.66343e-07 0)
(42.6145 2.57536e-07 0)
(42.6111 2.45649e-07 0)
(42.608 2.29408e-07 0)
(42.6052 2.10134e-07 0)
(42.6027 1.8733e-07 0)
(42.6005 1.61257e-07 0)
(42.5987 1.32122e-07 0)
(42.5973 1.00215e-07 0)
(42.5962 6.55606e-08 0)
(42.5956 2.95911e-08 0)
(42.5953 -1.16216e-08 0)
(42.5954 -5.83668e-08 0)
(42.5958 -1.05928e-07 0)
(42.5965 -1.53449e-07 0)
(42.5973 -8.18943e-08 0)
(42.5982 -1.91847e-07 0)
(42.5997 -3.6792e-07 0)
(42.6015 -3.17621e-07 0)
(42.6031 -3.33446e-07 0)
(42.6047 -3.69658e-07 0)
(42.6063 -4.00426e-07 0)
(42.6077 -4.25555e-07 0)
(42.609 -4.46936e-07 0)
(42.61 -4.64824e-07 0)
(42.6108 -4.79301e-07 0)
(42.6113 -4.90193e-07 0)
(42.6115 -4.97247e-07 0)
(42.6112 -5.01396e-07 0)
(42.6106 -5.00702e-07 0)
(42.6095 -4.97339e-07 0)
(42.608 -4.91411e-07 0)
(42.6061 -4.81568e-07 0)
(42.6037 -4.70177e-07 0)
(42.601 -4.55929e-07 0)
(42.5978 -4.40104e-07 0)
(42.5943 -4.22997e-07 0)
(42.5905 -4.04452e-07 0)
(42.5865 -3.85161e-07 0)
(42.5822 -3.65412e-07 0)
(42.5777 -3.45499e-07 0)
(42.5731 -3.25493e-07 0)
(42.5683 -3.06079e-07 0)
(42.5636 -2.8701e-07 0)
(42.5588 -2.68476e-07 0)
(42.554 -2.50943e-07 0)
(42.5494 -2.3423e-07 0)
(42.5448 -2.18493e-07 0)
(42.5404 -2.03656e-07 0)
(42.5361 -1.90034e-07 0)
(42.532 -1.77381e-07 0)
(42.5281 -1.65655e-07 0)
(42.5244 -1.5476e-07 0)
(42.5209 -1.44706e-07 0)
(42.5177 -1.35513e-07 0)
(42.5146 -1.27009e-07 0)
(42.5119 -1.18534e-07 0)
(42.5093 -1.08633e-07 0)
(42.507 -1.27543e-07 0)
(42.5049 -1.09092e-07 0)
(42.5031 -6.74411e-08 0)
(42.5013 -8.51461e-08 0)
(42.4998 -8.72375e-08 0)
(42.4985 -7.8649e-08 0)
(42.4974 -7.08288e-08 0)
(42.4965 -6.67728e-08 0)
(42.4958 -6.36156e-08 0)
(42.4953 -6.01643e-08 0)
(42.495 -5.58754e-08 0)
(42.4949 -5.10099e-08 0)
(42.495 -4.47382e-08 0)
(42.4952 -3.78099e-08 0)
(42.4957 -3.45302e-08 0)
(42.4965 -2.8665e-08 0)
(42.4974 -2.2511e-08 0)
(42.4986 -1.58041e-08 0)
(42.5 -9.22074e-09 0)
(42.5017 -2.03584e-09 0)
(42.5037 5.19656e-09 0)
(42.5059 1.34879e-08 0)
(42.5084 2.12396e-08 0)
(42.5112 2.8182e-08 0)
(42.5142 3.52502e-08 0)
(42.5175 4.15883e-08 0)
(42.5211 4.79618e-08 0)
(42.5249 5.3546e-08 0)
(42.529 5.88476e-08 0)
(42.5333 6.30373e-08 0)
(42.5377 6.67515e-08 0)
(42.5423 6.89111e-08 0)
(42.5471 7.07572e-08 0)
(42.5519 7.09081e-08 0)
(42.5568 6.99248e-08 0)
(42.5617 6.80943e-08 0)
(42.5665 6.44379e-08 0)
(42.5712 5.93543e-08 0)
(42.5758 5.32328e-08 0)
(42.5801 4.53654e-08 0)
(42.5842 3.53699e-08 0)
(42.588 2.50952e-08 0)
(42.5915 9.97327e-09 0)
(42.5945 -9.34131e-09 0)
(42.5971 -2.49129e-08 0)
(42.5992 -4.01256e-08 0)
(42.6008 -5.43099e-08 0)
(42.6018 -6.67875e-08 0)
(42.6022 -8.85836e-08 0)
(42.6021 -1.15536e-07 0)
(42.6013 -1.2423e-07 0)
(42.5998 -1.41341e-07 0)
(42.5977 -1.57474e-07 0)
(42.595 -1.73511e-07 0)
(42.5917 -1.88895e-07 0)
(42.5878 -2.03469e-07 0)
(42.5833 -2.16966e-07 0)
(42.5784 -2.29349e-07 0)
(42.573 -2.39954e-07 0)
(42.5671 -2.47396e-07 0)
(42.5609 -2.44225e-07 0)
(42.5543 -1.93517e-07 0)
(42.5475 8.3073e-08 0)
(42.5404 1.52106e-06 0)
(42.533 8.68422e-06 0)
(42.5253 4.43849e-05 0)
(42.5164 0.00022201 0)
(42.5018 0.00109925 0)
(42.4604 0.00538113 0)
(42.2932 0.0256772 0)
(41.8321 0.125215 0)
(37.5867 0.418064 0)
(42.7002 0.000352015 0)
(42.7004 0.000251878 0)
(42.7007 0.00023451 0)
(42.7009 0.000235264 0)
(42.7011 0.000233796 0)
(42.7013 0.000232662 0)
(42.7015 0.000232234 0)
(42.7017 0.000232055 0)
(42.7019 0.000232047 0)
(42.7021 0.00023216 0)
(42.7023 0.000232357 0)
(42.7026 0.000232603 0)
(42.7028 0.000232834 0)
(42.7031 0.000233151 0)
(42.7033 0.000233455 0)
(42.7036 0.000233752 0)
(42.7039 0.000234029 0)
(42.7042 0.00023425 0)
(42.7045 0.000234451 0)
(42.7048 0.000234504 0)
(42.7051 0.000234328 0)
(42.7054 0.000233884 0)
(42.7057 0.00023311 0)
(42.7059 0.000231447 0)
(42.7062 0.000229184 0)
(42.7065 0.000225811 0)
(42.7067 0.000221161 0)
(42.7069 0.000215034 0)
(42.7071 0.00020728 0)
(42.7072 0.000197826 0)
(42.7073 0.000186683 0)
(42.7073 0.000174024 0)
(42.7073 0.000160033 0)
(42.7072 0.000145072 0)
(42.707 0.000129537 0)
(42.7068 0.000113846 0)
(42.7065 9.84387e-05 0)
(42.706 8.3698e-05 0)
(42.7055 6.99698e-05 0)
(42.7049 5.74902e-05 0)
(42.7041 4.64218e-05 0)
(42.7033 3.68349e-05 0)
(42.7023 2.87215e-05 0)
(42.7012 2.20075e-05 0)
(42.7 1.65727e-05 0)
(42.6986 1.22673e-05 0)
(42.6971 8.92874e-06 0)
(42.6955 6.3935e-06 0)
(42.6936 4.50633e-06 0)
(42.6917 3.1292e-06 0)
(42.6896 2.14509e-06 0)
(42.6873 1.45684e-06 0)
(42.6848 9.86973e-07 0)
(42.6821 6.73549e-07 0)
(42.6793 4.69606e-07 0)
(42.6763 3.40915e-07 0)
(42.6731 2.62558e-07 0)
(42.6697 2.18208e-07 0)
(42.6662 1.96139e-07 0)
(42.6626 1.88285e-07 0)
(42.6587 1.89104e-07 0)
(42.6548 1.95111e-07 0)
(42.6508 2.03451e-07 0)
(42.6467 2.12638e-07 0)
(42.6425 2.21845e-07 0)
(42.6383 2.29349e-07 0)
(42.6341 2.35317e-07 0)
(42.63 2.38736e-07 0)
(42.6259 2.39638e-07 0)
(42.622 2.37642e-07 0)
(42.6181 2.32011e-07 0)
(42.6145 2.23305e-07 0)
(42.6111 2.11534e-07 0)
(42.608 1.95451e-07 0)
(42.6052 1.76301e-07 0)
(42.6027 1.53578e-07 0)
(42.6005 1.2751e-07 0)
(42.5987 9.83319e-08 0)
(42.5973 6.6143e-08 0)
(42.5962 3.06848e-08 0)
(42.5956 -7.14239e-09 0)
(42.5953 -4.45024e-08 0)
(42.5954 -7.94066e-08 0)
(42.5958 -1.18554e-07 0)
(42.5965 -1.60735e-07 0)
(42.5973 -9.3443e-08 0)
(42.5982 -2.00233e-07 0)
(42.5997 -3.69572e-07 0)
(42.6015 -3.25355e-07 0)
(42.6031 -3.39611e-07 0)
(42.6047 -3.74359e-07 0)
(42.6063 -4.04724e-07 0)
(42.6077 -4.29834e-07 0)
(42.609 -4.51164e-07 0)
(42.61 -4.68887e-07 0)
(42.6108 -4.83059e-07 0)
(42.6113 -4.9357e-07 0)
(42.6115 -5.00295e-07 0)
(42.6112 -5.04074e-07 0)
(42.6106 -5.03152e-07 0)
(42.6095 -4.99594e-07 0)
(42.608 -4.93522e-07 0)
(42.6061 -4.83685e-07 0)
(42.6037 -4.72278e-07 0)
(42.601 -4.5811e-07 0)
(42.5978 -4.424e-07 0)
(42.5943 -4.25469e-07 0)
(42.5905 -4.07171e-07 0)
(42.5865 -3.88158e-07 0)
(42.5822 -3.68693e-07 0)
(42.5777 -3.49041e-07 0)
(42.5731 -3.29344e-07 0)
(42.5683 -3.10216e-07 0)
(42.5636 -2.91468e-07 0)
(42.5588 -2.73257e-07 0)
(42.554 -2.56025e-07 0)
(42.5494 -2.39621e-07 0)
(42.5448 -2.24172e-07 0)
(42.5404 -2.09653e-07 0)
(42.5361 -1.96369e-07 0)
(42.532 -1.84071e-07 0)
(42.5281 -1.72724e-07 0)
(42.5244 -1.62239e-07 0)
(42.5209 -1.52608e-07 0)
(42.5177 -1.43742e-07 0)
(42.5146 -1.35436e-07 0)
(42.5119 -1.27135e-07 0)
(42.5093 -1.1794e-07 0)
(42.507 -1.36053e-07 0)
(42.5049 -1.182e-07 0)
(42.5031 -8.03088e-08 0)
(42.5013 -9.78947e-08 0)
(42.4998 -1.01383e-07 0)
(42.4985 -9.37395e-08 0)
(42.4974 -8.67653e-08 0)
(42.4965 -8.343e-08 0)
(42.4958 -8.09158e-08 0)
(42.4953 -7.8071e-08 0)
(42.495 -7.43956e-08 0)
(42.4949 -7.00686e-08 0)
(42.495 -6.43395e-08 0)
(42.4952 -5.80648e-08 0)
(42.4957 -5.50707e-08 0)
(42.4965 -4.96872e-08 0)
(42.4974 -4.39417e-08 0)
(42.4986 -3.76637e-08 0)
(42.5 -3.14925e-08 0)
(42.5017 -2.48992e-08 0)
(42.5037 -1.83135e-08 0)
(42.5059 -1.1664e-08 0)
(42.5084 -4.35219e-09 0)
(42.5112 2.67893e-09 0)
(42.5142 9.97149e-09 0)
(42.5175 1.66213e-08 0)
(42.5211 2.33403e-08 0)
(42.5249 2.93018e-08 0)
(42.529 3.50101e-08 0)
(42.5333 3.96595e-08 0)
(42.5377 4.38056e-08 0)
(42.5423 4.65295e-08 0)
(42.5471 4.89402e-08 0)
(42.5519 4.9592e-08 0)
(42.5568 4.92639e-08 0)
(42.5617 4.81997e-08 0)
(42.5665 4.51591e-08 0)
(42.5712 4.09982e-08 0)
(42.5758 3.59007e-08 0)
(42.5801 2.90313e-08 0)
(42.5842 2.06998e-08 0)
(42.588 1.2566e-08 0)
(42.5915 1.9803e-09 0)
(42.5945 -9.40681e-09 0)
(42.5971 -2.31163e-08 0)
(42.5992 -3.72774e-08 0)
(42.6008 -5.05787e-08 0)
(42.6018 -6.17233e-08 0)
(42.6022 -8.50574e-08 0)
(42.6021 -1.15034e-07 0)
(42.6013 -1.15477e-07 0)
(42.5998 -1.36041e-07 0)
(42.5977 -1.52114e-07 0)
(42.595 -1.67902e-07 0)
(42.5917 -1.83084e-07 0)
(42.5878 -1.9749e-07 0)
(42.5833 -2.10842e-07 0)
(42.5784 -2.23132e-07 0)
(42.573 -2.33516e-07 0)
(42.5671 -2.40089e-07 0)
(42.5609 -2.32616e-07 0)
(42.5543 -1.59888e-07 0)
(42.5475 2.31794e-07 0)
(42.5404 2.20483e-06 0)
(42.533 1.20586e-05 0)
(42.5253 6.11783e-05 0)
(42.5164 0.000305594 0)
(42.5019 0.00151305 0)
(42.4608 0.00741173 0)
(42.2954 0.0353428 0)
(41.8393 0.171935 0)
(37.7059 0.567984 0)
(42.7001 0.000330565 0)
(42.7004 0.000244879 0)
(42.7007 0.000230721 0)
(42.7009 0.000236617 0)
(42.7011 0.000238372 0)
(42.7013 0.000239125 0)
(42.7015 0.000239888 0)
(42.7017 0.000240453 0)
(42.7019 0.000240879 0)
(42.7021 0.000241218 0)
(42.7023 0.000241496 0)
(42.7026 0.000241722 0)
(42.7028 0.000241861 0)
(42.7031 0.000242031 0)
(42.7033 0.000242153 0)
(42.7036 0.000242243 0)
(42.7039 0.000242297 0)
(42.7042 0.000242285 0)
(42.7045 0.000242244 0)
(42.7048 0.000242058 0)
(42.7051 0.000241643 0)
(42.7054 0.000240963 0)
(42.7056 0.000239946 0)
(42.7059 0.000238069 0)
(42.7062 0.000235579 0)
(42.7065 0.000231989 0)
(42.7067 0.000227125 0)
(42.7069 0.000220784 0)
(42.7071 0.000212812 0)
(42.7072 0.000203134 0)
(42.7073 0.000191752 0)
(42.7073 0.000178838 0)
(42.7073 0.000164573 0)
(42.7072 0.000149316 0)
(42.707 0.000133463 0)
(42.7068 0.000117435 0)
(42.7065 0.000101676 0)
(42.706 8.65776e-05 0)
(42.7055 7.24916e-05 0)
(42.7049 5.96634e-05 0)
(42.7041 4.82637e-05 0)
(42.7033 3.83694e-05 0)
(42.7023 2.99778e-05 0)
(42.7012 2.30181e-05 0)
(42.7 1.73717e-05 0)
(42.6986 1.28882e-05 0)
(42.6971 9.40301e-06 0)
(42.6955 6.74974e-06 0)
(42.6936 4.76966e-06 0)
(42.6917 3.32092e-06 0)
(42.6896 2.2826e-06 0)
(42.6873 1.55369e-06 0)
(42.6848 1.05335e-06 0)
(42.6821 7.17736e-07 0)
(42.6793 4.98622e-07 0)
(42.6763 3.6038e-07 0)
(42.6731 2.76471e-07 0)
(42.6697 2.28921e-07 0)
(42.6662 2.04816e-07 0)
(42.6626 1.95484e-07 0)
(42.6587 1.9501e-07 0)
(42.6548 1.9982e-07 0)
(42.6508 2.07124e-07 0)
(42.6467 2.15216e-07 0)
(42.6425 2.2349e-07 0)
(42.6383 2.30369e-07 0)
(42.6341 2.35832e-07 0)
(42.63 2.38929e-07 0)
(42.6259 2.39619e-07 0)
(42.622 2.37565e-07 0)
(42.6181 2.3231e-07 0)
(42.6145 2.24269e-07 0)
(42.6111 2.1322e-07 0)
(42.608 1.98138e-07 0)
(42.6052 1.80431e-07 0)
(42.6027 1.59463e-07 0)
(42.6005 1.35431e-07 0)
(42.5987 1.08606e-07 0)
(42.5973 7.9288e-08 0)
(42.5962 4.778e-08 0)
(42.5956 1.61055e-08 0)
(42.5953 -1.93855e-08 0)
(42.5954 -5.91668e-08 0)
(42.5958 -9.92962e-08 0)
(42.5965 -1.39351e-07 0)
(42.5973 -7.76816e-08 0)
(42.5982 -1.7702e-07 0)
(42.5997 -3.34381e-07 0)
(42.6015 -2.9454e-07 0)
(42.6031 -3.07034e-07 0)
(42.6047 -3.39351e-07 0)
(42.6063 -3.67432e-07 0)
(42.6077 -3.90386e-07 0)
(42.609 -4.09807e-07 0)
(42.61 -4.25909e-07 0)
(42.6108 -4.38822e-07 0)
(42.6113 -4.48357e-07 0)
(42.6115 -4.54379e-07 0)
(42.6112 -4.57579e-07 0)
(42.6106 -4.56441e-07 0)
(42.6095 -4.52827e-07 0)
(42.608 -4.46773e-07 0)
(42.6061 -4.37221e-07 0)
(42.6037 -4.26172e-07 0)
(42.601 -4.12574e-07 0)
(42.5978 -3.97489e-07 0)
(42.5943 -3.81274e-07 0)
(42.5905 -3.63812e-07 0)
(42.5865 -3.45733e-07 0)
(42.5822 -3.27283e-07 0)
(42.5777 -3.08692e-07 0)
(42.5731 -2.90104e-07 0)
(42.5683 -2.72099e-07 0)
(42.5636 -2.54479e-07 0)
(42.5588 -2.37436e-07 0)
(42.554 -2.21343e-07 0)
(42.5494 -2.06107e-07 0)
(42.5448 -1.91813e-07 0)
(42.5404 -1.78407e-07 0)
(42.5361 -1.66165e-07 0)
(42.532 -1.54874e-07 0)
(42.5281 -1.44511e-07 0)
(42.5244 -1.34959e-07 0)
(42.5209 -1.26202e-07 0)
(42.5177 -1.18185e-07 0)
(42.5146 -1.10827e-07 0)
(42.5119 -1.03772e-07 0)
(42.5093 -9.65149e-08 0)
(42.507 -1.14194e-07 0)
(42.5049 -9.83838e-08 0)
(42.5031 -6.31846e-08 0)
(42.5013 -7.82161e-08 0)
(42.4998 -8.13e-08 0)
(42.4985 -7.3662e-08 0)
(42.4974 -6.67051e-08 0)
(42.4965 -6.32404e-08 0)
(42.4958 -6.05987e-08 0)
(42.4953 -5.76417e-08 0)
(42.495 -5.39303e-08 0)
(42.4949 -4.95762e-08 0)
(42.495 -4.38961e-08 0)
(42.4952 -3.78559e-08 0)
(42.4957 -3.48192e-08 0)
(42.4965 -2.9587e-08 0)
(42.4974 -2.40132e-08 0)
(42.4986 -1.79532e-08 0)
(42.5 -1.19974e-08 0)
(42.5017 -5.6005e-09 0)
(42.5037 8.15894e-10 0)
(42.5059 7.04743e-09 0)
(42.5084 1.30467e-08 0)
(42.5112 1.88916e-08 0)
(42.5142 2.50363e-08 0)
(42.5175 3.06874e-08 0)
(42.5211 3.64031e-08 0)
(42.5249 4.15059e-08 0)
(42.529 4.63594e-08 0)
(42.5333 5.03016e-08 0)
(42.5377 5.37636e-08 0)
(42.5423 5.58967e-08 0)
(42.5471 5.77284e-08 0)
(42.5519 5.80224e-08 0)
(42.5568 5.72538e-08 0)
(42.5617 5.5826e-08 0)
(42.5665 5.26372e-08 0)
(42.5712 4.82509e-08 0)
(42.5758 4.29116e-08 0)
(42.5801 3.60925e-08 0)
(42.5842 2.73595e-08 0)
(42.588 1.90808e-08 0)
(42.5915 8.12064e-09 0)
(42.5945 -3.61341e-09 0)
(42.5971 -1.68277e-08 0)
(42.5992 -2.9788e-08 0)
(42.6008 -4.17218e-08 0)
(42.6018 -5.0789e-08 0)
(42.6022 -7.52073e-08 0)
(42.6021 -1.0782e-07 0)
(42.6013 -9.80125e-08 0)
(42.5998 -1.21838e-07 0)
(42.5977 -1.37059e-07 0)
(42.595 -1.51849e-07 0)
(42.5917 -1.66125e-07 0)
(42.5878 -1.79665e-07 0)
(42.5833 -1.92166e-07 0)
(42.5784 -2.03693e-07 0)
(42.573 -2.13164e-07 0)
(42.5671 -2.18115e-07 0)
(42.5609 -2.05184e-07 0)
(42.5543 -1.07335e-07 0)
(42.5475 4.0666e-07 0)
(42.5404 2.99299e-06 0)
(42.533 1.59039e-05 0)
(42.5253 8.02579e-05 0)
(42.5164 0.000400499 0)
(42.5021 0.001983 0)
(42.4615 0.00971986 0)
(42.2987 0.0463052 0)
(41.8501 0.224527 0)
(37.8456 0.731074 0)
(42.7001 0.0002735 0)
(42.7004 0.000211587 0)
(42.7007 0.000193575 0)
(42.7009 0.000196806 0)
(42.7011 0.000195938 0)