/*--------------------------------*- C++ -*----------------------------------*\
| =========                 |                                                 |
| \\      /  F ield         | OpenFOAM: The Open Source CFD Toolbox           |
|  \\    /   O peration     | Version:  3.0.x                                 |
|   \\  /    A nd           | Web:      www.OpenFOAM.org                      |
|    \\/     M anipulation  |                                                 |
\*---------------------------------------------------------------------------*/
FoamFile
{
    version     2.0;
    format      ascii;
    class       surfaceScalarField;
    location    "0.28005";
    object      phi;
}
// * * * * * * * * * * * * * * * * * * * * * * * * * * * * * * * * * * * * * //

dimensions      [1 0 -1 0 0 0 0];

internalField   nonuniform List<scalar> 
26210
(
6.98881
0.000504158
6.98855
0.00034743
6.9883
0.000340008
6.98804
0.000341924
6.98778
0.000341964
6.98753
0.000341804
6.98729
0.00034175
6.98705
0.000341912
6.98684
0.000342041
6.98665
0.000341999
6.98646
0.000342125
6.98627
0.0003422
6.98608
0.00034226
6.98589
0.000342305
6.98572
0.000342321
6.98556
0.000342003
6.9854
0.000342732
6.98526
0.000342367
6.98514
0.000342361
6.98503
0.000342352
6.98494
0.000342314
6.98486
0.000342364
6.9848
0.000342326
6.98475
0.000342321
6.98472
0.000342321
6.98471
0.000342326
6.98473
0.000342339
6.98478
0.000342265
6.98486
0.000342486
6.98496
0.000342561
6.98509
0.000342333
6.98524
0.000342518
6.9854
0.000342465
6.98558
0.000342692
6.98576
0.000342745
6.98596
0.000342744
6.98618
0.000342801
6.98642
0.000342856
6.98668
0.000342734
6.98696
0.000343159
6.98724
0.000343019
6.98753
0.000343079
6.98782
0.000343135
6.9881
0.00034311
6.98837
0.000343286
6.98862
0.000343275
6.98885
0.000343293
6.98908
0.000343317
6.98928
0.000343336
6.98945
0.000343346
6.98959
0.000343353
6.98969
0.000343348
6.98975
0.000343334
6.98976
0.000343265
6.98973
0.000343308
6.98965
0.000343222
6.98952
0.000343128
6.98934
0.000342975
6.98911
0.000342241
6.98883
0.000344288
6.9885
0.000341351
6.98809
0.00034188
6.9876
0.000341267
6.98705
0.000340571
6.98643
0.000339586
6.98575
0.00033831
6.98499
0.00033668
6.98418
0.000334623
6.98329
0.000332065
6.98235
0.000328927
6.98136
0.000325129
6.9803
0.000320596
6.9792
0.000315254
6.97806
0.000309043
6.97687
0.000301913
6.97564
0.000293834
6.97439
0.000284792
6.97311
0.000274799
6.9718
0.000263889
6.97049
0.000252122
6.96916
0.000239582
6.96783
0.000226376
6.9665
0.000212629
6.96517
0.000198485
6.96386
0.000184096
6.96256
0.000169623
6.96128
0.000155226
6.96002
0.000141062
6.95878
0.000127277
6.95758
0.000114005
6.95641
0.000101362
6.95527
8.94439e-05
6.95417
7.83259e-05
6.9531
6.80604e-05
6.95208
5.86779e-05
6.95109
5.01886e-05
6.95015
4.25839e-05
6.94924
3.58388e-05
6.94838
2.99146e-05
6.94755
2.47617e-05
6.94677
2.03227e-05
6.94603
1.65352e-05
6.94533
1.33341e-05
6.94466
1.06542e-05
6.94404
8.43162e-06
6.94345
6.60596e-06
6.9429
5.12065e-06
6.94238
3.92406e-06
6.9419
2.9697e-06
6.94145
2.21628e-06
6.94103
1.62771e-06
6.94064
1.1729e-06
6.94028
8.25443e-07
6.93995
5.63206e-07
6.93964
3.67887e-07
6.93936
2.24536e-07
6.9391
1.21177e-07
6.93886
4.8296e-08
6.93864
-1.40608e-09
6.93844
-3.42516e-08
6.93826
-5.44896e-08
6.9381
-6.56928e-08
6.93795
-7.05495e-08
6.93781
-7.09642e-08
6.93769
-6.83776e-08
6.93758
-6.3892e-08
6.93748
-5.8315e-08
6.93739
-5.2125e-08
6.93731
-4.56657e-08
6.93724
-3.92447e-08
6.93717
-3.30692e-08
6.93712
-2.73321e-08
6.93707
-2.20589e-08
6.93702
-1.71767e-08
6.93698
-1.26602e-08
6.93694
-8.48559e-09
6.93691
-4.68208e-09
6.93688
-1.21327e-09
6.93686
1.96997e-09
6.93684
4.95675e-09
6.93682
7.7689e-09
6.9368
1.04719e-08
6.93678
1.30913e-08
6.93677
1.58452e-08
6.93675
1.84755e-08
6.93674
2.10093e-08
6.93672
2.3223e-08
6.9367
2.58478e-08
6.93669
2.81671e-08
6.93667
2.69283e-08
6.93666
3.16686e-08
6.93664
3.40497e-08
6.93662
3.38932e-08
6.9366
4.06617e-08
6.93659
2.90675e-08
6.93657
4.80941e-08
6.93655
2.4691e-08
6.93654
3.5534e-08
6.93652
3.40369e-08
6.93651
3.3815e-08
6.93649
5.7662e-08
6.93648
4.32556e-09
6.93647
3.94539e-08
6.93646
3.78441e-08
6.93646
3.99104e-08
6.93645
5.85715e-08
6.93644
-1.91358e-09
6.93644
6.85941e-08
6.93644
1.17034e-08
6.93644
3.2187e-08
6.93644
3.4488e-08
6.93644
2.85454e-08
6.93645
2.97641e-08
6.93645
5.5792e-08
6.93646
1.26347e-08
6.93647
9.48421e-08
6.93648
-1.32859e-08
6.93649
4.58895e-08
6.9365
3.22325e-08
6.93651
4.24552e-08
6.93653
3.27655e-08
6.93654
5.44114e-08
6.93656
3.24198e-08
6.93658
1.10065e-07
6.9366
2.77032e-09
6.93663
6.74299e-08
6.93665
4.1744e-08
6.93668
7.41275e-08
6.9367
7.88987e-08
6.93673
2.73147e-07
6.93676
8.6229e-07
6.93679
4.17857e-06
6.93681
1.97546e-05
6.93675
9.558e-05
6.93633
0.000461557
6.93415
0.00222005
6.92394
0.0102587
6.8772
0.0467797
6.6452
0.232057
0.909075
5.73617
9.88461
0.000460001
9.88475
0.000330549
9.8849
0.000315146
9.88504
0.000319062
9.88517
0.000319383
9.88532
0.000319024
9.88548
0.000318987
9.88566
0.000319162
9.88586
0.000319308
9.88609
0.000319295
9.88633
0.000319433
9.88656
0.00031953
9.8868
0.000319609
9.88704
0.000319675
9.8873
0.000319717
9.88758
0.000319457
9.88786
0.000320123
9.88817
0.000319831
9.8885
0.000319846
9.88885
0.000319861
9.88923
0.000319848
9.88962
0.000319919
9.89003
0.000319907
9.89047
0.000319925
9.89093
0.000319948
9.89142
0.000319977
9.89195
0.000320011
9.89253
0.000319974
9.89314
0.00032019
9.8938
0.000320294
9.89449
0.000320099
9.8952
0.000320294
9.89593
0.000320283
9.89669
0.000320498
9.89745
0.000320579
9.89823
0.000320604
9.89905
0.000320679
9.8999
0.000320754
9.90077
0.000320678
9.90166
0.000321072
9.90257
0.000320983
9.90348
0.000321055
9.90439
0.000321135
9.90529
0.000321147
9.90618
0.000321308
9.90704
0.000321338
9.90788
0.000321376
9.9087
0.000321422
9.90949
0.000321463
9.91024
0.000321495
9.91095
0.000321528
9.9116
0.000321543
9.91218
0.000321554
9.91271
0.000321514
9.91316
0.000321574
9.91355
0.000321515
9.91387
0.000321446
9.91412
0.00032133
9.9143
0.000320681
9.91441
0.00032247
9.91444
0.000319945
9.91436
0.000320339
9.91418
0.000319779
9.9139
0.00031912
9.91353
0.000318186
9.91306
0.000316969
9.91249
0.000315408
9.91182
0.000313436
9.91107
0.000310982
9.91022
0.00030797
9.90929
0.000304325
9.90827
0.000299976
9.90718
0.000294855
9.90601
0.000288906
9.90477
0.000282086
9.90348
0.000274367
9.90212
0.00026574
9.90071
0.00025622
9.89926
0.000245843
9.89777
0.000234669
9.89624
0.000222782
9.89469
0.000210284
9.89313
0.000197299
9.89155
0.000183963
9.88996
0.000170422
9.88837
0.000156827
9.88679
0.000143329
9.88522
0.000130076
9.88366
0.000117202
9.88213
0.000104832
9.88062
9.30712e-05
9.87915
8.20067e-05
9.87771
7.1705e-05
9.8763
6.22117e-05
9.87494
5.35521e-05
9.87362
4.5732e-05
9.87234
3.87404e-05
9.87111
3.2551e-05
9.86994
2.71252e-05
9.86881
2.24149e-05
9.86773
1.83649e-05
9.8667
1.49159e-05
9.86573
1.20064e-05
9.86481
9.57507e-06
9.86393
7.56263e-06
9.86311
5.91274e-06
9.86234
4.57306e-06
9.86161
3.49595e-06
9.86093
2.63864e-06
9.8603
1.96328e-06
9.85971
1.43686e-06
9.85916
1.03102e-06
9.85865
7.21728e-07
9.85818
4.88919e-07
9.85774
3.16011e-07
9.85734
1.89531e-07
9.85697
9.8682e-08
9.85663
3.49009e-08
9.85632
-8.13452e-09
9.85604
-3.64435e-08
9.85578
-5.3602e-08
9.85555
-6.27952e-08
9.85534
-6.64349e-08
9.85514
-6.61967e-08
9.85497
-6.33554e-08
9.85481
-5.88898e-08
9.85467
-5.34837e-08
9.85454
-4.75866e-08
9.85443
-4.14748e-08
9.85432
-3.54466e-08
9.85423
-2.96659e-08
9.85415
-2.43053e-08
9.85407
-1.9385e-08
9.85401
-1.4832e-08
9.85395
-1.06284e-08
9.8539
-6.74299e-09
9.85385
-3.1996e-09
9.85381
2.72848e-11
9.85377
2.97041e-09
9.85374
5.74073e-09
9.85371
8.33461e-09
9.85368
1.0843e-08
9.85366
1.31822e-08
9.85364
1.58288e-08
9.85361
1.82172e-08
9.85359
2.05473e-08
9.85357
2.22972e-08
9.85354
2.51275e-08
9.85352
2.70229e-08
9.8535
2.59588e-08
9.85347
3.04535e-08
9.85344
3.24471e-08
9.85342
3.27964e-08
9.85339
3.84498e-08
9.85337
2.62553e-08
9.85334
4.89999e-08
9.85332
2.21007e-08
9.85329
3.57668e-08
9.85327
3.27182e-08
9.85325
3.21088e-08
9.85323
7.36145e-08
9.85321
-2.4178e-08
9.8532
4.48781e-08
9.85318
4.39068e-08
9.85317
3.475e-08
9.85316
8.66785e-08
9.85315
-4.11692e-08
9.85315
1.01012e-07
9.85314
-5.51699e-09
9.85314
2.90365e-08
9.85314
3.28382e-08
9.85314
2.34959e-08
9.85314
1.851e-08
9.85315
5.1512e-08
9.85316
1.48702e-08
9.85317
1.75809e-07
9.85318
-8.51451e-08
9.8532
4.06708e-08
9.85321
3.47773e-08
9.85323
4.30446e-08
9.85325
5.71563e-08
9.85327
2.65791e-08
9.8533
1.08466e-08
9.85332
1.70317e-07
9.85335
-4.05453e-08
9.85338
1.0897e-07
9.85342
2.51021e-10
9.85345
5.5039e-08
9.85349
1.48362e-07
9.85353
5.03391e-07
9.85357
2.05746e-06
9.85361
9.90987e-06
9.85363
4.76415e-05
9.85355
0.000230509
9.85295
0.0011135
9.84987
0.00535642
9.83541
0.0247797
9.76928
0.112977
9.44798
0.553425
2.09951
8.25762
13.9789
0.000401468
13.9792
0.000303697
13.9794
0.00028092
13.9796
0.000286383
13.9797
0.00028713
13.98
0.000286557
13.9802
0.000286508
13.9804
0.000286671
13.9807
0.000286807
13.981
0.000286799
13.9814
0.000286921
13.9817
0.000287013
13.982
0.000287084
13.9824
0.000287145
13.9828
0.000287187
13.9831
0.00028697
13.9835
0.000287524
13.984
0.000287291
13.9845
0.000287302
13.985
0.000287315
13.9855
0.000287303
13.986
0.000287368
13.9866
0.000287358
13.9872
0.000287373
13.9879
0.000287394
13.9886
0.000287419
13.9893
0.00028745
13.9902
0.000287427
13.991
0.000287602
13.992
0.000287708
13.9929
0.000287529
13.9939
0.000287701
13.995
0.000287709
13.996
0.000287876
13.9971
0.00028796
13.9982
0.000287983
13.9994
0.000288051
14.0006
0.000288117
14.0018
0.000288064
14.0031
0.000288389
14.0044
0.00028833
14.0057
0.000288386
14.007
0.000288461
14.0082
0.000288487
14.0095
0.0002886
14.0107
0.000288646
14.0119
0.000288678
14.0131
0.000288719
14.0142
0.000288757
14.0152
0.000288784
14.0162
0.000288817
14.0172
0.000288826
14.018
0.000288838
14.0187
0.000288804
14.0194
0.000288855
14.0199
0.000288804
14.0204
0.000288739
14.0207
0.000288644
14.021
0.000288089
14.0212
0.000289534
14.0212
0.00028751
14.0211
0.000287739
14.0208
0.000287258
14.0204
0.000286666
14.0199
0.000285832
14.0193
0.000284744
14.0185
0.00028335
14.0175
0.000281587
14.0164
0.000279392
14.0153
0.000276698
14.0139
0.000273438
14.0125
0.000269546
14.011
0.000264962
14.0093
0.000259637
14.0076
0.000253529
14.0057
0.000246615
14.0038
0.000238886
14.0018
0.000230355
13.9998
0.000221053
13.9976
0.000211035
13.9955
0.000200374
13.9933
0.000189163
13.9911
0.000177511
13.9888
0.000165541
13.9866
0.000153384
13.9843
0.000141176
13.9821
0.000129051
13.9799
0.000117142
13.9777
0.000105572
13.9755
9.4451e-05
13.9734
8.38745e-05
13.9713
7.39212e-05
13.9692
6.46514e-05
13.9673
5.61065e-05
13.9653
4.83096e-05
13.9635
4.12665e-05
13.9616
3.49675e-05
13.9599
2.93894e-05
13.9582
2.44981e-05
13.9566
2.02503e-05
13.9551
1.65969e-05
13.9537
1.34845e-05
13.9523
1.0858e-05
13.951
8.66253e-06
13.9498
6.84464e-06
13.9486
5.35371e-06
13.9475
4.14266e-06
13.9465
3.1686e-06
13.9455
2.393e-06
13.9446
1.78175e-06
13.9438
1.30509e-06
13.943
9.37433e-07
13.9423
6.57095e-07
13.9416
4.45956e-07
13.941
2.89039e-07
13.9404
1.74166e-07
13.9399
9.15625e-08
13.9394
3.34057e-08
13.939
-5.33601e-09
13.9386
-3.14772e-08
13.9382
-4.72978e-08
13.9379
-5.57739e-08
13.9376
-5.92286e-08
13.9373
-5.91358e-08
13.9371
-5.66774e-08
13.9368
-5.27375e-08
13.9366
-4.79317e-08
13.9365
-4.26667e-08
13.9363
-3.72015e-08
13.9362
-3.18096e-08
13.936
-2.66227e-08
13.9359
-2.18129e-08
13.9358
-1.74009e-08
13.9357
-1.331e-08
13.9356
-9.55015e-09
13.9356
-6.06269e-09
13.9355
-2.85627e-09
13.9354
4.18368e-11
13.9354
2.66527e-09
13.9353
5.15456e-09
13.9353
7.47923e-09
13.9353
9.76934e-09
13.9352
1.17529e-08
13.9352
1.43032e-08
13.9352
1.64032e-08
13.9351
1.85123e-08
13.9351
1.9656e-08
13.9351
2.28438e-08
13.935
2.41666e-08
13.935
2.33872e-08
13.935
2.74449e-08
13.9349
2.88974e-08
13.9349
2.98378e-08
13.9348
3.37782e-08
13.9348
2.09884e-08
13.9348
4.59863e-08
13.9347
1.87461e-08
13.9347
3.4242e-08
13.9347
2.85631e-08
13.9346
2.71939e-08
13.9346
9.1311e-08
13.9346
-6.4892e-08
13.9346
5.04374e-08
13.9345
4.9748e-08
13.9345
2.61489e-08
13.9345
1.18758e-07
13.9345
-9.6381e-08
13.9345
1.33942e-07
13.9345
-2.13518e-08
13.9345
2.23458e-08
13.9345
2.80611e-08
13.9345
1.39726e-08
13.9345
8.70978e-09
13.9345
3.48837e-08
13.9345
1.43837e-08
13.9345
2.89463e-07
13.9345
-1.90848e-07
13.9346
2.61689e-08
13.9346
4.1437e-08
13.9346
4.26239e-08
13.9346
1.13816e-07
13.9347
-3.98686e-08
13.9347
-2.32276e-08
13.9347
2.66772e-07
13.9348
-1.17859e-07
13.9348
1.57276e-07
13.9349
-5.27684e-08
13.9349
2.74899e-08
13.935
2.41003e-07
13.935
8.18513e-07
13.9351
3.71415e-06
13.9352
1.7766e-05
13.9352
8.59632e-05
13.9351
0.000415945
13.9343
0.00200962
13.93
0.00966812
13.9101
0.0447659
13.8193
0.203885
13.3845
0.988316
3.66297
11.8212
61.706
0.000184708
61.7069
0.000159286
61.7079
0.000139557
61.7087
0.000142206
61.7095
0.000144154
61.7105
0.000143483
61.7115
0.000143324
61.7126
0.000143392
61.7138
0.00014345
61.7153
0.00014344
61.7167
0.000143488
61.7182
0.000143533
61.7197
0.000143564
61.7212
0.000143591
61.7229
0.000143615
61.7246
0.000143527
61.7263
0.000143742
61.7283
0.00014366
61.7303
0.000143661
61.7325
0.000143665
61.7349
0.000143657
61.7373
0.00014369
61.7399
0.000143684
61.7426
0.00014369
61.7455
0.000143699
61.7486
0.00014371
61.7519
0.000143726
61.7555
0.000143724
61.7594
0.000143791
61.7635
0.000143855
61.7678
0.000143767
61.7722
0.000143846
61.7768
0.000143871
61.7815
0.000143924
61.7863
0.000143977
61.7912
0.000143992
61.7963
0.000144025
61.8016
0.000144057
61.807
0.000144049
61.8126
0.000144176
61.8183
0.000144171
61.824
0.000144189
61.8297
0.000144232
61.8353
0.000144261
61.8408
0.000144279
61.8462
0.000144326
61.8515
0.00014434
61.8566
0.000144359
61.8616
0.000144379
61.8663
0.000144391
61.8707
0.000144412
61.8747
0.00014441
61.8784
0.000144417
61.8817
0.000144405
61.8845
0.000144426
61.887
0.000144402
61.889
0.000144367
61.8905
0.000144325
61.8917
0.000144111
61.8924
0.000144593
61.8926
0.000143895
61.8921
0.000143871
61.8909
0.00014365
61.8892
0.000143355
61.8869
0.000142946
61.884
0.000142411
61.8804
0.000141725
61.8763
0.000140856
61.8716
0.000139774
61.8663
0.000138444
61.8605
0.000136833
61.8541
0.000134908
61.8473
0.000132639
61.84
0.000130001
61.8323
0.000126973
61.8242
0.000123542
61.8157
0.000119704
61.807
0.000115464
61.7979
0.000110838
61.7886
0.000105851
61.7791
0.00010054
61.7694
9.49517e-05
61.7596
8.91389e-05
61.7497
8.31628e-05
61.7398
7.70888e-05
61.7299
7.09845e-05
61.72
6.4918e-05
61.7102
5.89551e-05
61.7004
5.31576e-05
61.6909
4.75812e-05
61.6815
4.22742e-05
61.6722
3.72764e-05
61.6632
3.26187e-05
61.6544
2.83223e-05
61.6459
2.43993e-05
61.6377
2.08533e-05
61.6297
1.76798e-05
61.622
1.48677e-05
61.6147
1.24002e-05
61.6076
1.02559e-05
61.6009
8.41053e-06
61.5945
6.83741e-06
61.5884
5.50907e-06
61.5826
4.39799e-06
61.5772
3.47742e-06
61.572
2.72194e-06
61.5672
2.10789e-06
61.5627
1.61368e-06
61.5584
1.21991e-06
61.5545
9.09359e-07
61.5508
6.67026e-07
61.5474
4.79978e-07
61.5442
3.37241e-07
61.5412
2.29638e-07
61.5385
1.49586e-07
61.536
9.09229e-08
61.5337
4.87544e-08
61.5316
1.94379e-08
61.5297
-1.88788e-09
61.5279
-1.49021e-08
61.5263
-2.28208e-08
61.5248
-2.7301e-08
61.5235
-2.91925e-08
61.5223
-2.92614e-08
61.5212
-2.81207e-08
61.5202
-2.62207e-08
61.5193
-2.38626e-08
61.5185
-2.12553e-08
61.5178
-1.8556e-08
61.5172
-1.58705e-08
61.5166
-1.32939e-08
61.5161
-1.08789e-08
61.5156
-8.68681e-09
61.5152
-6.63749e-09
61.5148
-4.80441e-09
61.5145
-2.94744e-09
61.5142
-1.50703e-09
61.514
5.45697e-12
61.5137
1.33764e-09
61.5135
2.60866e-09
61.5134
3.69459e-09
61.5132
5.03223e-09
61.513
5.41559e-09
61.5129
7.62316e-09
61.5127
8.37827e-09
61.5126
9.52127e-09
61.5125
7.97127e-09
61.5123
1.30074e-08
61.5122
1.12536e-08
61.512
1.23123e-08
61.5119
1.41738e-08
61.5117
1.30178e-08
61.5115
1.69882e-08
61.5114
1.38248e-08
61.5112
-2.23349e-09
61.511
3.47713e-08
61.5109
-4.23597e-10
61.5107
2.93655e-08
61.5106
1.04183e-08
61.5105
-1.0682e-09
61.5104
1.92157e-07
61.5102
-2.72942e-07
61.5101
8.90511e-08
61.5101
7.24926e-08
61.51
-1.72392e-08
61.5099
2.74233e-07
61.5099
-3.65974e-07
61.5098
2.78749e-07
61.5098
-7.96822e-08
61.5098
3.63798e-11
61.5098
7.35554e-09
61.5098
-3.25042e-08
61.5098
-6.60373e-08
61.5099
-6.94763e-09
61.5099
2.76577e-09
61.51
8.61859e-07
61.5101
-7.28784e-07
61.5101
-1.95982e-08
61.5102
6.56537e-08
61.5104
3.51838e-08
61.5105
2.59126e-08
61.5106
5.06998e-09
61.5108
-1.70117e-07
61.5109
8.88005e-07
61.5111
-6.531e-07
61.5113
1.7328e-07
61.5115
-8.90336e-08
61.5117
2.46578e-07
61.512
2.61831e-07
61.5122
2.30999e-06
61.5125
9.85773e-06
61.5128
4.91159e-05
61.5129
0.000235185
61.5125
0.00114105
61.5093
0.0055156
61.4929
0.0265011
61.4153
0.122744
61.0678
0.551738
59.6194
2.43719
8.75887
54.5239
61.706
1.13687e-12
61.7069
-6.82121e-13
61.7078
0
61.7087
4.54747e-13
61.7095
4.54747e-13
61.7104
-2.27374e-13
61.7114
-1.13687e-12
61.7125
-1.59162e-12
61.7138
-9.09495e-13
61.7153
-4.54747e-13
61.7167
4.54747e-13
61.7182
-2.27374e-13
61.7197
9.09495e-13
61.7212
-2.27374e-13
61.7228
-1.13687e-12
61.7245
-1.59162e-12
61.7263
-4.54747e-13
61.7282
6.82121e-13
61.7303
0
61.7325
1.13687e-12
61.7349
-1.36424e-12
61.7373
-4.54747e-13
61.7399
-1.36424e-12
61.7426
-1.59162e-12
61.7455
-9.09495e-13
61.7486
-2.27374e-12
61.7519
-2.27374e-13
61.7555
1.81899e-12
61.7593
1.13687e-12
61.7634
4.54747e-13
61.7677
-1.36424e-12
61.7722
-6.82121e-13
61.7768
2.27374e-13
61.7815
2.27374e-13
61.7862
2.50111e-12
61.7912
6.82121e-13
61.7963
2.27374e-12
61.8016
3.18323e-12
61.807
1.59162e-12
61.8126
1.13687e-12
61.8183
-1.36424e-12
61.824
4.54747e-13
61.8296
-6.82121e-13
61.8353
2.27374e-13
61.8408
-6.82121e-13
61.8462
-6.82121e-13
61.8515
-4.54747e-13
61.8566
2.27374e-13
61.8615
-2.27374e-13
61.8662
-9.09495e-13
61.8706
-1.36424e-12
61.8747
-4.54747e-13
61.8784
4.54747e-13
61.8816
4.54747e-13
61.8845
9.09495e-13
61.8869
2.27374e-13
61.8889
6.82121e-13
61.8905
-6.82121e-13
61.8916
-2.27374e-13
61.8924
-4.54747e-13
61.8925
1.81899e-12
61.8921
2.04636e-12
61.8909
1.59162e-12
61.8892
0
61.8869
-1.36424e-12
61.8839
-4.54747e-13
61.8804
4.54747e-13
61.8763
0
61.8715
1.36424e-12
61.8663
0
61.8605
-1.13687e-12
61.8541
-4.54747e-13
61.8473
-4.54747e-13
61.84
-1.13687e-12
61.8323
-2.04636e-12
61.8242
1.13687e-12
61.8157
1.81899e-12
61.8069
-1.81899e-12
61.7979
-2.27374e-13
61.7886
1.13687e-12
61.779
4.54747e-13
61.7694
-2.27374e-13
61.7596
1.13687e-12
61.7497
-4.54747e-13
61.7398
1.13687e-12
61.7299
2.27374e-13
61.72
-4.54747e-13
61.7102
-1.13687e-12
61.7004
-2.95586e-12
61.6909
-6.82121e-13
61.6814
-9.09495e-13
61.6722
-1.81899e-12
61.6632
4.54747e-13
61.6544
-4.54747e-13
61.6459
4.54747e-13
61.6377
-2.27374e-13
61.6297
-1.13687e-12
61.622
-1.13687e-12
61.6147
2.27374e-13
61.6076
-4.54747e-13
61.6009
-6.82121e-13
61.5945
2.27374e-13
61.5884
2.27374e-13
61.5826
4.54747e-13
61.5772
1.59162e-12
61.572
-4.54747e-13
61.5672
-1.13687e-12
61.5627
-4.54747e-13
61.5584
9.09495e-13
61.5545
-9.09495e-13
61.5508
-6.82121e-13
61.5474
4.54747e-13
61.5442
6.82121e-13
61.5412
6.82121e-13
61.5385
1.13687e-12
61.536
2.27374e-12
61.5337
2.27374e-13
61.5316
-4.54747e-13
61.5297
-2.27374e-12
61.5279
-9.09495e-13
61.5263
-6.82121e-13
61.5248
-9.09495e-13
61.5235
-1.59162e-12
61.5223
0
61.5212
-2.27374e-13
61.5202
2.27374e-13
61.5193
-1.81899e-12
61.5185
1.02318e-11
61.5178
-1.06866e-11
61.5172
6.13909e-12
61.5166
-1.56888e-11
61.5161
2.47837e-11
61.5156
-1.36424e-11
61.5152
4.00178e-11
61.5148
-1.05274e-10
61.5145
1.1164e-10
61.5142
-1.02773e-10
61.514
7.88987e-11
61.5137
-5.32054e-11
61.5135
7.18501e-11
61.5134
-1.5234e-10
61.5132
3.90855e-10
61.513
-1.00158e-09
61.5129
9.6361e-10
61.5127
-4.54747e-11
61.5126
1.18644e-09
61.5125
-3.7769e-09
61.5123
2.9504e-09
61.5122
-2.49815e-09
61.512
2.58456e-09
61.5119
-3.34921e-10
61.5117
1.71667e-10
61.5115
-1.65664e-09
61.5114
-1.11979e-08
61.5112
9.2532e-09
61.511
-1.39121e-07
61.5109
1.00279e-07
61.5107
4.3769e-08
61.5106
-1.59323e-08
61.5105
-3.9822e-08
61.5104
2.58314e-07
61.5102
-4.85478e-07
61.5101
1.98766e-07
61.5101
9.86681e-08
61.51
1.12635e-07
61.5099
-2.56935e-08
61.5099
4.94176e-08
61.5098
-1.39471e-07
61.5098
-1.55721e-08
61.5098
-2.77441e-09
61.5098
-9.80435e-09
61.5098
-5.077e-08
61.5098
2.85306e-07
61.5099
-4.13633e-07
61.5099
3.34956e-07
61.51
2.69273e-07
61.5101
-8.21958e-08
61.5101
-5.50555e-07
61.5102
3.41455e-07
61.5104
-8.84691e-08
61.5105
7.40633e-08
61.5106
-1.19782e-07
61.5108
3.88732e-08
61.5109
3.24841e-07
61.5111
-5.46488e-08
61.5113
-4.10308e-07
61.5115
3.37762e-07
61.5117
-5.33171e-08
61.512
7.86089e-07
61.5122
2.48408e-06
61.5125
1.25325e-05
61.5128
6.05161e-05
61.513
0.00029312
61.5131
0.00141965
61.512
0.00688074
61.5057
0.0331491
61.4734
0.155418
61.316
0.709549
60.5624
3.19122
11.6146
57.7072
61.706
-0.000184708
61.7069
-0.000159286
61.7078
-0.000139557
61.7087
-0.000142206
61.7095
-0.000144154
61.7104
-0.000143483
61.7114
-0.000143324
61.7125
-0.000143392
61.7138
-0.00014345
61.7153
-0.00014344
61.7167
-0.000143488
61.7182
-0.000143533
61.7197
-0.000143564
61.7212
-0.000143591
61.7228
-0.000143615
61.7245
-0.000143527
61.7263
-0.000143742
61.7282
-0.00014366
61.7303
-0.000143661
61.7325
-0.000143665
61.7349
-0.000143657
61.7373
-0.00014369
61.7399
-0.000143684
61.7426
-0.00014369
61.7455
-0.000143699
61.7486
-0.00014371
61.7519
-0.000143726
61.7555
-0.000143724
61.7593
-0.000143791
61.7634
-0.000143855
61.7677
-0.000143767
61.7722
-0.000143846
61.7768
-0.000143871
61.7815
-0.000143924
61.7862
-0.000143977
61.7912
-0.000143992
61.7963
-0.000144025
61.8016
-0.000144057
61.807
-0.000144049
61.8126
-0.000144176
61.8183
-0.000144171
61.824
-0.000144189
61.8296
-0.000144232
61.8353
-0.000144261
61.8408
-0.000144279
61.8462
-0.000144326
61.8515
-0.00014434
61.8566
-0.000144359
61.8615
-0.000144379
61.8662
-0.000144391
61.8706
-0.000144412
61.8747
-0.00014441
61.8784
-0.000144417
61.8816
-0.000144405
61.8845
-0.000144426
61.8869
-0.000144402
61.8889
-0.000144367
61.8905
-0.000144325
61.8916
-0.000144111
61.8924
-0.000144593
61.8925
-0.000143895
61.8921
-0.000143871
61.8909
-0.00014365
61.8892
-0.000143355
61.8869
-0.000142946
61.8839
-0.000142411
61.8804
-0.000141725
61.8763
-0.000140856
61.8715
-0.000139774
61.8663
-0.000138444
61.8605
-0.000136833
61.8541
-0.000134908
61.8473
-0.000132639
61.84
-0.000130001
61.8323
-0.000126973
61.8242
-0.000123542
61.8157
-0.000119704
61.8069
-0.000115464
61.7979
-0.000110838
61.7886
-0.000105851
61.779
-0.00010054
61.7694
-9.49517e-05
61.7596
-8.91389e-05
61.7497
-8.31628e-05
61.7398
-7.70888e-05
61.7299
-7.09845e-05
61.72
-6.4918e-05
61.7102
-5.89551e-05
61.7004
-5.31576e-05
61.6909
-4.75812e-05
61.6814
-4.22742e-05
61.6722
-3.72764e-05
61.6632
-3.26187e-05
61.6544
-2.83223e-05
61.6459
-2.43993e-05
61.6377
-2.08533e-05
61.6297
-1.76798e-05
61.622
-1.48677e-05
61.6147
-1.24002e-05
61.6076
-1.02559e-05
61.6009
-8.41053e-06
61.5945
-6.83741e-06
61.5884
-5.50907e-06
61.5826
-4.39799e-06
61.5772
-3.47742e-06
61.572
-2.72194e-06
61.5672
-2.10789e-06
61.5627
-1.61368e-06
61.5584
-1.2199e-06
61.5545
-9.0936e-07
61.5508
-6.67027e-07
61.5474
-4.79976e-07
61.5442
-3.37239e-07
61.5412
-2.29635e-07
61.5385
-1.49582e-07
61.536
-9.09185e-08
61.5337
-4.87535e-08
61.5316
-1.94395e-08
61.5297
1.88311e-09
61.5279
1.48998e-08
61.5263
2.28199e-08
61.5248
2.73012e-08
61.5235
2.91884e-08
61.5223
2.92614e-08
61.5212
2.81211e-08
61.5202
2.62198e-08
61.5193
2.38583e-08
61.5185
2.12701e-08
61.5178
1.85403e-08
61.5172
1.58789e-08
61.5166
1.32723e-08
61.5161
1.09187e-08
61.5156
8.66748e-09
61.5152
6.69775e-09
61.5148
4.63547e-09
61.5145
3.14026e-09
61.5142
1.32923e-09
61.514
1.15961e-10
61.5137
-1.41131e-09
61.5135
-2.55e-09
61.5134
-3.81669e-09
61.5132
-4.63479e-09
61.513
-6.71434e-09
61.5129
-6.2978e-09
61.5127
-8.20091e-09
61.5126
-8.27458e-09
61.5125
-1.34578e-08
61.5123
-8.22411e-09
61.5122
-1.48498e-08
61.512
-7.13203e-09
61.5119
-1.55176e-08
61.5117
-1.59416e-08
61.5115
-1.41952e-08
61.5114
-1.85387e-08
61.5112
-1.18696e-08
61.511
-9.00523e-08
61.5109
2.94601e-08
61.5107
1.42618e-08
61.5106
-2.11517e-08
61.5105
-2.90665e-08
61.5104
9.8345e-08
61.5102
-2.88847e-07
61.5101
1.03101e-07
61.5101
5.54253e-08
61.51
8.80948e-08
61.5099
-1.02944e-07
61.5099
1.21685e-07
61.5098
-3.07972e-07
61.5098
9.85494e-08
61.5098
-7.69705e-09
61.5098
-2.40434e-08
61.5098
-8.87524e-08
61.5098
1.89494e-07
61.5099
-1.58005e-07
61.5099
-3.2705e-08
61.51
1.68808e-07
61.5101
4.8808e-08
61.5101
-1.13203e-08
61.5102
-1.08188e-07
61.5104
-1.66006e-07
61.5105
6.75461e-08
61.5106
-1.70679e-07
61.5108
-2.05025e-07
61.5109
2.46276e-07
61.5111
1.64923e-07
61.5113
7.80099e-08
61.5115
-8.66196e-08
61.5117
1.52656e-08
61.512
4.59101e-07
61.5122
1.94175e-06
61.5125
1.00715e-05
61.5128
4.87434e-05
61.5132
0.000236477
61.5138
0.00115204
61.5153
0.00561947
61.5212
0.0276024
61.5474
0.129608
61.643
0.614428
61.7973
3.03734
10.6557
62.7566
61.706
-0.000401468
61.7069
-0.000303697
61.7079
-0.00028092
61.7087
-0.000286383
61.7095
-0.00028713
61.7105
-0.000286557
61.7115
-0.000286508
61.7126
-0.000286671
61.7138
-0.000286807
61.7153
-0.000286799
61.7167
-0.000286921
61.7182
-0.000287013
61.7197
-0.000287084
61.7212
-0.000287145
61.7229
-0.000287187
61.7246
-0.00028697
61.7263
-0.000287524
61.7283
-0.000287291
61.7303
-0.000287302
61.7325
-0.000287315
61.7349
-0.000287303
61.7373
-0.000287368
61.7399
-0.000287358
61.7426
-0.000287373
61.7455
-0.000287394
61.7486
-0.000287419
61.7519
-0.00028745
61.7555
-0.000287427
61.7594
-0.000287602
61.7635
-0.000287708
61.7678
-0.000287529
61.7722
-0.000287701
61.7768
-0.000287709
61.7815
-0.000287876
61.7863
-0.00028796
61.7912
-0.000287983
61.7963
-0.000288051
61.8016
-0.000288117
61.807
-0.000288064
61.8126
-0.000288389
61.8183
-0.00028833
61.824
-0.000288386
61.8297
-0.000288461
61.8353
-0.000288487
61.8408
-0.0002886
61.8462
-0.000288646
61.8515
-0.000288678
61.8566
-0.000288719
61.8616
-0.000288757
61.8663
-0.000288784
61.8707
-0.000288817
61.8747
-0.000288826
61.8784
-0.000288838
61.8817
-0.000288804
61.8845
-0.000288855
61.887
-0.000288804
61.889
-0.000288739
61.8905
-0.000288644
61.8917
-0.000288089
61.8924
-0.000289534
61.8926
-0.00028751
61.8921
-0.000287739
61.8909
-0.000287258
61.8892
-0.000286666
61.8869
-0.000285832
61.884
-0.000284744
61.8804
-0.00028335
61.8763
-0.000281587
61.8716
-0.000279392
61.8663
-0.000276698
61.8605
-0.000273438
61.8541
-0.000269546
61.8473
-0.000264962
61.84
-0.000259637
61.8323
-0.000253529
61.8242
-0.000246615
61.8157
-0.000238886
61.807
-0.000230355
61.7979
-0.000221053
61.7886
-0.000211035
61.7791
-0.000200374
61.7694
-0.000189163
61.7596
-0.000177511
61.7497
-0.000165541
61.7398
-0.000153384
61.7299
-0.000141176
61.72
-0.000129051
61.7102
-0.000117142
61.7004
-0.000105572
61.6909
-9.4451e-05
61.6815
-8.38745e-05
61.6722
-7.39212e-05
61.6632
-6.46514e-05
61.6544
-5.61065e-05
61.6459
-4.83096e-05
61.6377
-4.12665e-05
61.6297
-3.49675e-05
61.622
-2.93894e-05
61.6147
-2.44981e-05
61.6076
-2.02503e-05
61.6009
-1.65969e-05
61.5945
-1.34845e-05
61.5884
-1.0858e-05
61.5826
-8.66253e-06
61.5772
-6.84464e-06
61.572
-5.35371e-06
61.5672
-4.14267e-06
61.5627
-3.1686e-06
61.5584
-2.393e-06
61.5545
-1.78175e-06
61.5508
-1.30509e-06
61.5474
-9.3743e-07
61.5442
-6.57094e-07
61.5412
-4.45952e-07
61.5385
-2.89038e-07
61.536
-1.7416e-07
61.5337
-9.15625e-08
61.5316
-3.34066e-08
61.5297
5.33237e-09
61.5279
3.14744e-08
61.5263
4.72969e-08
61.5248
5.57743e-08
61.5235
5.92254e-08
61.5223
5.91363e-08
61.5212
5.66783e-08
61.5202
5.27375e-08
61.5193
4.79313e-08
61.5185
4.26717e-08
61.5178
3.71961e-08
61.5172
3.18132e-08
61.5166
2.66141e-08
61.5161
2.18301e-08
61.5156
1.73904e-08
61.5152
1.33332e-08
61.5148
9.48239e-09
61.5145
6.13181e-09
61.5142
2.79579e-09
61.514
2.27374e-12
61.5137
-2.68574e-09
61.5135
-5.12864e-09
61.5134
-7.53516e-09
61.5132
-9.59972e-09
61.513
-1.22295e-08
61.5129
-1.38343e-08
61.5127
-1.633e-08
61.5126
-1.80771e-08
61.5125
-2.15382e-08
61.5123
-2.12467e-08
61.5122
-2.51348e-08
61.512
-2.13354e-08
61.5119
-2.85736e-08
61.5117
-2.93007e-08
61.5115
-2.87787e-08
61.5114
-3.66326e-08
61.5112
-2.77423e-08
61.511
-4.57749e-08
61.5109
-2.57296e-08
61.5107
-1.84828e-08
61.5106
-3.3499e-08
61.5105
-2.25591e-08
61.5104
-8.52742e-09
61.5102
-1.08392e-07
61.5101
-2.11139e-09
61.5101
-5.80212e-09
61.51
-8.3628e-10
61.5099
-7.75494e-08
61.5099
2.97473e-08
61.5098
-1.70138e-07
61.5098
5.32095e-08
61.5098
-3.12057e-08
61.5098
-3.16154e-08
61.5098
-2.06493e-07
61.5098
1.7787e-07
61.5099
-2.63835e-07
61.5099
2.78113e-07
61.51
-2.93754e-07
61.5101
2.07119e-07
61.5101
-1.57831e-07
61.5102
4.16803e-08
61.5104
-1.27496e-07
61.5105
3.75744e-08
61.5106
-1.56574e-07
61.5108
2.53937e-07
61.5109
-4.82214e-07
61.5111
3.12726e-07
61.5113
-2.18839e-07
61.5115
9.51027e-08
61.5117
-2.17894e-07
61.512
2.86977e-07
61.5122
6.58998e-07
61.5125
3.65224e-06
61.5128
1.77473e-05
61.5133
8.59887e-05
61.5143
0.000420921
61.5182
0.00205729
61.536
0.0101785
61.6176
0.0484145
61.9889
0.243473
63.3974
1.62935
5.47599
68.5775
13.9789
-0.000460001
13.9792
-0.000330549
13.9794
-0.000315146
13.9796
-0.000319062
13.9797
-0.000319383
13.98
-0.000319024
13.9802
-0.000318987
13.9804
-0.000319162
13.9807
-0.000319308
13.981
-0.000319295
13.9814
-0.000319433
13.9817
-0.00031953
13.982
-0.000319609
13.9824
-0.000319675
13.9828
-0.000319717
13.9831
-0.000319457
13.9835
-0.000320123
13.984
-0.000319831
13.9845
-0.000319846
13.985
-0.000319861
13.9855
-0.000319848
13.986
-0.000319919
13.9866
-0.000319907
13.9872
-0.000319925
13.9879
-0.000319948
13.9886
-0.000319977
13.9893
-0.000320011
13.9902
-0.000319974
13.991
-0.00032019
13.992
-0.000320294
13.9929
-0.000320099
13.9939
-0.000320294
13.995
-0.000320283
13.996
-0.000320498
13.9971
-0.000320579
13.9982
-0.000320604
13.9994
-0.000320679
14.0006
-0.000320754
14.0018
-0.000320678
14.0031
-0.000321072
14.0044
-0.000320983
14.0057
-0.000321055
14.007
-0.000321135
14.0082
-0.000321147
14.0095
-0.000321308
14.0107
-0.000321338
14.0119
-0.000321376
14.0131
-0.000321422
14.0142
-0.000321464
14.0152
-0.000321495
14.0162
-0.000321528
14.0172
-0.000321543
14.018