/*--------------------------------*- C++ -*----------------------------------*\
| =========                 |                                                 |
| \\      /  F ield         | OpenFOAM: The Open Source CFD Toolbox           |
|  \\    /   O peration     | Version:  3.0.x                                 |
|   \\  /    A nd           | Web:      www.OpenFOAM.org                      |
|    \\/     M anipulation  |                                                 |
\*---------------------------------------------------------------------------*/
FoamFile
{
    version     2.0;
    format      ascii;
    class       volVectorField;
    location    "0.07995";
    object      U;
}
// * * * * * * * * * * * * * * * * * * * * * * * * * * * * * * * * * * * * * //

dimensions      [0 1 -1 0 0 0 0];

internalField   nonuniform List<vector> 
27600
(
(42.6763 0.000288407 0)
(42.639 0.000241885 0)
(42.5988 0.000238523 0)
(42.5632 0.000240607 0)
(42.5313 0.000242108 0)
(42.5022 0.000242289 0)
(42.4761 0.000240281 0)
(42.4533 0.000235035 0)
(42.4342 0.000225564 0)
(42.4187 0.000211246 0)
(42.4069 0.000192106 0)
(42.3985 0.000168961 0)
(42.3934 0.00014325 0)
(42.3911 0.000116842 0)
(42.3911 9.15705e-05 0)
(42.3928 6.8894e-05 0)
(42.3955 4.97848e-05 0)
(42.3988 3.45563e-05 0)
(42.4021 2.30622e-05 0)
(42.4051 1.48172e-05 0)
(42.4076 9.18249e-06 0)
(42.4092 5.50297e-06 0)
(42.4101 3.20129e-06 0)
(42.4102 1.82014e-06 0)
(42.4096 1.02582e-06 0)
(42.4084 5.8531e-07 0)
(42.4068 3.53641e-07 0)
(42.4048 2.40335e-07 0)
(42.4028 1.87482e-07 0)
(42.4007 1.62626e-07 0)
(42.3985 1.60506e-07 0)
(42.3964 1.56759e-07 0)
(42.3944 1.55758e-07 0)
(42.3926 1.56023e-07 0)
(42.3909 1.56452e-07 0)
(42.3894 1.56387e-07 0)
(42.3881 1.5632e-07 0)
(42.387 1.5619e-07 0)
(42.386 1.5592e-07 0)
(42.3851 1.55541e-07 0)
(42.3844 1.55165e-07 0)
(42.3838 1.54931e-07 0)
(42.3833 1.54609e-07 0)
(42.3829 1.54372e-07 0)
(42.3826 1.54209e-07 0)
(42.3823 1.53964e-07 0)
(42.382 1.53826e-07 0)
(42.3819 1.53759e-07 0)
(42.3817 1.53678e-07 0)
(42.3816 1.53622e-07 0)
(42.3815 1.53592e-07 0)
(42.3815 1.53651e-07 0)
(42.3814 1.53735e-07 0)
(42.3814 1.53678e-07 0)
(42.3814 1.53713e-07 0)
(42.3814 1.53791e-07 0)
(42.3815 1.5388e-07 0)
(42.3815 1.53997e-07 0)
(42.3816 1.54118e-07 0)
(42.3816 1.54246e-07 0)
(42.3817 1.54381e-07 0)
(42.3817 1.54558e-07 0)
(42.3818 1.5472e-07 0)
(42.3818 1.54891e-07 0)
(42.3819 1.55062e-07 0)
(42.3819 1.55262e-07 0)
(42.3819 1.5547e-07 0)
(42.3819 1.5564e-07 0)
(42.382 1.55839e-07 0)
(42.3819 1.56009e-07 0)
(42.3819 1.56226e-07 0)
(42.3819 1.56397e-07 0)
(42.3819 1.56567e-07 0)
(42.3818 1.56727e-07 0)
(42.3818 1.56938e-07 0)
(42.3817 1.57037e-07 0)
(42.3816 1.57215e-07 0)
(42.3815 1.57343e-07 0)
(42.3814 1.57401e-07 0)
(42.3813 1.57547e-07 0)
(42.3812 1.57665e-07 0)
(42.3811 1.57767e-07 0)
(42.381 1.57863e-07 0)
(42.3809 1.57947e-07 0)
(42.3807 1.58014e-07 0)
(42.3806 1.58072e-07 0)
(42.3805 1.58137e-07 0)
(42.3804 1.58181e-07 0)
(42.3802 1.58206e-07 0)
(42.3801 1.58243e-07 0)
(42.38 1.5827e-07 0)
(42.3799 1.58294e-07 0)
(42.3798 1.58321e-07 0)
(42.3796 1.58345e-07 0)
(42.3795 1.58358e-07 0)
(42.3794 1.5837e-07 0)
(42.3793 1.58392e-07 0)
(42.3793 1.58408e-07 0)
(42.3792 1.58416e-07 0)
(42.3791 1.58421e-07 0)
(42.379 1.5843e-07 0)
(42.3789 1.58452e-07 0)
(42.3789 1.58437e-07 0)
(42.3788 1.58466e-07 0)
(42.3788 1.58484e-07 0)
(42.3787 1.58502e-07 0)
(42.3787 1.58527e-07 0)
(42.3786 1.58522e-07 0)
(42.3786 1.58638e-07 0)
(42.3785 1.58606e-07 0)
(42.3785 1.58657e-07 0)
(42.3785 1.58678e-07 0)
(42.3784 1.58666e-07 0)
(42.3784 1.58714e-07 0)
(42.3784 1.58748e-07 0)
(42.3784 1.58766e-07 0)
(42.3783 1.58804e-07 0)
(42.3783 1.58844e-07 0)
(42.3783 1.5889e-07 0)
(42.3783 1.58936e-07 0)
(42.3783 1.58988e-07 0)
(42.3782 1.59056e-07 0)
(42.3782 1.59112e-07 0)
(42.3782 1.59189e-07 0)
(42.3782 1.59271e-07 0)
(42.3781 1.59326e-07 0)
(42.3781 1.595e-07 0)
(42.378 1.59669e-07 0)
(42.3779 1.59875e-07 0)
(42.3777 1.60137e-07 0)
(42.3775 1.60478e-07 0)
(42.3772 1.60911e-07 0)
(42.3769 1.6146e-07 0)
(42.3763 1.6215e-07 0)
(42.3757 1.63036e-07 0)
(42.3748 1.64155e-07 0)
(42.3736 1.65528e-07 0)
(42.3722 1.67225e-07 0)
(42.3703 1.69309e-07 0)
(42.3678 1.71839e-07 0)
(42.3648 1.74862e-07 0)
(42.3611 1.78447e-07 0)
(42.3565 1.82626e-07 0)
(42.3509 1.87407e-07 0)
(42.3442 1.92797e-07 0)
(42.3363 1.98746e-07 0)
(42.327 2.05142e-07 0)
(42.3162 2.11849e-07 0)
(42.3039 2.18639e-07 0)
(42.29 2.25232e-07 0)
(42.2745 2.31299e-07 0)
(42.2575 2.36436e-07 0)
(42.2392 2.402e-07 0)
(42.2197 2.42139e-07 0)
(42.1993 2.41796e-07 0)
(42.1785 2.38758e-07 0)
(42.1576 2.32678e-07 0)
(42.137 2.23337e-07 0)
(42.1174 2.10654e-07 0)
(42.0993 1.94773e-07 0)
(42.0831 1.76103e-07 0)
(42.0695 1.5501e-07 0)
(42.0588 1.31002e-07 0)
(42.0514 1.02971e-07 0)
(42.0475 6.94771e-08 0)
(42.0472 4.4598e-08 0)
(42.0502 6.59849e-10 0)
(42.0565 -3.09354e-08 0)
(42.0661 -5.3295e-08 0)
(42.0788 -7.28765e-08 0)
(42.0938 -8.72371e-08 0)
(42.1108 -9.69101e-08 0)
(42.1291 -1.02664e-07 0)
(42.148 -1.02588e-07 0)
(42.167 -9.80617e-08 0)
(42.1854 -8.98348e-08 0)
(42.2029 -7.81017e-08 0)
(42.219 -6.35042e-08 0)
(42.2335 -4.74338e-08 0)
(42.2461 -3.08796e-08 0)
(42.2568 -9.68461e-09 0)
(42.2655 1.30616e-08 0)
(42.2724 2.91637e-08 0)
(42.2775 4.47419e-08 0)
(42.2812 5.88432e-08 0)
(42.2835 7.08101e-08 0)
(42.2848 8.08511e-08 0)
(42.2852 8.88444e-08 0)
(42.2849 9.53531e-08 0)
(42.2843 1.07016e-07 0)
(42.2832 1.40171e-07 0)
(42.2819 3.11376e-07 0)
(42.2804 1.15222e-06 0)
(42.2787 5.38098e-06 0)
(42.2759 2.63794e-05 0)
(42.2673 0.000129923 0)
(42.2318 0.000634554 0)
(42.0674 0.0030118 0)
(41.6036 0.0150983 0)
(37.0807 0.0547127 0)
(42.6915 0.000463406 0)
(42.6695 0.000330839 0)
(42.6446 0.000313602 0)
(42.6242 0.000310565 0)
(42.6075 0.000307313 0)
(42.5934 0.000303185 0)
(42.5823 0.000297068 0)
(42.5742 0.000287572 0)
(42.5691 0.000273475 0)
(42.567 0.000254038 0)
(42.5674 0.000229323 0)
(42.57 0.000200341 0)
(42.5743 0.000168782 0)
(42.5798 0.000136851 0)
(42.586 0.00010665 0)
(42.5924 7.97931e-05 0)
(42.5986 5.73582e-05 0)
(42.6043 3.9604e-05 0)
(42.6093 2.62921e-05 0)
(42.6134 1.68011e-05 0)
(42.6165 1.03535e-05 0)
(42.6185 6.16846e-06 0)
(42.6196 3.56721e-06 0)
(42.6198 2.01768e-06 0)
(42.6193 1.13965e-06 0)
(42.6181 6.65004e-07 0)
(42.6165 4.2861e-07 0)
(42.6146 3.12899e-07 0)
(42.6126 2.5536e-07 0)
(42.6105 2.25755e-07 0)
(42.6083 2.27827e-07 0)
(42.6062 2.21883e-07 0)
(42.6042 2.19406e-07 0)
(42.6023 2.18474e-07 0)
(42.6007 2.17631e-07 0)
(42.5992 2.16144e-07 0)
(42.5979 2.14699e-07 0)
(42.5967 2.13145e-07 0)
(42.5958 2.1141e-07 0)
(42.5949 2.09689e-07 0)
(42.5942 2.081e-07 0)
(42.5936 2.06796e-07 0)
(42.5931 2.05345e-07 0)
(42.5927 2.04114e-07 0)
(42.5923 2.03117e-07 0)
(42.592 2.02072e-07 0)
(42.5918 2.01216e-07 0)
(42.5916 2.00448e-07 0)
(42.5915 1.99747e-07 0)
(42.5913 1.99167e-07 0)
(42.5913 1.9862e-07 0)
(42.5912 1.98187e-07 0)
(42.5912 1.97854e-07 0)
(42.5911 1.97326e-07 0)
(42.5911 1.96985e-07 0)
(42.5912 1.96709e-07 0)
(42.5912 1.96445e-07 0)
(42.5912 1.96263e-07 0)
(42.5913 1.96136e-07 0)
(42.5913 1.96016e-07 0)
(42.5914 1.95927e-07 0)
(42.5914 1.95878e-07 0)
(42.5915 1.95848e-07 0)
(42.5915 1.95848e-07 0)
(42.5916 1.95887e-07 0)
(42.5916 1.95937e-07 0)
(42.5916 1.9603e-07 0)
(42.5916 1.96114e-07 0)
(42.5916 1.96228e-07 0)
(42.5916 1.96268e-07 0)
(42.5916 1.96425e-07 0)
(42.5916 1.96475e-07 0)
(42.5915 1.96537e-07 0)
(42.5915 1.96654e-07 0)
(42.5914 1.96839e-07 0)
(42.5914 1.96797e-07 0)
(42.5913 1.96912e-07 0)
(42.5912 1.96974e-07 0)
(42.5911 1.97037e-07 0)
(42.591 1.97089e-07 0)
(42.5909 1.97091e-07 0)
(42.5908 1.97088e-07 0)
(42.5906 1.97085e-07 0)
(42.5905 1.97065e-07 0)
(42.5904 1.97036e-07 0)
(42.5902 1.96986e-07 0)
(42.5901 1.96925e-07 0)
(42.59 1.96831e-07 0)
(42.5899 1.96727e-07 0)
(42.5897 1.96634e-07 0)
(42.5896 1.96523e-07 0)
(42.5895 1.96408e-07 0)
(42.5894 1.96308e-07 0)
(42.5893 1.96203e-07 0)
(42.5891 1.96079e-07 0)
(42.589 1.95954e-07 0)
(42.5889 1.95832e-07 0)
(42.5889 1.957e-07 0)
(42.5888 1.95576e-07 0)
(42.5887 1.95472e-07 0)
(42.5886 1.95352e-07 0)
(42.5885 1.95268e-07 0)
(42.5885 1.95104e-07 0)
(42.5884 1.95045e-07 0)
(42.5883 1.9495e-07 0)
(42.5883 1.94858e-07 0)
(42.5882 1.94767e-07 0)
(42.5882 1.94626e-07 0)
(42.5881 1.94733e-07 0)
(42.5881 1.94439e-07 0)
(42.5881 1.94439e-07 0)
(42.588 1.94382e-07 0)
(42.588 1.94249e-07 0)
(42.588 1.94244e-07 0)
(42.5879 1.94201e-07 0)
(42.5879 1.94123e-07 0)
(42.5879 1.94068e-07 0)
(42.5879 1.94027e-07 0)
(42.5878 1.93989e-07 0)
(42.5878 1.93956e-07 0)
(42.5878 1.93933e-07 0)
(42.5878 1.93953e-07 0)
(42.5877 1.93927e-07 0)
(42.5877 1.93972e-07 0)
(42.5877 1.94011e-07 0)
(42.5876 1.94007e-07 0)
(42.5876 1.94259e-07 0)
(42.5875 1.94464e-07 0)
(42.5874 1.94765e-07 0)
(42.5872 1.95187e-07 0)
(42.587 1.9578e-07 0)
(42.5867 1.96563e-07 0)
(42.5863 1.97605e-07 0)
(42.5858 1.98972e-07 0)
(42.5852 2.00727e-07 0)
(42.5843 2.02977e-07 0)
(42.5831 2.05824e-07 0)
(42.5816 2.09385e-07 0)
(42.5797 2.13757e-07 0)
(42.5773 2.19111e-07 0)
(42.5743 2.2554e-07 0)
(42.5706 2.3316e-07 0)
(42.566 2.42062e-07 0)
(42.5604 2.523e-07 0)
(42.5537 2.63853e-07 0)
(42.5457 2.76625e-07 0)
(42.5364 2.90451e-07 0)
(42.5256 3.05021e-07 0)
(42.5133 3.1993e-07 0)
(42.4994 3.34665e-07 0)
(42.4839 3.4857e-07 0)
(42.467 3.60865e-07 0)
(42.4486 3.70747e-07 0)
(42.4291 3.77327e-07 0)
(42.4088 3.79734e-07 0)
(42.3879 3.77171e-07 0)
(42.367 3.68935e-07 0)
(42.3465 3.54539e-07 0)
(42.3269 3.3375e-07 0)
(42.3087 3.06652e-07 0)
(42.2926 2.73754e-07 0)
(42.2789 2.35656e-07 0)
(42.2682 1.92255e-07 0)
(42.2608 1.43149e-07 0)
(42.2569 8.80626e-08 0)
(42.2566 5.34677e-08 0)
(42.2596 -1.39407e-08 0)
(42.2659 -6.50494e-08 0)
(42.2755 -1.03185e-07 0)
(42.2881 -1.37557e-07 0)
(42.3032 -1.6235e-07 0)
(42.3201 -1.78631e-07 0)
(42.3384 -1.88382e-07 0)
(42.3573 -1.87751e-07 0)
(42.3762 -1.78964e-07 0)
(42.3947 -1.63673e-07 0)
(42.4122 -1.42415e-07 0)
(42.4283 -1.15912e-07 0)
(42.4427 -8.61417e-08 0)
(42.4553 -5.5407e-08 0)
(42.466 -1.85107e-08 0)
(42.4747 1.84892e-08 0)
(42.4815 4.53573e-08 0)
(42.4867 7.08622e-08 0)
(42.4903 9.35787e-08 0)
(42.4927 1.12729e-07 0)
(42.4939 1.28683e-07 0)
(42.4943 1.41135e-07 0)
(42.4941 1.52933e-07 0)
(42.4934 1.84067e-07 0)
(42.4923 2.92637e-07 0)
(42.491 8.34635e-07 0)
(42.4896 3.48153e-06 0)
(42.4878 1.67665e-05 0)
(42.485 8.28785e-05 0)
(42.4764 0.000408908 0)
(42.4408 0.00199797 0)
(42.276 0.00945705 0)
(41.8085 0.0466261 0)
(37.3864 0.160155 0)
(42.6915 0.000369467 0)
(42.6695 0.000239695 0)
(42.6446 0.000231678 0)
(42.6242 0.000235326 0)
(42.6076 0.000235961 0)
(42.5936 0.000235079 0)
(42.5824 0.000232293 0)
(42.5744 0.00022653 0)
(42.5694 0.000216806 0)
(42.5673 0.000202509 0)
(42.5677 0.000183674 0)
(42.5704 0.000161112 0)
(42.5746 0.000136199 0)
(42.5801 0.000110758 0)
(42.5863 8.65375e-05 0)
(42.5927 6.48888e-05 0)
(42.5989 4.67387e-05 0)
(42.6046 3.23291e-05 0)
(42.6096 2.14969e-05 0)
(42.6136 1.37555e-05 0)
(42.6167 8.48708e-06 0)
(42.6187 5.06409e-06 0)
(42.6198 2.93751e-06 0)
(42.62 1.67365e-06 0)
(42.6195 9.60364e-07 0)
(42.6184 5.76216e-07 0)
(42.6168 3.78443e-07 0)
(42.6148 2.76411e-07 0)
(42.6128 2.2331e-07 0)
(42.6107 1.95085e-07 0)
(42.6085 1.95407e-07 0)
(42.6064 1.87877e-07 0)
(42.6044 1.83885e-07 0)
(42.6026 1.81502e-07 0)
(42.6009 1.79394e-07 0)
(42.5994 1.76894e-07 0)
(42.5981 1.7457e-07 0)
(42.5969 1.72316e-07 0)
(42.596 1.70092e-07 0)
(42.5951 1.67996e-07 0)
(42.5944 1.66101e-07 0)
(42.5938 1.64536e-07 0)
(42.5933 1.62959e-07 0)
(42.5929 1.61648e-07 0)
(42.5925 1.60545e-07 0)
(42.5922 1.59449e-07 0)
(42.592 1.58549e-07 0)
(42.5918 1.57796e-07 0)
(42.5917 1.57112e-07 0)
(42.5915 1.56535e-07 0)
(42.5915 1.56013e-07 0)
(42.5914 1.5561e-07 0)
(42.5914 1.55344e-07 0)
(42.5914 1.5485e-07 0)
(42.5914 1.54533e-07 0)
(42.5914 1.54302e-07 0)
(42.5914 1.541e-07 0)
(42.5914 1.53953e-07 0)
(42.5915 1.5383e-07 0)
(42.5915 1.53741e-07 0)
(42.5916 1.53672e-07 0)
(42.5916 1.5367e-07 0)
(42.5917 1.53667e-07 0)
(42.5917 1.53691e-07 0)
(42.5918 1.53736e-07 0)
(42.5918 1.53809e-07 0)
(42.5918 1.53893e-07 0)
(42.5918 1.53969e-07 0)
(42.5918 1.5409e-07 0)
(42.5918 1.54132e-07 0)
(42.5918 1.54282e-07 0)
(42.5918 1.54336e-07 0)
(42.5918 1.54384e-07 0)
(42.5917 1.5447e-07 0)
(42.5916 1.54641e-07 0)
(42.5916 1.54578e-07 0)
(42.5915 1.54687e-07 0)
(42.5914 1.54724e-07 0)
(42.5913 1.54727e-07 0)
(42.5912 1.54749e-07 0)
(42.5911 1.54747e-07 0)
(42.591 1.54728e-07 0)
(42.5908 1.54714e-07 0)
(42.5907 1.54679e-07 0)
(42.5906 1.54631e-07 0)
(42.5905 1.54571e-07 0)
(42.5903 1.54522e-07 0)
(42.5902 1.54436e-07 0)
(42.5901 1.54347e-07 0)
(42.5899 1.54263e-07 0)
(42.5898 1.54158e-07 0)
(42.5897 1.54067e-07 0)
(42.5896 1.53975e-07 0)
(42.5895 1.53883e-07 0)
(42.5894 1.53779e-07 0)
(42.5893 1.53679e-07 0)
(42.5892 1.53593e-07 0)
(42.5891 1.53486e-07 0)
(42.589 1.53382e-07 0)
(42.5889 1.53292e-07 0)
(42.5888 1.53215e-07 0)
(42.5887 1.53161e-07 0)
(42.5887 1.53034e-07 0)
(42.5886 1.52988e-07 0)
(42.5885 1.52934e-07 0)
(42.5885 1.52862e-07 0)
(42.5884 1.52822e-07 0)
(42.5884 1.52725e-07 0)
(42.5883 1.52839e-07 0)
(42.5883 1.52588e-07 0)
(42.5883 1.52654e-07 0)
(42.5882 1.5263e-07 0)
(42.5882 1.52531e-07 0)
(42.5882 1.52556e-07 0)
(42.5881 1.52539e-07 0)
(42.5881 1.52504e-07 0)
(42.5881 1.52496e-07 0)
(42.5881 1.525e-07 0)
(42.588 1.52505e-07 0)
(42.588 1.52503e-07 0)
(42.588 1.52526e-07 0)
(42.588 1.52565e-07 0)
(42.588 1.526e-07 0)
(42.5879 1.52685e-07 0)
(42.5879 1.52756e-07 0)
(42.5878 1.52788e-07 0)
(42.5878 1.53078e-07 0)
(42.5877 1.53332e-07 0)
(42.5876 1.53656e-07 0)
(42.5874 1.54098e-07 0)
(42.5872 1.54702e-07 0)
(42.5869 1.55467e-07 0)
(42.5866 1.56493e-07 0)
(42.586 1.57784e-07 0)
(42.5854 1.59461e-07 0)
(42.5845 1.6156e-07 0)
(42.5833 1.64185e-07 0)
(42.5818 1.67427e-07 0)
(42.5799 1.71385e-07 0)
(42.5775 1.76152e-07 0)
(42.5745 1.81822e-07 0)
(42.5708 1.88448e-07 0)
(42.5662 1.96091e-07 0)
(42.5606 2.04717e-07 0)
(42.5539 2.14291e-07 0)
(42.546 2.24687e-07 0)
(42.5366 2.35715e-07 0)
(42.5259 2.47079e-07 0)
(42.5135 2.58374e-07 0)
(42.4996 2.69129e-07 0)
(42.4841 2.78781e-07 0)
(42.4672 2.8666e-07 0)
(42.4488 2.92069e-07 0)
(42.4294 2.94283e-07 0)
(42.409 2.92607e-07 0)
(42.3882 2.86404e-07 0)
(42.3672 2.75188e-07 0)
(42.3467 2.58598e-07 0)
(42.3271 2.36516e-07 0)
(42.3089 2.09079e-07 0)
(42.2928 1.76683e-07 0)
(42.2791 1.39996e-07 0)
(42.2684 1.00021e-07 0)
(42.261 5.81962e-08 0)
(42.2571 1.67477e-08 0)
(42.2568 -4.48909e-10 0)
(42.2598 -4.48774e-08 0)
(42.2661 -8.39551e-08 0)
(42.2757 -1.12743e-07 0)
(42.2883 -1.38349e-07 0)
(42.3034 -1.55061e-07 0)
(42.3203 -1.64369e-07 0)
(42.3386 -1.67015e-07 0)
(42.3575 -1.61107e-07 0)
(42.3764 -1.48723e-07 0)
(42.3949 -1.30868e-07 0)
(42.4124 -1.08372e-07 0)
(42.4285 -8.22383e-08 0)
(42.4429 -5.4208e-08 0)
(42.4555 -2.63862e-08 0)
(42.4662 1.03042e-09 0)
(42.4749 2.46932e-08 0)
(42.4817 4.80723e-08 0)
(42.4869 6.95906e-08 0)
(42.4905 8.81364e-08 0)
(42.4929 1.03058e-07 0)
(42.4941 1.15294e-07 0)
(42.4945 1.25027e-07 0)
(42.4943 1.37612e-07 0)
(42.4936 1.83409e-07 0)
(42.4925 3.76494e-07 0)
(42.4912 1.35131e-06 0)
(42.4898 6.08116e-06 0)
(42.488 2.97269e-05 0)
(42.4852 0.00014752 0)
(42.4767 0.000728503 0)
(42.4415 0.00356322 0)
(42.2785 0.0168632 0)
(41.8185 0.0829749 0)
(37.4822 0.281394 0)
(42.6915 0.00037558 0)
(42.6695 0.000277712 0)
(42.6446 0.000271383 0)
(42.6242 0.000276103 0)
(42.6076 0.000276223 0)
(42.5936 0.000274306 0)
(42.5824 0.000270138 0)
(42.5744 0.000262536 0)
(42.5694 0.000250445 0)
(42.5673 0.000233237 0)
(42.5677 0.000210996 0)
(42.5703 0.000184668 0)
(42.5746 0.000155832 0)
(42.5801 0.000126538 0)
(42.5863 9.87509e-05 0)
(42.5927 7.39857e-05 0)
(42.5989 5.32561e-05 0)
(42.6046 3.68239e-05 0)
(42.6096 2.44836e-05 0)
(42.6136 1.56715e-05 0)
(42.6167 9.67711e-06 0)
(42.6187 5.78298e-06 0)
(42.6198 3.36276e-06 0)
(42.62 1.92266e-06 0)
(42.6195 1.10203e-06 0)
(42.6184 6.49009e-07 0)
(42.6168 4.04878e-07 0)
(42.6148 2.82367e-07 0)
(42.6128 2.23495e-07 0)
(42.6107 1.94565e-07 0)
(42.6085 1.9492e-07 0)
(42.6064 1.88574e-07 0)
(42.6044 1.85834e-07 0)
(42.6026 1.84698e-07 0)
(42.6009 1.83795e-07 0)
(42.5994 1.82423e-07 0)
(42.5981 1.81223e-07 0)
(42.5969 1.80104e-07 0)
(42.596 1.78903e-07 0)
(42.5951 1.77707e-07 0)
(42.5944 1.76664e-07 0)
(42.5938 1.75955e-07 0)
(42.5933 1.75175e-07 0)
(42.5929 1.74575e-07 0)
(42.5925 1.74126e-07 0)
(42.5922 1.73694e-07 0)
(42.592 1.73412e-07 0)
(42.5918 1.73214e-07 0)
(42.5917 1.73014e-07 0)
(42.5915 1.72895e-07 0)
(42.5915 1.72831e-07 0)
(42.5914 1.72858e-07 0)
(42.5914 1.72978e-07 0)
(42.5914 1.72821e-07 0)
(42.5914 1.72857e-07 0)
(42.5914 1.72945e-07 0)
(42.5914 1.73047e-07 0)
(42.5914 1.73191e-07 0)
(42.5915 1.73347e-07 0)
(42.5915 1.73525e-07 0)
(42.5916 1.73712e-07 0)
(42.5916 1.73916e-07 0)
(42.5917 1.74133e-07 0)
(42.5917 1.74338e-07 0)
(42.5918 1.74581e-07 0)
(42.5918 1.74833e-07 0)
(42.5918 1.75101e-07 0)
(42.5918 1.75337e-07 0)
(42.5918 1.75616e-07 0)
(42.5918 1.75807e-07 0)
(42.5918 1.7611e-07 0)
(42.5918 1.76306e-07 0)
(42.5918 1.76497e-07 0)
(42.5917 1.76719e-07 0)
(42.5916 1.77002e-07 0)
(42.5916 1.77081e-07 0)
(42.5915 1.7731e-07 0)
(42.5914 1.77465e-07 0)
(42.5913 1.77605e-07 0)
(42.5912 1.77747e-07 0)
(42.5911 1.7785e-07 0)
(42.591 1.77938e-07 0)
(42.5908 1.7803e-07 0)
(42.5907 1.78093e-07 0)
(42.5906 1.7815e-07 0)
(42.5905 1.78182e-07 0)
(42.5903 1.78212e-07 0)
(42.5902 1.78207e-07 0)
(42.5901 1.78194e-07 0)
(42.5899 1.78181e-07 0)
(42.5898 1.78163e-07 0)
(42.5897 1.78136e-07 0)
(42.5896 1.7811e-07 0)
(42.5895 1.78084e-07 0)
(42.5894 1.78049e-07 0)
(42.5893 1.78002e-07 0)
(42.5892 1.7797e-07 0)
(42.5891 1.7792e-07 0)
(42.589 1.77885e-07 0)
(42.5889 1.77855e-07 0)
(42.5888 1.77812e-07 0)
(42.5887 1.77806e-07 0)
(42.5887 1.77723e-07 0)
(42.5886 1.77727e-07 0)
(42.5885 1.77705e-07 0)
(42.5885 1.77686e-07 0)
(42.5884 1.77675e-07 0)
(42.5884 1.77607e-07 0)
(42.5883 1.7776e-07 0)
(42.5883 1.77545e-07 0)
(42.5883 1.77617e-07 0)
(42.5882 1.77614e-07 0)
(42.5882 1.77554e-07 0)
(42.5882 1.77597e-07 0)
(42.5881 1.77618e-07 0)
(42.5881 1.77595e-07 0)
(42.5881 1.77598e-07 0)
(42.5881 1.77616e-07 0)
(42.588 1.77629e-07 0)
(42.588 1.77648e-07 0)
(42.588 1.77673e-07 0)
(42.588 1.77733e-07 0)
(42.588 1.77749e-07 0)
(42.5879 1.77842e-07 0)
(42.5879 1.77916e-07 0)
(42.5878 1.77941e-07 0)
(42.5878 1.78214e-07 0)
(42.5877 1.78443e-07 0)
(42.5876 1.78748e-07 0)
(42.5874 1.79171e-07 0)
(42.5872 1.79745e-07 0)
(42.5869 1.80469e-07 0)
(42.5866 1.81439e-07 0)
(42.586 1.82675e-07 0)
(42.5854 1.84266e-07 0)
(42.5845 1.8629e-07 0)
(42.5833 1.8881e-07 0)
(42.5818 1.9194e-07 0)
(42.5799 1.95752e-07 0)
(42.5775 2.0038e-07 0)
(42.5745 2.05878e-07 0)
(42.5708 2.12323e-07 0)
(42.5662 2.19772e-07 0)
(42.5606 2.28231e-07 0)
(42.5539 2.37657e-07 0)
(42.546 2.47936e-07 0)
(42.5366 2.58901e-07 0)
(42.5259 2.70271e-07 0)
(42.5135 2.81686e-07 0)
(42.4996 2.92729e-07 0)
(42.4841 3.02828e-07 0)
(42.4672 3.11372e-07 0)
(42.4488 3.17673e-07 0)
(42.4294 3.21048e-07 0)
(42.409 3.20825e-07 0)
(42.3882 3.16374e-07 0)
(42.3672 3.07186e-07 0)
(42.3467 2.92891e-07 0)
(42.3271 2.7335e-07 0)
(42.3089 2.48638e-07 0)
(42.2928 2.19117e-07 0)
(42.2791 1.85427e-07 0)
(42.2684 1.48485e-07 0)
(42.261 1.09461e-07 0)
(42.2571 7.00726e-08 0)
(42.2568 5.2113e-08 0)
(42.2598 1.95155e-09 0)
(42.2661 -3.93011e-08 0)
(42.2757 -7.0329e-08 0)
(42.2883 -9.71591e-08 0)
(42.3034 -1.15886e-07 0)
(42.3203 -1.27438e-07 0)
(42.3386 -1.33079e-07 0)
(42.3575 -1.30502e-07 0)
(42.3764 -1.21549e-07 0)
(42.3949 -1.076e-07 0)
(42.4124 -8.91327e-08 0)
(42.4285 -6.70746e-08 0)
(42.4429 -4.2993e-08 0)
(42.4555 -1.95403e-08 0)
(42.4662 2.86584e-09 0)
(42.4749 2.4669e-08 0)
(42.4817 4.75161e-08 0)
(42.4869 6.84217e-08 0)
(42.4905 8.65326e-08 0)
(42.4929 1.01458e-07 0)
(42.4941 1.1394e-07 0)
(42.4945 1.24757e-07 0)
(42.4943 1.41455e-07 0)
(42.4936 2.04214e-07 0)
(42.4925 4.91062e-07 0)
(42.4912 1.95971e-06 0)
(42.4898 9.06194e-06 0)
(42.488 4.44892e-05 0)
(42.4852 0.000221004 0)
(42.4768 0.00109174 0)
(42.4417 0.00534452 0)
(42.2798 0.0252837 0)
(41.8233 0.124258 0)
(37.5847 0.41649 0)
(42.6915 0.000352242 0)
(42.6695 0.000252921 0)
(42.6446 0.000234434 0)
(42.6242 0.000235207 0)
(42.6075 0.000233149 0)
(42.5936 0.000230282 0)
(42.5824 0.000226246 0)
(42.5744 0.00021972 0)
(42.5694 0.000209645 0)
(42.5673 0.000195385 0)
(42.5677 0.000176934 0)
(42.5703 0.000155037 0)
(42.5746 0.000130983 0)
(42.5801 0.000106486 0)
(42.5863 8.31985e-05 0)
(42.5926 6.24001e-05 0)
(42.5989 4.49637e-05 0)
(42.6046 3.11195e-05 0)
(42.6096 2.07077e-05 0)
(42.6136 1.32625e-05 0)
(42.6167 8.19159e-06 0)
(42.6187 4.89356e-06 0)
(42.6198 2.84164e-06 0)
(42.62 1.61966e-06 0)
(42.6195 9.23763e-07 0)
(42.6184 5.41753e-07 0)
(42.6168 3.46579e-07 0)
(42.6148 2.5018e-07 0)
(42.6128 2.01667e-07 0)
(42.6107 1.76426e-07 0)
(42.6085 1.77079e-07 0)
(42.6064 1.71285e-07 0)
(42.6044 1.68659e-07 0)
(42.6026 1.67395e-07 0)
(42.6009 1.6636e-07 0)
(42.5994 1.64991e-07 0)
(42.5981 1.63733e-07 0)
(42.5969 1.62398e-07 0)
(42.596 1.60958e-07 0)
(42.5951 1.5958e-07 0)
(42.5944 1.58407e-07 0)
(42.5938 1.57432e-07 0)
(42.5933 1.56336e-07 0)
(42.5929 1.55428e-07 0)
(42.5925 1.54731e-07 0)
(42.5922 1.5402e-07 0)
(42.592 1.53405e-07 0)
(42.5918 1.5287e-07 0)
(42.5917 1.52398e-07 0)
(42.5915 1.52028e-07 0)
(42.5915 1.51679e-07 0)
(42.5914 1.51392e-07 0)
(42.5914 1.51222e-07 0)
(42.5914 1.50815e-07 0)
(42.5914 1.50615e-07 0)
(42.5914 1.5043e-07 0)
(42.5914 1.50255e-07 0)
(42.5914 1.50124e-07 0)
(42.5915 1.50039e-07 0)
(42.5915 1.49966e-07 0)
(42.5916 1.49891e-07 0)
(42.5916 1.49859e-07 0)
(42.5917 1.49838e-07 0)
(42.5917 1.49835e-07 0)
(42.5918 1.49868e-07 0)
(42.5918 1.49907e-07 0)
(42.5918 1.49962e-07 0)
(42.5918 1.5e-07 0)
(42.5918 1.50081e-07 0)
(42.5918 1.50087e-07 0)
(42.5918 1.50189e-07 0)
(42.5918 1.50197e-07 0)
(42.5918 1.50207e-07 0)
(42.5917 1.50261e-07 0)
(42.5916 1.50381e-07 0)
(42.5916 1.50289e-07 0)
(42.5915 1.50342e-07 0)
(42.5914 1.50346e-07 0)
(42.5913 1.50325e-07 0)
(42.5912 1.5031e-07 0)
(42.5911 1.50273e-07 0)
(42.591 1.50221e-07 0)
(42.5908 1.50178e-07 0)
(42.5907 1.50108e-07 0)
(42.5906 1.50037e-07 0)
(42.5905 1.49943e-07 0)
(42.5903 1.4987e-07 0)
(42.5902 1.49759e-07 0)
(42.5901 1.49643e-07 0)
(42.5899 1.49532e-07 0)
(42.5898 1.49397e-07 0)
(42.5897 1.49277e-07 0)
(42.5896 1.49163e-07 0)
(42.5895 1.49046e-07 0)
(42.5894 1.4893e-07 0)
(42.5893 1.48799e-07 0)
(42.5892 1.48679e-07 0)
(42.5891 1.48554e-07 0)
(42.589 1.48424e-07 0)
(42.5889 1.48313e-07 0)
(42.5888 1.48208e-07 0)
(42.5887 1.48129e-07 0)
(42.5887 1.47978e-07 0)
(42.5886 1.47915e-07 0)
(42.5885 1.47832e-07 0)
(42.5885 1.47742e-07 0)
(42.5884 1.47662e-07 0)
(42.5884 1.4754e-07 0)
(42.5883 1.4762e-07 0)
(42.5883 1.4737e-07 0)
(42.5883 1.47386e-07 0)
(42.5882 1.47326e-07 0)
(42.5882 1.47221e-07 0)
(42.5882 1.47212e-07 0)
(42.5881 1.47171e-07 0)
(42.5881 1.47105e-07 0)
(42.5881 1.47072e-07 0)
(42.5881 1.47041e-07 0)
(42.588 1.47017e-07 0)
(42.588 1.46989e-07 0)
(42.588 1.46982e-07 0)
(42.588 1.46997e-07 0)
(42.588 1.46985e-07 0)
(42.5879 1.47042e-07 0)
(42.5879 1.47083e-07 0)
(42.5878 1.47092e-07 0)
(42.5878 1.47329e-07 0)
(42.5877 1.47535e-07 0)
(42.5876 1.47822e-07 0)
(42.5874 1.482e-07 0)
(42.5872 1.48731e-07 0)
(42.5869 1.49419e-07 0)
(42.5866 1.50341e-07 0)
(42.586 1.51517e-07 0)
(42.5854 1.53055e-07 0)
(42.5845 1.54974e-07 0)
(42.5833 1.57394e-07 0)
(42.5818 1.60394e-07 0)
(42.5799 1.64062e-07 0)
(42.5775 1.68488e-07 0)
(42.5745 1.73764e-07 0)
(42.5708 1.79945e-07 0)
(42.5662 1.87072e-07 0)
(42.5606 1.95174e-07 0)
(42.5539 2.04171e-07 0)
(42.546 2.13984e-07 0)
(42.5366 2.24439e-07 0)
(42.5259 2.3528e-07 0)
(42.5135 2.46155e-07 0)
(42.4996 2.56626e-07 0)
(42.4841 2.66195e-07 0)
(42.4672 2.74238e-07 0)
(42.4488 2.80115e-07 0)
(42.4294 2.83147e-07 0)
(42.409 2.82692e-07 0)
(42.3882 2.78132e-07 0)
(42.3672 2.6899e-07 0)
(42.3467 2.54886e-07 0)
(42.3271 2.35686e-07 0)
(42.3089 2.11451e-07 0)
(42.2928 1.82511e-07 0)
(42.2791 1.49472e-07 0)
(42.2684 1.13156e-07 0)
(42.261 7.4624e-08 0)
(42.2571 3.554e-08 0)
(42.2568 1.60483e-08 0)
(42.2598 -3.31446e-08 0)
(42.2661 -7.26684e-08 0)
(42.2757 -1.01889e-07 0)
(42.2883 -1.27188e-07 0)
(42.3034 -1.44994e-07 0)
(42.3203 -1.55556e-07 0)
(42.3386 -1.6051e-07 0)
(42.3575 -1.57425e-07 0)
(42.3764 -1.48232e-07 0)
(42.3949 -1.33971e-07 0)
(42.4124 -1.15103e-07 0)
(42.4285 -9.25804e-08 0)
(42.4429 -6.76722e-08 0)
(42.4555 -4.25502e-08 0)
(42.4662 -1.62078e-08 0)
(42.4749 1.16266e-08 0)
(42.4817 3.3935e-08 0)
(42.4869 5.42238e-08 0)
(42.4905 7.1869e-08 0)
(42.4929 8.64811e-08 0)
(42.4941 9.88422e-08 0)
(42.4945 1.10416e-07 0)
(42.4943 1.31593e-07 0)
(42.4936 2.15047e-07 0)
(42.4925 6.05167e-07 0)
(42.4912 2.62362e-06 0)
(42.4898 1.24132e-05 0)
(42.488 6.12547e-05 0)
(42.4852 0.000304679 0)
(42.4769 0.00150573 0)
(42.4422 0.00737696 0)
(42.282 0.0348819 0)
(41.8304 0.17102 0)
(37.7019 0.566491 0)
(42.6915 0.000330775 0)
(42.6695 0.000245982 0)
(42.6446 0.000230582 0)
(42.6242 0.00023653 0)
(42.6075 0.000237703 0)
(42.5936 0.000236677 0)
(42.5824 0.000233739 0)
(42.5743 0.000227766 0)
(42.5694 0.000217814 0)
(42.5673 0.000203322 0)
(42.5677 0.000184343 0)
(42.5703 0.000161687 0)
(42.5746 0.000136722 0)
(42.5801 0.000111243 0)
(42.5863 8.6985e-05 0)
(42.5926 6.52958e-05 0)
(42.5989 4.70894e-05 0)
(42.6046 3.26201e-05 0)
(42.6096 2.17275e-05 0)
(42.6136 1.39311e-05 0)
(42.6167 8.61568e-06 0)
(42.6187 5.15514e-06 0)
(42.6198 2.99986e-06 0)
(42.62 1.71482e-06 0)
(42.6195 9.81841e-07 0)
(42.6184 5.78591e-07 0)
(42.6168 3.67087e-07 0)
(42.6148 2.60501e-07 0)
(42.6128 2.07703e-07 0)
(42.6107 1.81343e-07 0)
(42.6085 1.80786e-07 0)
(42.6064 1.74947e-07 0)
(42.6044 1.72151e-07 0)
(42.6026 1.708e-07 0)
(42.6009 1.69765e-07 0)
(42.5994 1.68327e-07 0)
(42.5981 1.66947e-07 0)
(42.5969 1.65606e-07 0)
(42.596 1.64243e-07 0)
(42.5951 1.62882e-07 0)
(42.5944 1.6164e-07 0)
(42.5938 1.60643e-07 0)
(42.5933 1.59611e-07 0)
(42.5929 1.5874e-07 0)
(42.5925 1.58035e-07 0)
(42.5922 1.57312e-07 0)
(42.592 1.56713e-07 0)
(42.5918 1.56234e-07 0)
(42.5917 1.55795e-07 0)
(42.5915 1.55412e-07 0)
(42.5915 1.5507e-07 0)
(42.5914 1.54833e-07 0)
(42.5914 1.54719e-07 0)
(42.5914 1.54339e-07 0)
(42.5914 1.54162e-07 0)
(42.5914 1.54021e-07 0)
(42.5914 1.53913e-07 0)
(42.5914 1.5386e-07 0)
(42.5915 1.53832e-07 0)
(42.5915 1.53812e-07 0)
(42.5916 1.53814e-07 0)
(42.5916 1.53867e-07 0)
(42.5917 1.53926e-07 0)
(42.5917 1.5399e-07 0)
(42.5918 1.54086e-07 0)
(42.5918 1.54196e-07 0)
(42.5918 1.54325e-07 0)
(42.5918 1.5445e-07 0)
(42.5918 1.54602e-07 0)
(42.5918 1.54684e-07 0)
(42.5918 1.54871e-07 0)
(42.5918 1.54969e-07 0)
(42.5918 1.5507e-07 0)
(42.5917 1.55197e-07 0)
(42.5916 1.55394e-07 0)
(42.5916 1.55404e-07 0)
(42.5915 1.55545e-07 0)
(42.5914 1.55625e-07 0)
(42.5913 1.55696e-07 0)
(42.5912 1.55765e-07 0)
(42.5911 1.55814e-07 0)
(42.591 1.55854e-07 0)
(42.5908 1.55891e-07 0)
(42.5907 1.55907e-07 0)
(42.5906 1.5592e-07 0)
(42.5905 1.55912e-07 0)
(42.5903 1.55921e-07 0)
(42.5902 1.55882e-07 0)
(42.5901 1.55845e-07 0)
(42.5899 1.558e-07 0)
(42.5898 1.55757e-07 0)
(42.5897 1.55713e-07 0)
(42.5896 1.55671e-07 0)
(42.5895 1.55624e-07 0)
(42.5894 1.55568e-07 0)
(42.5893 1.55509e-07 0)
(42.5892 1.55459e-07 0)
(42.5891 1.55406e-07 0)
(42.589 1.55348e-07 0)
(42.5889 1.55304e-07 0)
(42.5888 1.55259e-07 0)
(42.5887 1.55241e-07 0)
(42.5887 1.55154e-07 0)
(42.5886 1.55139e-07 0)
(42.5885 1.5511e-07 0)
(42.5885 1.55081e-07 0)
(42.5884 1.55064e-07 0)
(42.5884 1.54997e-07 0)
(42.5883 1.55115e-07 0)
(42.5883 1.54929e-07 0)
(42.5883 1.54987e-07 0)
(42.5882 1.5498e-07 0)
(42.5882 1.54918e-07 0)
(42.5882 1.54952e-07 0)
(42.5881 1.54964e-07 0)
(42.5881 1.54944e-07 0)
(42.5881 1.54943e-07 0)
(42.5881 1.54953e-07 0)
(42.588 1.54974e-07 0)
(42.588 1.54988e-07 0)
(42.588 1.5501e-07 0)
(42.588 1.55058e-07 0)
(42.588 1.55086e-07 0)
(42.5879 1.55169e-07 0)
(42.5879 1.55238e-07 0)
(42.5878 1.55272e-07 0)
(42.5878 1.55521e-07 0)
(42.5877 1.55741e-07 0)
(42.5876 1.56034e-07 0)
(42.5874 1.56417e-07 0)
(42.5872 1.56952e-07 0)
(42.5869 1.57621e-07 0)
(42.5866 1.58521e-07 0)
(42.586 1.59658e-07 0)
(42.5854 1.61131e-07 0)
(42.5845 1.62988e-07 0)
(42.5833 1.65306e-07 0)
(42.5818 1.68174e-07 0)
(42.5799 1.71668e-07 0)
(42.5775 1.759e-07 0)
(42.5745 1.80925e-07 0)
(42.5708 1.86814e-07 0)
(42.5662 1.93618e-07 0)
(42.5606 2.01326e-07 0)
(42.5539 2.09905e-07 0)
(42.546 2.19257e-07 0)
(42.5366 2.29224e-07 0)
(42.5259 2.39547e-07 0)
(42.5135 2.49901e-07 0)
(42.4996 2.5989e-07 0)
(42.4841 2.69007e-07 0)
(42.4672 2.7668e-07 0)
(42.4488 2.82284e-07 0)
(42.4294 2.85196e-07 0)
(42.409 2.84782e-07 0)
(42.3882 2.8048e-07 0)
(42.3672 2.71821e-07 0)
(42.3467 2.58456e-07 0)
(42.3271 2.40258e-07 0)
(42.3089 2.17297e-07 0)
(42.2928 1.89875e-07 0)
(42.2791 1.58592e-07 0)
(42.2684 1.2424e-07 0)
(42.261 8.78808e-08 0)
(42.2571 5.12698e-08 0)
(42.2568 3.31324e-08 0)
(42.2598 -1.0581e-08 0)
(42.2661 -4.80075e-08 0)
(42.2757 -7.52635e-08 0)
(42.2883 -9.93992e-08 0)
(42.3034 -1.1603e-07 0)
(42.3203 -1.26221e-07 0)
(42.3386 -1.30897e-07 0)
(42.3575 -1.2797e-07 0)
(42.3764 -1.1925e-07 0)
(42.3949 -1.05694e-07 0)
(42.4124 -8.79203e-08 0)
(42.4285 -6.66422e-08 0)
(42.4429 -4.33048e-08 0)
(42.4555 -1.98825e-08 0)
(42.4662 4.00846e-09 0)
(42.4749 2.62391e-08 0)
(42.4817 4.69325e-08 0)
(42.4869 6.5884e-08 0)
(42.4905 8.2369e-08 0)
(42.4929 9.59936e-08 0)
(42.4941 1.07641e-07 0)
(42.4945 1.19882e-07 0)
(42.4943 1.46437e-07 0)
(42.4936 2.54317e-07 0)
(42.4925 7.66394e-07 0)
(42.4912 3.41439e-06 0)
(42.4898 1.62589e-05 0)
(42.488 8.03342e-05 0)
(42.4852 0.000399735 0)
(42.477 0.00197598 0)
(42.4428 0.00968764 0)
(42.2853 0.0457735 0)
(41.8412 0.223676 0)
(37.8411 0.729687 0)
(42.6915 0.000273695 0)
(42.6694 0.000212652 0)
(42.6445 0.000193386 0)
(42.6242 0.000196687 0)
(42.6075 0.000195429 0)
(42.5935 0.000192035 0)
(42.5824 0.000187554 0)
(42.5743 0.0001811 0)
(42.5693 0.000171893 0)
(42.5672 0.000159482 0)
(42.5677 0.000143887 0)
(42.5703 0.000125708 0)
(42.5746 0.000105959 0)
(42.5801 8.59905e-05 0)
(42.5862 6.70988e-05 0)
(42.5926 5.02816e-05 0)
(42.5989 3.62116e-05 0)
(42.6046 2.50563e-05 0)
(42.6096 1.66735e-05 0)
(42.6136 1.06816e-05 0)
(42.6167 6.60036e-06 0)
(42.6187 3.94533e-06 0)
(42.6198 2.29265e-06 0)