/*--------------------------------*- C++ -*----------------------------------*\
| =========                 |                                                 |
| \\      /  F ield         | OpenFOAM: The Open Source CFD Toolbox           |
|  \\    /   O peration     | Version:  3.0.x                                 |
|   \\  /    A nd           | Web:      www.OpenFOAM.org                      |
|    \\/     M anipulation  |                                                 |
\*---------------------------------------------------------------------------*/
FoamFile
{
    version     2.0;
    format      ascii;
    class       volVectorField;
    location    "0.009975";
    object      U;
}
// * * * * * * * * * * * * * * * * * * * * * * * * * * * * * * * * * * * * * //

dimensions      [0 1 -1 0 0 0 0];

internalField   nonuniform List<vector> 
13800
(
(57.8966 0.00011501 0)
(57.8941 6.77792e-05 0)
(57.8926 3.79505e-05 0)
(57.8918 1.8852e-05 0)
(57.8914 8.13042e-06 0)
(57.8913 3.1495e-06 0)
(57.8912 1.17191e-06 0)
(57.8912 4.81262e-07 0)
(57.8912 2.65587e-07 0)
(57.8911 2.04576e-07 0)
(57.8911 1.8878e-07 0)
(57.8911 1.84988e-07 0)
(57.8911 1.84149e-07 0)
(57.8911 1.83973e-07 0)
(57.8911 1.83938e-07 0)
(57.8911 1.83935e-07 0)
(57.891 1.8394e-07 0)
(57.891 1.83936e-07 0)
(57.891 1.8394e-07 0)
(57.891 1.83944e-07 0)
(57.891 1.83948e-07 0)
(57.891 1.83952e-07 0)
(57.891 1.83954e-07 0)
(57.8909 1.83958e-07 0)
(57.8909 1.83958e-07 0)
(57.8909 1.8396e-07 0)
(57.8909 1.83963e-07 0)
(57.8909 1.83965e-07 0)
(57.8909 1.83967e-07 0)
(57.8909 1.8397e-07 0)
(57.8909 1.83974e-07 0)
(57.8909 1.83971e-07 0)
(57.8909 1.83971e-07 0)
(57.8909 1.83972e-07 0)
(57.8909 1.83975e-07 0)
(57.8909 1.83972e-07 0)
(57.8909 1.83973e-07 0)
(57.8909 1.83975e-07 0)
(57.8909 1.8398e-07 0)
(57.8909 1.8398e-07 0)
(57.8909 1.83978e-07 0)
(57.8909 1.83978e-07 0)
(57.8909 1.83975e-07 0)
(57.8909 1.83976e-07 0)
(57.8909 1.83977e-07 0)
(57.8909 1.83979e-07 0)
(57.8909 1.83977e-07 0)
(57.8909 1.83977e-07 0)
(57.8909 1.83977e-07 0)
(57.8909 1.83974e-07 0)
(57.8909 1.83977e-07 0)
(57.8909 1.83977e-07 0)
(57.8909 1.83979e-07 0)
(57.8909 1.83975e-07 0)
(57.8909 1.83973e-07 0)
(57.8909 1.83976e-07 0)
(57.8909 1.83976e-07 0)
(57.8909 1.83974e-07 0)
(57.8909 1.83973e-07 0)
(57.8909 1.83975e-07 0)
(57.8909 1.83977e-07 0)
(57.8909 1.83976e-07 0)
(57.8909 1.83976e-07 0)
(57.8909 1.83978e-07 0)
(57.8909 1.83976e-07 0)
(57.8909 1.83975e-07 0)
(57.8909 1.83978e-07 0)
(57.8909 1.83976e-07 0)
(57.8909 1.83976e-07 0)
(57.8909 1.83976e-07 0)
(57.8909 1.83976e-07 0)
(57.8909 1.83976e-07 0)
(57.8909 1.83977e-07 0)
(57.8909 1.83975e-07 0)
(57.8909 1.83976e-07 0)
(57.8909 1.83976e-07 0)
(57.8909 1.83975e-07 0)
(57.8909 1.83977e-07 0)
(57.8909 1.83961e-07 0)
(57.8909 1.83968e-07 0)
(57.8909 1.83971e-07 0)
(57.8909 1.83974e-07 0)
(57.8909 1.83976e-07 0)
(57.8909 1.83975e-07 0)
(57.8909 1.83972e-07 0)
(57.8909 1.83975e-07 0)
(57.8909 1.83975e-07 0)
(57.8909 1.83977e-07 0)
(57.8909 1.83976e-07 0)
(57.8909 1.83976e-07 0)
(57.8909 1.83978e-07 0)
(57.8909 1.83976e-07 0)
(57.8909 1.83977e-07 0)
(57.8909 1.83977e-07 0)
(57.8909 1.83976e-07 0)
(57.8909 1.83976e-07 0)
(57.8909 1.83977e-07 0)
(57.8909 1.83977e-07 0)
(57.8909 1.83978e-07 0)
(57.8909 1.83978e-07 0)
(57.8909 1.83977e-07 0)
(57.8909 1.83977e-07 0)
(57.8909 1.83975e-07 0)
(57.8909 1.83976e-07 0)
(57.8909 1.83976e-07 0)
(57.8909 1.83975e-07 0)
(57.8909 1.83975e-07 0)
(57.8909 1.83976e-07 0)
(57.8909 1.83977e-07 0)
(57.8909 1.8399e-07 0)
(57.8909 1.83985e-07 0)
(57.8909 1.8398e-07 0)
(57.8909 1.83976e-07 0)
(57.8909 1.83975e-07 0)
(57.8909 1.83977e-07 0)
(57.8909 1.83977e-07 0)
(57.8909 1.83975e-07 0)
(57.8909 1.83977e-07 0)
(57.8909 1.83976e-07 0)
(57.8909 1.83977e-07 0)
(57.8909 1.83977e-07 0)
(57.8909 1.83977e-07 0)
(57.8909 1.83976e-07 0)
(57.8909 1.83975e-07 0)
(57.8909 1.83976e-07 0)
(57.8909 1.83974e-07 0)
(57.8909 1.83973e-07 0)
(57.8909 1.83974e-07 0)
(57.8909 1.83973e-07 0)
(57.8909 1.83975e-07 0)
(57.8909 1.83974e-07 0)
(57.8909 1.83977e-07 0)
(57.8909 1.83978e-07 0)
(57.8909 1.83976e-07 0)
(57.8909 1.83975e-07 0)
(57.8909 1.83977e-07 0)
(57.8909 1.83978e-07 0)
(57.8909 1.83976e-07 0)
(57.8909 1.83974e-07 0)
(57.8909 1.83976e-07 0)
(57.8909 1.83976e-07 0)
(57.8909 1.83977e-07 0)
(57.8909 1.83975e-07 0)
(57.8909 1.83975e-07 0)
(57.8909 1.83975e-07 0)
(57.8909 1.83975e-07 0)
(57.8909 1.83975e-07 0)
(57.8909 1.83972e-07 0)
(57.8909 1.83974e-07 0)
(57.8909 1.83977e-07 0)
(57.8909 1.83976e-07 0)
(57.8909 1.83975e-07 0)
(57.8909 1.83976e-07 0)
(57.8909 1.83977e-07 0)
(57.8909 1.83976e-07 0)
(57.8909 1.83976e-07 0)
(57.8908 1.83977e-07 0)
(57.8908 1.83976e-07 0)
(57.8907 1.83992e-07 0)
(57.8906 1.84008e-07 0)
(57.8902 1.84042e-07 0)
(57.8895 1.84113e-07 0)
(57.8881 1.84234e-07 0)
(57.8855 1.84433e-07 0)
(57.8806 1.84745e-07 0)
(57.8718 1.85188e-07 0)
(57.8567 1.85739e-07 0)
(57.8319 1.86267e-07 0)
(57.7929 1.86426e-07 0)
(57.7346 1.85537e-07 0)
(57.6523 1.82454e-07 0)
(57.5431 1.75494e-07 0)
(57.4082 1.62584e-07 0)
(57.2544 1.41688e-07 0)
(57.0958 1.11629e-07 0)
(56.9518 7.31526e-08 0)
(56.8446 2.99696e-08 0)
(56.793 -1.88602e-08 0)
(56.8037 -4.41402e-08 0)
(56.8752 -8.19593e-08 0)
(57.0035 -9.64131e-08 0)
(57.1739 -9.0224e-08 0)
(57.3621 -6.4668e-08 0)
(57.5428 -2.70512e-08 0)
(57.6934 2.0737e-08 0)
(57.7986 6.88495e-08 0)
(57.855 1.11374e-07 0)
(57.8713 1.4066e-07 0)
(57.8636 1.59253e-07 0)
(57.8449 1.76305e-07 0)
(57.8234 2.08821e-07 0)
(57.8043 3.74462e-07 0)
(57.7891 1.28797e-06 0)
(57.777 6.12678e-06 0)
(57.7665 3.11759e-05 0)
(57.7532 0.000161629 0)
(57.7184 0.000858934 0)
(57.585 0.00427961 0)
(57.0153 0.020448 0)
(52.9408 0.106306 0)
(57.9001 0.000183653 0)
(57.9003 9.16099e-05 0)
(57.9003 4.81238e-05 0)
(57.9004 2.364e-05 0)
(57.9003 1.00611e-05 0)
(57.9003 3.85121e-06 0)
(57.9003 1.43097e-06 0)
(57.9003 5.95593e-07 0)
(57.9003 3.36396e-07 0)
(57.9003 2.63419e-07 0)
(57.9003 2.44556e-07 0)
(57.9002 2.40036e-07 0)
(57.9002 2.39023e-07 0)
(57.9002 2.38809e-07 0)
(57.9002 2.38772e-07 0)
(57.9002 2.38763e-07 0)
(57.9002 2.38762e-07 0)
(57.9002 2.38767e-07 0)
(57.9001 2.38767e-07 0)
(57.9001 2.38768e-07 0)
(57.9001 2.38773e-07 0)
(57.9001 2.38771e-07 0)
(57.9001 2.38779e-07 0)
(57.9001 2.3878e-07 0)
(57.9001 2.38785e-07 0)
(57.9001 2.38784e-07 0)
(57.9 2.38788e-07 0)
(57.9 2.38791e-07 0)
(57.9 2.38795e-07 0)
(57.9 2.38794e-07 0)
(57.9 2.38797e-07 0)
(57.9 2.388e-07 0)
(57.9 2.38802e-07 0)
(57.9 2.38804e-07 0)
(57.9 2.38803e-07 0)
(57.9 2.38804e-07 0)
(57.9 2.38804e-07 0)
(57.9 2.38805e-07 0)
(57.9 2.38801e-07 0)
(57.9 2.388e-07 0)
(57.9 2.38802e-07 0)
(57.9 2.38804e-07 0)
(57.9 2.38804e-07 0)
(57.9 2.38804e-07 0)
(57.9 2.38804e-07 0)
(57.9 2.38802e-07 0)
(57.9 2.38803e-07 0)
(57.9 2.38803e-07 0)
(57.9 2.38805e-07 0)
(57.9 2.38807e-07 0)
(57.9 2.38801e-07 0)
(57.9 2.38801e-07 0)
(57.9 2.38803e-07 0)
(57.9 2.38806e-07 0)
(57.9 2.38805e-07 0)
(57.9 2.38804e-07 0)
(57.9 2.38804e-07 0)
(57.9 2.38804e-07 0)
(57.9 2.38807e-07 0)
(57.9 2.38806e-07 0)
(57.9 2.38804e-07 0)
(57.9 2.38804e-07 0)
(57.9 2.38806e-07 0)
(57.9 2.38806e-07 0)
(57.9 2.38805e-07 0)
(57.9 2.38806e-07 0)
(57.9 2.38803e-07 0)
(57.9 2.38806e-07 0)
(57.9 2.38804e-07 0)
(57.9 2.38804e-07 0)
(57.9 2.38803e-07 0)
(57.9 2.38804e-07 0)
(57.9 2.38806e-07 0)
(57.9 2.38803e-07 0)
(57.9 2.38805e-07 0)
(57.9 2.38805e-07 0)
(57.9 2.38805e-07 0)
(57.9 2.38807e-07 0)
(57.9 2.3881e-07 0)
(57.9 2.38813e-07 0)
(57.9 2.38806e-07 0)
(57.9 2.38806e-07 0)
(57.9 2.38806e-07 0)
(57.9 2.38805e-07 0)
(57.9 2.38807e-07 0)
(57.9 2.38805e-07 0)
(57.9 2.38803e-07 0)
(57.9 2.38803e-07 0)
(57.9 2.38804e-07 0)
(57.9 2.38804e-07 0)
(57.9 2.38803e-07 0)
(57.9 2.38806e-07 0)
(57.9 2.38805e-07 0)
(57.9 2.38805e-07 0)
(57.9 2.38804e-07 0)
(57.9 2.38805e-07 0)
(57.9 2.38803e-07 0)
(57.9 2.38807e-07 0)
(57.9 2.38803e-07 0)
(57.9 2.38802e-07 0)
(57.9 2.38804e-07 0)
(57.9 2.38803e-07 0)
(57.9 2.38806e-07 0)
(57.9 2.38803e-07 0)
(57.9 2.38805e-07 0)
(57.9 2.38804e-07 0)
(57.9 2.38805e-07 0)
(57.9 2.38804e-07 0)
(57.9 2.38802e-07 0)
(57.9 2.38802e-07 0)
(57.9 2.388e-07 0)
(57.9 2.38803e-07 0)
(57.9 2.38805e-07 0)
(57.9 2.38804e-07 0)
(57.9 2.38803e-07 0)
(57.9 2.38802e-07 0)
(57.9 2.38804e-07 0)
(57.9 2.38806e-07 0)
(57.9 2.38804e-07 0)
(57.9 2.38802e-07 0)
(57.9 2.38802e-07 0)
(57.9 2.38803e-07 0)
(57.9 2.38804e-07 0)
(57.9 2.38806e-07 0)
(57.9 2.38808e-07 0)
(57.9 2.38805e-07 0)
(57.9 2.38807e-07 0)
(57.9 2.38805e-07 0)
(57.9 2.38808e-07 0)
(57.9 2.38806e-07 0)
(57.9 2.38807e-07 0)
(57.9 2.38805e-07 0)
(57.9 2.38803e-07 0)
(57.9 2.38802e-07 0)
(57.9 2.38804e-07 0)
(57.9 2.38802e-07 0)
(57.9 2.38803e-07 0)
(57.9 2.38803e-07 0)
(57.9 2.38807e-07 0)
(57.9 2.38806e-07 0)
(57.9 2.38803e-07 0)
(57.9 2.38802e-07 0)
(57.9 2.38803e-07 0)
(57.9 2.38804e-07 0)
(57.9 2.38804e-07 0)
(57.9 2.38806e-07 0)
(57.9 2.38805e-07 0)
(57.9 2.38808e-07 0)
(57.9 2.38803e-07 0)
(57.9 2.38806e-07 0)
(57.9 2.38804e-07 0)
(57.9 2.38803e-07 0)
(57.9 2.38803e-07 0)
(57.9 2.38807e-07 0)
(57.9 2.38806e-07 0)
(57.9 2.3881e-07 0)
(57.9 2.38816e-07 0)
(57.8999 2.38834e-07 0)
(57.8999 2.38862e-07 0)
(57.8997 2.38926e-07 0)
(57.8993 2.3906e-07 0)
(57.8986 2.39322e-07 0)
(57.8973 2.39803e-07 0)
(57.8946 2.40669e-07 0)
(57.8897 2.42152e-07 0)
(57.8809 2.44561e-07 0)
(57.8659 2.48257e-07 0)
(57.841 2.5352e-07 0)
(57.802 2.60372e-07 0)
(57.7437 2.68224e-07 0)
(57.6614 2.75475e-07 0)
(57.5523 2.79188e-07 0)
(57.4173 2.75022e-07 0)
(57.2636 2.57892e-07 0)
(57.1049 2.23351e-07 0)
(56.9609 1.69624e-07 0)
(56.8537 9.91457e-08 0)
(56.8021 1.07703e-08 0)
(56.8128 -3.35741e-08 0)
(56.8843 -1.11634e-07 0)
(57.0126 -1.50934e-07 0)
(57.1829 -1.57864e-07 0)
(57.3712 -1.30657e-07 0)
(57.5519 -7.9544e-08 0)
(57.7025 1.11532e-09 0)
(57.8076 7.59306e-08 0)
(57.864 1.41319e-07 0)
(57.8804 1.86871e-07 0)
(57.8727 2.19687e-07 0)
(57.854 2.58435e-07 0)
(57.8324 3.69645e-07 0)
(57.8134 9.52827e-07 0)
(57.7982 4.09301e-06 0)
(57.7861 2.05919e-05 0)
(57.7756 0.000105858 0)
(57.7623 0.000553812 0)
(57.7276 0.00290937 0)
(57.5949 0.0146719 0)
(57.0291 0.0706444 0)
(53.1745 0.355924 0)
(57.9001 0.000136162 0)
(57.9003 6.36682e-05 0)
(57.9003 3.36088e-05 0)
(57.9004 1.76127e-05 0)
(57.9003 7.77096e-06 0)
(57.9003 3.03311e-06 0)
(57.9003 1.14174e-06 0)
(57.9003 4.70941e-07 0)
(57.9003 2.56311e-07 0)
(57.9003 1.94108e-07 0)
(57.9003 1.77582e-07 0)
(57.9002 1.73504e-07 0)
(57.9002 1.72562e-07 0)
(57.9002 1.72357e-07 0)
(57.9002 1.72318e-07 0)
(57.9002 1.72312e-07 0)
(57.9002 1.72314e-07 0)
(57.9002 1.72311e-07 0)
(57.9001 1.72315e-07 0)
(57.9001 1.72316e-07 0)
(57.9001 1.72318e-07 0)
(57.9001 1.72323e-07 0)
(57.9001 1.72323e-07 0)
(57.9001 1.72328e-07 0)
(57.9001 1.7233e-07 0)
(57.9001 1.72331e-07 0)
(57.9 1.72335e-07 0)
(57.9 1.72337e-07 0)
(57.9 1.72339e-07 0)
(57.9 1.72341e-07 0)
(57.9 1.72343e-07 0)
(57.9 1.72345e-07 0)
(57.9 1.72348e-07 0)
(57.9 1.72347e-07 0)
(57.9 1.72348e-07 0)
(57.9 1.72349e-07 0)
(57.9 1.72348e-07 0)
(57.9 1.72349e-07 0)
(57.9 1.72349e-07 0)
(57.9 1.72353e-07 0)
(57.9 1.72351e-07 0)
(57.9 1.72352e-07 0)
(57.9 1.72352e-07 0)
(57.9 1.7235e-07 0)
(57.9 1.72349e-07 0)
(57.9 1.72349e-07 0)
(57.9 1.72351e-07 0)
(57.9 1.72351e-07 0)
(57.9 1.72349e-07 0)
(57.9 1.72349e-07 0)
(57.9 1.72351e-07 0)
(57.9 1.72351e-07 0)
(57.9 1.7235e-07 0)
(57.9 1.72349e-07 0)
(57.9 1.7235e-07 0)
(57.9 1.72351e-07 0)
(57.9 1.72349e-07 0)
(57.9 1.7235e-07 0)
(57.9 1.72349e-07 0)
(57.9 1.72349e-07 0)
(57.9 1.72349e-07 0)
(57.9 1.7235e-07 0)
(57.9 1.7235e-07 0)
(57.9 1.7235e-07 0)
(57.9 1.7235e-07 0)
(57.9 1.7235e-07 0)
(57.9 1.72349e-07 0)
(57.9 1.7235e-07 0)
(57.9 1.7235e-07 0)
(57.9 1.72351e-07 0)
(57.9 1.7235e-07 0)
(57.9 1.72349e-07 0)
(57.9 1.72349e-07 0)
(57.9 1.7235e-07 0)
(57.9 1.7235e-07 0)
(57.9 1.7235e-07 0)
(57.9 1.72349e-07 0)
(57.9 1.7235e-07 0)
(57.9 1.72348e-07 0)
(57.9 1.72345e-07 0)
(57.9 1.72348e-07 0)
(57.9 1.7235e-07 0)
(57.9 1.72349e-07 0)
(57.9 1.72351e-07 0)
(57.9 1.7235e-07 0)
(57.9 1.72349e-07 0)
(57.9 1.7235e-07 0)
(57.9 1.7235e-07 0)
(57.9 1.72349e-07 0)
(57.9 1.7235e-07 0)
(57.9 1.7235e-07 0)
(57.9 1.7235e-07 0)
(57.9 1.7235e-07 0)
(57.9 1.72351e-07 0)
(57.9 1.72349e-07 0)
(57.9 1.72349e-07 0)
(57.9 1.72351e-07 0)
(57.9 1.7235e-07 0)
(57.9 1.72352e-07 0)
(57.9 1.7235e-07 0)
(57.9 1.7235e-07 0)
(57.9 1.72349e-07 0)
(57.9 1.7235e-07 0)
(57.9 1.72348e-07 0)
(57.9 1.72349e-07 0)
(57.9 1.7235e-07 0)
(57.9 1.72348e-07 0)
(57.9 1.72349e-07 0)
(57.9 1.72349e-07 0)
(57.9 1.72351e-07 0)
(57.9 1.72351e-07 0)
(57.9 1.72351e-07 0)
(57.9 1.72351e-07 0)
(57.9 1.72351e-07 0)
(57.9 1.72351e-07 0)
(57.9 1.72351e-07 0)
(57.9 1.7235e-07 0)
(57.9 1.72349e-07 0)
(57.9 1.72348e-07 0)
(57.9 1.72348e-07 0)
(57.9 1.7235e-07 0)
(57.9 1.72349e-07 0)
(57.9 1.72349e-07 0)
(57.9 1.72349e-07 0)
(57.9 1.72347e-07 0)
(57.9 1.72349e-07 0)
(57.9 1.72349e-07 0)
(57.9 1.7235e-07 0)
(57.9 1.72349e-07 0)
(57.9 1.72348e-07 0)
(57.9 1.72351e-07 0)
(57.9 1.72349e-07 0)
(57.9 1.72349e-07 0)
(57.9 1.72353e-07 0)
(57.9 1.7235e-07 0)
(57.9 1.7235e-07 0)
(57.9 1.72352e-07 0)
(57.9 1.7235e-07 0)
(57.9 1.72348e-07 0)
(57.9 1.72349e-07 0)
(57.9 1.7235e-07 0)
(57.9 1.72348e-07 0)
(57.9 1.72348e-07 0)
(57.9 1.72346e-07 0)
(57.9 1.72349e-07 0)
(57.9 1.72349e-07 0)
(57.9 1.72349e-07 0)
(57.9 1.72348e-07 0)
(57.9 1.72348e-07 0)
(57.9 1.72351e-07 0)
(57.9 1.72349e-07 0)
(57.9 1.7235e-07 0)
(57.9 1.72348e-07 0)
(57.9 1.72349e-07 0)
(57.9 1.7235e-07 0)
(57.9 1.72354e-07 0)
(57.9 1.72357e-07 0)
(57.8999 1.72368e-07 0)
(57.8999 1.72398e-07 0)
(57.8997 1.72449e-07 0)
(57.8993 1.72559e-07 0)
(57.8986 1.72781e-07 0)
(57.8973 1.73174e-07 0)
(57.8946 1.73872e-07 0)
(57.8897 1.75045e-07 0)
(57.8809 1.76916e-07 0)
(57.8659 1.79694e-07 0)
(57.841 1.83489e-07 0)
(57.802 1.88089e-07 0)
(57.7437 1.92701e-07 0)
(57.6614 1.95607e-07 0)
(57.5523 1.93994e-07 0)
(57.4173 1.84091e-07 0)
(57.2636 1.61902e-07 0)
(57.1049 1.24584e-07 0)
(56.9609 7.22243e-08 0)
(56.8537 9.65621e-09 0)
(56.8021 -4.67016e-08 0)
(56.8128 -7.24679e-08 0)
(56.8843 -1.32759e-07 0)
(57.0126 -1.54438e-07 0)
(57.1829 -1.45632e-07 0)
(57.3712 -1.08493e-07 0)
(57.5519 -5.21135e-08 0)
(57.7025 2.4273e-08 0)
(57.8076 8.89804e-08 0)
(57.864 1.42828e-07 0)
(57.8804 1.76338e-07 0)
(57.8727 2.01505e-07 0)
(57.854 2.52441e-07 0)
(57.8324 4.69017e-07 0)
(57.8134 1.63672e-06 0)
(57.7982 7.897e-06 0)
(57.7861 4.08074e-05 0)
(57.7756 0.000210922 0)
(57.7624 0.00110903 0)
(57.7283 0.0057768 0)
(57.5979 0.0292553 0)
(57.0442 0.141062 0)
(53.3018 0.684595 0)
(57.9001 9.79761e-05 0)
(57.9002 5.77132e-05 0)
(57.9003 3.14626e-05 0)
(57.9003 1.68405e-05 0)
(57.9003 7.62262e-06 0)
(57.9003 3.01178e-06 0)
(57.9003 1.13648e-06 0)
(57.9003 4.62172e-07 0)
(57.9003 2.42474e-07 0)
(57.9003 1.77601e-07 0)
(57.9003 1.60065e-07 0)
(57.9002 1.55655e-07 0)
(57.9002 1.54616e-07 0)
(57.9002 1.54384e-07 0)
(57.9002 1.54336e-07 0)
(57.9002 1.54328e-07 0)
(57.9002 1.54328e-07 0)
(57.9002 1.54328e-07 0)
(57.9001 1.54331e-07 0)
(57.9001 1.5433e-07 0)
(57.9001 1.54332e-07 0)
(57.9001 1.54334e-07 0)
(57.9001 1.54336e-07 0)
(57.9001 1.54336e-07 0)
(57.9001 1.54339e-07 0)
(57.9001 1.5434e-07 0)
(57.9 1.54341e-07 0)
(57.9 1.54345e-07 0)
(57.9 1.54346e-07 0)
(57.9 1.54347e-07 0)
(57.9 1.54349e-07 0)
(57.9 1.5435e-07 0)
(57.9 1.54351e-07 0)
(57.9 1.54352e-07 0)
(57.9 1.54354e-07 0)
(57.9 1.54353e-07 0)
(57.9 1.54353e-07 0)
(57.9 1.54353e-07 0)
(57.9 1.54352e-07 0)
(57.9 1.54352e-07 0)
(57.9 1.54351e-07 0)
(57.9 1.54354e-07 0)
(57.9 1.54355e-07 0)
(57.9 1.54354e-07 0)
(57.9 1.54352e-07 0)
(57.9 1.54352e-07 0)
(57.9 1.54353e-07 0)
(57.9 1.54352e-07 0)
(57.9 1.54355e-07 0)
(57.9 1.54353e-07 0)
(57.9 1.54354e-07 0)
(57.9 1.54352e-07 0)
(57.9 1.54354e-07 0)
(57.9 1.54354e-07 0)
(57.9 1.54353e-07 0)
(57.9 1.54352e-07 0)
(57.9 1.54352e-07 0)
(57.9 1.54354e-07 0)
(57.9 1.54353e-07 0)
(57.9 1.54353e-07 0)
(57.9 1.54353e-07 0)
(57.9 1.54352e-07 0)
(57.9 1.54353e-07 0)
(57.9 1.54355e-07 0)
(57.9 1.54354e-07 0)
(57.9 1.54354e-07 0)
(57.9 1.54353e-07 0)
(57.9 1.54354e-07 0)
(57.9 1.54352e-07 0)
(57.9 1.54353e-07 0)
(57.9 1.54352e-07 0)
(57.9 1.54353e-07 0)
(57.9 1.54354e-07 0)
(57.9 1.54353e-07 0)
(57.9 1.54354e-07 0)
(57.9 1.54355e-07 0)
(57.9 1.54353e-07 0)
(57.9 1.54353e-07 0)
(57.9 1.54354e-07 0)
(57.9 1.54358e-07 0)
(57.9 1.54356e-07 0)
(57.9 1.54355e-07 0)
(57.9 1.54355e-07 0)
(57.9 1.54354e-07 0)
(57.9 1.54355e-07 0)
(57.9 1.54354e-07 0)
(57.9 1.54354e-07 0)
(57.9 1.54352e-07 0)
(57.9 1.54354e-07 0)
(57.9 1.54354e-07 0)
(57.9 1.54353e-07 0)
(57.9 1.54354e-07 0)
(57.9 1.54353e-07 0)
(57.9 1.54352e-07 0)
(57.9 1.54355e-07 0)
(57.9 1.54355e-07 0)
(57.9 1.54355e-07 0)
(57.9 1.54355e-07 0)
(57.9 1.54354e-07 0)
(57.9 1.54353e-07 0)
(57.9 1.54354e-07 0)
(57.9 1.54354e-07 0)
(57.9 1.54354e-07 0)
(57.9 1.54353e-07 0)
(57.9 1.54354e-07 0)
(57.9 1.54353e-07 0)
(57.9 1.54354e-07 0)
(57.9 1.54355e-07 0)
(57.9 1.54354e-07 0)
(57.9 1.54354e-07 0)
(57.9 1.54353e-07 0)
(57.9 1.54353e-07 0)
(57.9 1.54353e-07 0)
(57.9 1.54354e-07 0)
(57.9 1.54352e-07 0)
(57.9 1.54351e-07 0)
(57.9 1.54353e-07 0)
(57.9 1.54355e-07 0)
(57.9 1.54354e-07 0)
(57.9 1.54355e-07 0)
(57.9 1.54354e-07 0)
(57.9 1.54353e-07 0)
(57.9 1.54354e-07 0)
(57.9 1.54354e-07 0)
(57.9 1.54357e-07 0)
(57.9 1.54357e-07 0)
(57.9 1.54356e-07 0)
(57.9 1.54356e-07 0)
(57.9 1.54355e-07 0)
(57.9 1.54354e-07 0)
(57.9 1.54355e-07 0)
(57.9 1.54353e-07 0)
(57.9 1.54353e-07 0)
(57.9 1.54351e-07 0)
(57.9 1.5435e-07 0)
(57.9 1.54352e-07 0)
(57.9 1.54353e-07 0)
(57.9 1.54353e-07 0)
(57.9 1.54355e-07 0)
(57.9 1.54356e-07 0)
(57.9 1.54355e-07 0)
(57.9 1.54353e-07 0)
(57.9 1.54354e-07 0)
(57.9 1.54353e-07 0)
(57.9 1.54354e-07 0)
(57.9 1.54353e-07 0)
(57.9 1.54353e-07 0)
(57.9 1.54355e-07 0)
(57.9 1.54354e-07 0)
(57.9 1.54355e-07 0)
(57.9 1.54353e-07 0)
(57.9 1.54354e-07 0)
(57.9 1.54353e-07 0)
(57.9 1.54354e-07 0)
(57.9 1.54355e-07 0)
(57.9 1.54357e-07 0)
(57.9 1.54362e-07 0)
(57.8999 1.54371e-07 0)
(57.8999 1.5439e-07 0)
(57.8997 1.54427e-07 0)
(57.8993 1.54508e-07 0)
(57.8986 1.54662e-07 0)
(57.8973 1.54949e-07 0)
(57.8946 1.55454e-07 0)
(57.8897 1.56308e-07 0)
(57.8809 1.5767e-07 0)
(57.8659 1.59703e-07 0)
(57.841 1.62496e-07 0)
(57.802 1.65922e-07 0)
(57.7437 1.69452e-07 0)
(57.6614 1.71922e-07 0)
(57.5523 1.71419e-07 0)
(57.4173 1.65386e-07 0)
(57.2636 1.51145e-07 0)
(57.1049 1.26886e-07 0)
(56.9609 9.29517e-08 0)
(56.8537 5.33611e-08 0)
(56.8021 2.15267e-08 0)
(56.8128 -3.22678e-10 0)
(56.8843 -4.30048e-08 0)
(57.0126 -5.99849e-08 0)
(57.1829 -5.46598e-08 0)
(57.3712 -3.1843e-08 0)
(57.5519 3.00345e-09 0)
(57.7025 4.39838e-08 0)
(57.8076 8.61652e-08 0)
(57.864 1.24328e-07 0)
(57.8804 1.50823e-07 0)
(57.8727 1.83378e-07 0)
(57.854 2.95813e-07 0)
(57.8324 8.41606e-07 0)
(57.8134 3.75319e-06 0)
(57.7982 1.92807e-05 0)
(57.7861 0.000100945 0)
(57.7758 0.000523425 0)
(57.7631 0.00276335 0)
(57.7319 0.01438 0)
(57.6155 0.0726231 0)
(57.1323 0.344774 0)
(54.3039 1.52076 0)
(57.9001 3.0457e-05 0)
(57.9002 1.78695e-05 0)
(57.9003 8.02021e-06 0)
(57.9003 4.01064e-06 0)
(57.9003 1.77944e-06 0)
(57.9003 6.78979e-07 0)
(57.9003 2.53246e-07 0)
(57.9003 1.05339e-07 0)
(57.9003 5.68685e-08 0)
(57.9003 4.22499e-08 0)
(57.9003 3.81979e-08 0)
(57.9002 3.71421e-08 0)
(57.9002 3.68815e-08 0)
(57.9002 3.68203e-08 0)
(57.9002 3.6806e-08 0)
(57.9002 3.68039e-08 0)
(57.9002 3.68038e-08 0)
(57.9002 3.68029e-08 0)
(57.9001 3.68033e-08 0)
(57.9001 3.68042e-08 0)
(57.9001 3.68053e-08 0)
(57.9001 3.68054e-08 0)
(57.9001 3.68071e-08 0)
(57.9001 3.68069e-08 0)
(57.9001 3.68077e-08 0)
(57.9001 3.68086e-08 0)
(57.9 3.6809e-08 0)
(57.9 3.68093e-08 0)
(57.9 3.68101e-08 0)
(57.9 3.68091e-08 0)
(57.9 3.68102e-08 0)
(57.9 3.6811e-08 0)
(57.9 3.68117e-08 0)
(57.9 3.68124e-08 0)
(57.9 3.68126e-08 0)
(57.9 3.68127e-08 0)
(57.9 3.68121e-08 0)
(57.9 3.68124e-08 0)
(57.9 3.68125e-08 0)
(57.9 3.68118e-08 0)
(57.9 3.68114e-08 0)
(57.9 3.68131e-08 0)
(57.9 3.68123e-08 0)
(57.9 3.68108e-08 0)
(57.9 3.68116e-08 0)
(57.9 3.68117e-08 0)
(57.9 3.68116e-08 0)
(57.9 3.68108e-08 0)
(57.9 3.68103e-08 0)
(57.9 3.68112e-08 0)
(57.9 3.68114e-08 0)
(57.9 3.68115e-08 0)
(57.9 3.68109e-08 0)
(57.9 3.68118e-08 0)
(57.9 3.68116e-08 0)
(57.9 3.68133e-08 0)
(57.9 3.68121e-08 0)
(57.9 3.68124e-08 0)
(57.9 3.68125e-08 0)
(57.9 3.68127e-08 0)
(57.9 3.68128e-08 0)
(57.9 3.68131e-08 0)
(57.9 3.68135e-08 0)
(57.9 3.6813e-08 0)
(57.9 3.68129e-08 0)
(57.9 3.6812e-08 0)
(57.9 3.68113e-08 0)
(57.9 3.68124e-08 0)
(57.9 3.68121e-08 0)
(57.9 3.68117e-08 0)
(57.9 3.68121e-08 0)
(57.9 3.68117e-08 0)
(57.9 3.68123e-08 0)
(57.9 3.68111e-08 0)
(57.9 3.68121e-08 0)
(57.9 3.68107e-08 0)
(57.9 3.68116e-08 0)
(57.9 3.68123e-08 0)
(57.9 3.68115e-08 0)
(57.9 3.68105e-08 0)
(57.9 3.68113e-08 0)
(57.9 3.68125e-08 0)
(57.9 3.68126e-08 0)
(57.9 3.68123e-08 0)
(57.9 3.68124e-08 0)
(57.9 3.68123e-08 0)
(57.9 3.68116e-08 0)
(57.9 3.68107e-08 0)
(57.9 3.681e-08 0)
(57.9 3.68108e-08 0)
(57.9 3.68122e-08 0)
(57.9 3.68119e-08 0)
(57.9 3.68113e-08 0)
(57.9 3.68124e-08 0)
(57.9 3.68119e-08 0)
(57.9 3.68107e-08 0)
(57.9 3.68123e-08 0)
(57.9 3.68128e-08 0)
(57.9 3.68118e-08 0)
(57.9 3.68125e-08 0)
(57.9 3.68123e-08 0)
(57.9 3.68115e-08 0)
(57.9 3.68125e-08 0)
(57.9 3.68119e-08 0)
(57.9 3.68125e-08 0)
(57.9 3.68112e-08 0)
(57.9 3.68114e-08 0)
(57.9 3.68107e-08 0)
(57.9 3.68114e-08 0)
(57.9 3.68111e-08 0)
(57.9 3.68115e-08 0)
(57.9 3.68115e-08 0)
(57.9 3.68117e-08 0)
(57.9 3.6812e-08 0)
(57.9 3.68124e-08 0)
(57.9 3.68119e-08 0)
(57.9 3.6811e-08 0)
(57.9 3.68112e-08 0)
(57.9 3.681e-08 0)
(57.9 3.68111e-08 0)
(57.9 3.68107e-08 0)
(57.9 3.68111e-08 0)
(57.9 3.68118e-08 0)
(57.9 3.68117e-08 0)
(57.9 3.68114e-08 0)
(57.9 3.68114e-08 0)
(57.9 3.68107e-08 0)
(57.9 3.68106e-08 0)
(57.9 3.68109e-08 0)
(57.9 3.68108e-08 0)
(57.9 3.68121e-08 0)
(57.9 3.68129e-08 0)
(57.9 3.68119e-08 0)
(57.9 3.68139e-08 0)
(57.9 3.68126e-08 0)
(57.9 3.68123e-08 0)
(57.9 3.68125e-08 0)
(57.9 3.68127e-08 0)
(57.9 3.68117e-08 0)
(57.9 3.68118e-08 0)
(57.9 3.68111e-08 0)
(57.9 3.68122e-08 0)
(57.9 3.68118e-08 0)
(57.9 3.68124e-08 0)
(57.9 3.68113e-08 0)
(57.9 3.68121e-08 0)
(57.9 3.68132e-08 0)
(57.9 3.68132e-08 0)
(57.9 3.68113e-08 0)
(57.9 3.68128e-08 0)
(57.9 3.68119e-08 0)
(57.9 3.68119e-08 0)
(57.9 3.68123e-08 0)
(57.9 3.68127e-08 0)
(57.9 3.68124e-08 0)
(57.9 3.68137e-08 0)
(57.9 3.68145e-08 0)
(57.8999 3.68155e-08 0)
(57.8999 3.68221e-08 0)
(57.8997 3.68349e-08 0)
(57.8993 3.68621e-08 0)
(57.8986 3.6916e-08 0)
(57.8973 3.70117e-08 0)
(57.8946 3.71822e-08 0)
(57.8897 3.74687e-08 0)
(57.8809 3.79256e-08 0)
(57.8659 3.86077e-08 0)
(57.841 3.95453e-08 0)
(57.802 4.06943e-08 0)
(57.7437 4.18762e-08 0)
(57.6614 4.26944e-08 0)
(57.5523 4.24974e-08 0)
(57.4173 4.04037e-08 0)
(57.2636 3.54668e-08 0)
(57.1049 2.69701e-08 0)
(56.9609 1.47351e-08 0)
(56.8537 -9.79456e-10 0)
(56.8021 -2.15547e-08 0)
(56.8128 -3.56653e-08 0)
(56.8843 -5.05583e-08 0)
(57.0126 -5.67703e-08 0)
(57.1829 -5.50304e-08 0)
(57.3712 -4.74587e-08 0)
(57.5519 -3.59692e-08 0)
(57.7025 -2.22358e-08 0)
(57.8076 -6.4911e-09 0)
(57.864 7.76189e-09 0)
(57.8804 2.29057e-08 0)
(57.8727 6.34282e-08 0)
(57.854 2.42863e-07 0)
(57.8324 1.15911e-06 0)
(57.8134 6.02712e-06 0)
(57.7982 3.19483e-05 0)
(57.7862 0.000168342 0)
(57.7764 0.000875339 0)
(57.7664 0.00463631 0)
(57.7486 0.0242557 0)
(57.694 0.123009 0)
(57.4598 0.583715 0)
(55.8094 2.4673 0)
(57.9001 -3.0457e-05 0)
(57.9002 -1.78695e-05 0)
(57.9003 -8.0202e-06 0)
(57.9003 -4.01064e-06 0)
(57.9003 -1.77944e-06 0)
(57.9003 -6.78981e-07 0)
(57.9003 -2.53247e-07 0)
(57.9003 -1.05339e-07 0)
(57.9003 -5.68688e-08 0)
(57.9003 -4.22506e-08 0)
(57.9003 -3.8198e-08 0)
(57.9002 -3.71416e-08 0)
(57.9002 -3.68805e-08 0)
(57.9002 -3.682e-08 0)
(57.9002 -3.68077e-08 0)
(57.9002 -3.68049e-08 0)
(57.9002 -3.68036e-08 0)
(57.9002 -3.68034e-08 0)
(57.9001 -3.6803e-08 0)
(57.9001 -3.6806e-08 0)
(57.9001 -3.68056e-08 0)
(57.9001 -3.68056e-08 0)
(57.9001 -3.68066e-08 0)
(57.9001 -3.6808e-08 0)
(57.9001 -3.68091e-08 0)
(57.9001 -3.68101e-08 0)
(57.9 -3.68097e-08 0)
(57.9 -3.68094e-08 0)
(57.9 -3.68102e-08 0)
(57.9 -3.68113e-08 0)
(57.9 -3.68103e-08 0)
(57.9 -3.68108e-08 0)
(57.9 -3.68109e-08 0)
(57.9 -3.68124e-08 0)
(57.9 -3.68118e-08 0)
(57.9 -3.68123e-08 0)
(57.9 -3.68116e-08 0)
(57.9 -3.68107e-08 0)
(57.9 -3.68118e-08 0)
(57.9 -3.68124e-08 0)
(57.9 -3.68119e-08 0)
(57.9 -3.68118e-08 0)
(57.9 -3.68104e-08 0)
(57.9 -3.68112e-08 0)
(57.9 -3.68125e-08 0)
(57.9 -3.68127e-08 0)
(57.9 -3.68125e-08 0)
(57.9 -3.68126e-08 0)
(57.9 -3.68121e-08 0)
(57.9 -3.68126e-08 0)
(57.9 -3.68117e-08 0)
(57.9 -3.68121e-08 0)
(57.9 -3.68112e-08 0)
(57.9 -3.68123e-08 0)
(57.9 -3.6813e-08 0)
(57.9 -3.68135e-08 0)
(57.9 -3.68131e-08 0)
(57.9 -3.68128e-08 0)
(57.9 -3.68129e-08 0)
(57.9 -3.68128e-08 0)
(57.9 -3.68122e-08 0)
(57.9 -3.68124e-08 0)
(57.9 -3.6812e-08 0)
(57.9 -3.68121e-08 0)
(57.9 -3.68114e-08 0)
(57.9 -3.68112e-08 0)
(57.9 -3.6812e-08 0)
(57.9 -3.68121e-08 0)
(57.9 -3.68126e-08 0)
(57.9 -3.68128e-08 0)
(57.9 -3.68124e-08 0)
(57.9 -3.68131e-08 0)
(57.9 -3.6813e-08 0)
(57.9 -3.68116e-08 0)
(57.9 -3.68111e-08 0)
(57.9 -3.68114e-08 0)
(57.9 -3.6812e-08 0)
(57.9 -3.68119e-08 0)
(57.9 -3.68124e-08 0)
(57.9 -3.68104e-08 0)
(57.9 -3.6811e-08 0)
(57.9 -3.68118e-08 0)
(57.9 -3.68109e-08 0)
(57.9 -3.68122e-08 0)
(57.9 -3.68123e-08 0)
(57.9 -3.68125e-08 0)
(57.9 -3.68117e-08 0)
(57.9 -3.68117e-08 0)
(57.9 -3.68117e-08 0)
(57.9 -3.68121e-08 0)
(57.9 -3.68115e-08 0)
(57.9 -3.68112e-08 0)
(57.9 -3.68122e-08 0)
(57.9 -3.68129e-08 0)
(57.9 -3.68121e-08 0)
(57.9 -3.68114e-08 0)
(57.9 -3.68108e-08 0)
(57.9 -3.68113e-08 0)
(57.9 -3.68115e-08 0)
(57.9 -3.68117e-08 0)
(57.9 -3.68115e-08 0)
(57.9 -3.68126e-08 0)
(57.9 -3.68121e-08 0)
(57.9 -3.68122e-08 0)
(57.9 -3.68118e-08 0)
(57.9 -3.68116e-08 0)
(57.9 -3.68123e-08 0)
(57.9 -3.68119e-08 0)
(57.9 -3.6812e-08 0)
(57.9 -3.68121e-08 0)
(57.9 -3.68114e-08 0)
(57.9 -3.68117e-08 0)
(57.9 -3.68112e-08 0)
(57.9 -3.68117e-08 0)
(57.9 -3.68123e-08 0)
(57.9 -3.6813e-08 0)
(57.9 -3.68125e-08 0)
(57.9 -3.68112e-08 0)
(57.9 -3.68115e-08 0)
(57.9 -3.68109e-08 0)
(57.9 -3.68108e-08 0)
(57.9 -3.68116e-08 0)
(57.9 -3.68126e-08 0)
(57.9 -3.68121e-08 0)
(57.9 -3.68115e-08 0)
(57.9 -3.68102e-08 0)
(57.9 -3.68099e-08 0)
(57.9 -3.68102e-08 0)
(57.9 -3.68107e-08 0)
(57.9 -3.68107e-08 0)
(57.9 -3.68109e-08 0)
(57.9 -3.68116e-08 0)
(57.9 -3.68132e-08 0)
(57.9 -3.68128e-08 0)
(57.9 -3.68134e-08 0)
(57.9 -3.68128e-08 0)
(57.9 -3.68125e-08 0)
(57.9 -3.68118e-08 0)
(57.9 -3.68119e-08 0)
(57.9 -3.6811e-08 0)
(57.9 -3.68116e-08 0)
(57.9 -3.68113e-08 0)
(57.9 -3.68121e-08 0)
(57.9 -3.68129e-08 0)
(57.9 -3.68126e-08 0)
(57.9 -3.68129e-08 0)
(57.9 -3.68127e-08 0)
(57.9 -3.68119e-08 0)
(57.9 -3.68127e-08 0)
(57.9 -3.6812e-08 0)
(57.9 -3.68118e-08 0)
(57.9 -3.68119e-08 0)
(57.9 -3.6813e-08 0)
(57.9 -3.68125e-08 0)
(57.9 -3.68119e-08 0)
(57.9 -3.68125e-08 0)
(57.9 -3.68143e-08 0)
(57.8999 -3.68168e-08 0)
(57.8999 -3.68235e-08 0)
(57.8997 -3.68357e-08 0)
(57.8993 -3.6864e-08 0)
(57.8986 -3.69165e-08 0)
(57.8973 -3.70132e-08 0)
(57.8946 -3.71817e-08 0)
(57.8897 -3.74672e-08 0)
(57.8809 -3.79246e-08 0)
(57.8659 -3.8608e-08 0)
(57.841 -3.95442e-08 0)
(57.802 -4.06946e-08 0)
(57.7437 -4.18759e-08 0)
(57.6614 -4.26948e-08 0)
(57.5523 -4.24976e-08 0)
(57.4173 -4.04028e-08 0)
(57.2636 -3.5467e-08 0)
(57.1049 -2.69693e-08 0)
(56.9609 -1.47354e-08 0)
(56.8537 9.78176e-10 0)
(56.8021 2.15536e-08 0)
(56.8128 3.56648e-08 0)
(56.8843 5.05575e-08 0)
(57.0126 5.677e-08 0)
(57.1829 5.5032e-08 0)
(57.3712 4.74604e-08 0)
(57.5519 3.59782e-08 0)
(57.7025 2.22956e-08 0)
(57.8076 6.89994e-09 0)
(57.864 -5.21142e-09 0)
(57.8804 -6.9762e-09 0)
(57.8727 2.44731e-08 0)
(57.854 1.99519e-07 0)
(57.8324 1.11491e-06 0)
(57.8134 5.98252e-06 0)
(57.7982 3.19404e-05 0)
(57.7864 0.000168753 0)
(57.7772 0.000880311 0)
(57.7707 0.00468988 0)
(57.7703 0.0249121 0)
(57.7972 0.130083 0)
(57.8989 0.647325 0)
(58.4683 2.74815 0)
(57.9001 -9.79761e-05 0)
(57.9002 -5.77132e-05 0)
(57.9003 -3.14626e-05 0)
(57.9003 -1.68405e-05 0)
(57.9003 -7.62262e-06 0)
(57.9003 -3.01178e-06 0)
(57.9003 -1.13648e-06 0)
(57.9003 -4.62172e-07 0)
(57.9003 -2.42473e-07 0)
(57.9003 -1.77601e-07 0)
(57.9003 -1.60063e-07 0)
(57.9002 -1.55654e-07 0)
(57.9002 -1.54614e-07 0)
(57.9002 -1.54384e-07 0)
(57.9002 -1.54339e-07 0)
(57.9002 -1.54329e-07 0)
(57.9002 -1.54328e-07 0)
(57.9002 -1.54328e-07 0)
(57.9001 -1.54328e-07 0)
(57.9001 -1.5433e-07 0)
(57.9001 -1.54333e-07 0)
(57.9001 -1.54335e-07 0)
(57.9001 -1.54335e-07 0)
(57.9001 -1.54338e-07 0)
(57.9001 -1.54339e-07 0)
(57.9001 -1.5434e-07 0)
(57.9 -1.54343e-07 0)
(57.9 -1.54343e-07 0)
(57.9 -1.54346e-07 0)
(57.9 -1.54349e-07 0)
(57.9 -1.54349e-07 0)
(57.9 -1.5435e-07 0)
(57.9 -1.54352e-07 0)
(57.9 -1.54351e-07 0)
(57.9 -1.54351e-07 0)
(57.9 -1.54351e-07 0)
(57.9 -1.54354e-07 0)
(57.9 -1.54353e-07 0)
(57.9 -1.54352e-07 0)
(57.9 -1.54353e-07 0)
(57.9 -1.54353e-07 0)
(57.9 -1.54351e-07 0)
(57.9 -1.54351e-07 0)
(57.9 -1.54352e-07 0)
(57.9 -1.54353e-07 0)
(57.9 -1.54353e-07 0)
(57.9 -1.54353e-07 0)
(57.9 -1.54353e-07 0)
(57.9 -1.54353e-07 0)
(57.9 -1.54354e-07 0)
(57.9 -1.54353e-07 0)
(57.9 -1.54352e-07 0)
(57.9 -1.54354e-07 0)
(57.9 -1.54355e-07 0)
(57.9 -1.54356e-07 0)
(57.9 -1.54352e-07 0)
(57.9 -1.54352e-07 0)
(57.9 -1.54352e-07 0)
(57.9 -1.54352e-07 0)
(57.9 -1.54352e-07 0)
(57.9 -1.54352e-07 0)
(57.9 -1.54351e-07 0)
(57.9 -1.54352e-07 0)
(57.9 -1.54352e-07 0)
(57.9 -1.54352e-07 0)
(57.9 -1.54355e-07 0)
(57.9 -1.54354e-07 0)
(57.9 -1.54352e-07 0)
(57.9 -1.54353e-07 0)
(57.9 -1.54354e-07 0)
(57.9 -1.54354e-07 0)
(57.9 -1.54353e-07 0)
(57.9 -1.54355e-07 0)
(57.9 -1.54355e-07 0)
(57.9 -1.54352e-07 0)
(57.9 -1.54354e-07 0)
(57.9 -1.54352e-07 0)
(57.9 -1.54352e-07 0)
(57.9 -1.54354e-07 0)
(57.9 -1.54354e-07 0)
(57.9 -1.54352e-07 0)
(57.9 -1.54352e-07 0)
(57.9 -1.54352e-07 0)
(57.9 -1.54353e-07 0)
(57.9 -1.54354e-07 0)
(57.9 -1.54355e-07 0)
(57.9 -1.54355e-07 0)
(57.9 -1.54356e-07 0)
(57.9 -1.54357e-07 0)
(57.9 -1.54355e-07 0)
(57.9 -1.54353e-07 0)
(57.9 -1.54354e-07 0)
(57.9 -1.54354e-07 0)
(57.9 -1.54354e-07 0)
(57.9 -1.54353e-07 0)
(57.9 -1.54355e-07 0)
(57.9 -1.54353e-07 0)
(57.9 -1.54353e-07 0)
(57.9 -1.54353e-07 0)
(57.9 -1.54351e-07 0)
(57.9 -1.54352e-07 0)