/*--------------------------------*- C++ -*----------------------------------*\
| =========                 |                                                 |
| \\      /  F ield         | OpenFOAM: The Open Source CFD Toolbox           |
|  \\    /   O peration     | Version:  3.0.x                                 |
|   \\  /    A nd           | Web:      www.OpenFOAM.org                      |
|    \\/     M anipulation  |                                                 |
\*---------------------------------------------------------------------------*/
FoamFile
{
    version     2.0;
    format      ascii;
    class       volScalarField;
    location    "0.21";
    object      rho;
}
// * * * * * * * * * * * * * * * * * * * * * * * * * * * * * * * * * * * * * //

dimensions      [1 -3 0 0 0 0 0];

internalField   nonuniform List<scalar> 
6900
(
50.8049
50.8049
50.8049
50.805
50.8051
50.8053
50.8055
50.8057
50.8058
50.806
50.8062
50.8064
50.8065
50.8066
50.8066
50.8065
50.8065
50.8064
50.8063
50.8063
50.8064
50.8065
50.8066
50.8067
50.8067
50.8067
50.8066
50.8066
50.8064
50.8063
50.8062
50.806
50.8059
50.8057
50.8055
50.8053
50.8051
50.8049
50.8047
50.8045
50.8043
50.8041
50.8039
50.8036
50.8034
50.8032
50.803
50.8028
50.8026
50.8024
50.8022
50.8021
50.802
50.8019
50.8018
50.8018
50.8017
50.8018
50.8018
50.8019
50.802
50.8022
50.8023
50.8025
50.8028
50.8031
50.8033
50.8037
50.804
50.8043
50.8047
50.805
50.8054
50.8057
50.806
50.8063
50.8066
50.8069
50.8071
50.8073
50.8075
50.8076
50.8077
50.8078
50.8078
50.8078
50.8078
50.8077
50.8076
50.8074
50.8072
50.807
50.8068
50.8066
50.8064
50.8061
50.8059
50.8056
50.8054
50.8052
50.8049
50.8047
50.8045
50.8043
50.8042
50.804
50.8039
50.8038
50.8036
50.8035
50.8034
50.8033
50.8032
50.8031
50.803
50.8028
50.8027
50.8025
50.8024
50.8022
50.802
50.8018
50.8015
50.8012
50.8009
50.8006
50.8003
50.8
50.7996
50.7992
50.7988
50.7984
50.798
50.7976
50.7972
50.7968
50.7964
50.796
50.7956
50.7952
50.7948
50.7944
50.7941
50.7937
50.7934
50.793
50.7926
50.7923
50.7919
50.7915
50.7911
50.7907
50.7902
50.7898
50.7893
50.7888
50.7883
50.7878
50.7872
50.7867
50.7861
50.7856
50.785
50.7844
50.7838
50.7832
50.7825
50.7819
50.7813
50.7806
50.78
50.7793
50.7787
50.7781
50.7775
50.777
50.7764
50.7759
50.7753
50.7748
50.7743
50.7739
50.7734
50.7729
50.7724
50.7719
50.7713
50.7708
50.7702
50.7695
50.7688
50.7681
50.7674
50.7667
50.7659
50.7652
50.7645
50.7638
50.7634
50.7601
50.805
50.805
50.805
50.8051
50.8052
50.8054
50.8056
50.8057
50.8059
50.8061
50.8063
50.8065
50.8066
50.8066
50.8066
50.8066
50.8066
50.8065
50.8064
50.8064
50.8065
50.8066
50.8067
50.8068
50.8068
50.8068
50.8067
50.8066
50.8065
50.8064
50.8062
50.8061
50.8059
50.8058
50.8056
50.8054
50.8052
50.805
50.8048
50.8046
50.8044
50.8042
50.8039
50.8037
50.8035
50.8033
50.8031
50.8029
50.8027
50.8025
50.8023
50.8022
50.802
50.8019
50.8019
50.8018
50.8018
50.8018
50.8019
50.802
50.8021
50.8022
50.8024
50.8026
50.8029
50.8031
50.8034
50.8037
50.804
50.8044
50.8047
50.8051
50.8054
50.8058
50.8061
50.8064
50.8067
50.807
50.8072
50.8074
50.8076
50.8077
50.8078
50.8079
50.8079
50.8079
50.8078
50.8077
50.8076
50.8075
50.8073
50.8071
50.8069
50.8067
50.8064
50.8062
50.8059
50.8057
50.8055
50.8052
50.805
50.8048
50.8046
50.8044
50.8042
50.8041
50.8039
50.8038
50.8037
50.8036
50.8035
50.8034
50.8033
50.8032
50.803
50.8029
50.8028
50.8026
50.8024
50.8023
50.802
50.8018
50.8016
50.8013
50.801
50.8007
50.8004
50.8
50.7997
50.7993
50.7989
50.7985
50.7981
50.7977
50.7973
50.7969
50.7965
50.7961
50.7957
50.7953
50.7949
50.7945
50.7941
50.7938
50.7934
50.7931
50.7927
50.7923
50.7919
50.7915
50.7911
50.7907
50.7903
50.7898
50.7894
50.7889
50.7884
50.7878
50.7873
50.7868
50.7862
50.7856
50.785
50.7844
50.7838
50.7832
50.7826
50.782
50.7813
50.7807
50.78
50.7794
50.7788
50.7782
50.7776
50.777
50.7765
50.7759
50.7754
50.7749
50.7744
50.7739
50.7734
50.773
50.7725
50.7719
50.7714
50.7708
50.7702
50.7696
50.7689
50.7682
50.7675
50.7667
50.766
50.7653
50.7646
50.7638
50.7635
50.7604
50.805
50.805
50.805
50.8051
50.8052
50.8054
50.8056
50.8057
50.8059
50.8061
50.8063
50.8064
50.8066
50.8066
50.8066
50.8066
50.8066
50.8065
50.8064
50.8064
50.8065
50.8066
50.8067
50.8068
50.8068
50.8068
50.8067
50.8066
50.8065
50.8064
50.8062
50.8061
50.8059
50.8058
50.8056
50.8054
50.8052
50.805
50.8048
50.8046
50.8044
50.8042
50.8039
50.8037
50.8035
50.8033
50.8031
50.8029
50.8027
50.8025
50.8023
50.8022
50.802
50.8019
50.8019
50.8018
50.8018
50.8018
50.8019
50.802
50.8021
50.8022
50.8024
50.8026
50.8029
50.8031
50.8034
50.8037
50.804
50.8044
50.8047
50.8051
50.8054
50.8058
50.8061
50.8064
50.8067
50.807
50.8072
50.8074
50.8076
50.8077
50.8078
50.8079
50.8079
50.8079
50.8078
50.8077
50.8076
50.8075
50.8073
50.8071
50.8069
50.8067
50.8064
50.8062
50.8059
50.8057
50.8055
50.8052
50.805
50.8048
50.8046
50.8044
50.8042
50.8041
50.8039
50.8038
50.8037
50.8036
50.8035
50.8034
50.8033
50.8032
50.803
50.8029
50.8028
50.8026
50.8024
50.8023
50.802
50.8018
50.8016
50.8013
50.801
50.8007
50.8004
50.8
50.7997
50.7993
50.7989
50.7985
50.7981
50.7977
50.7973
50.7969
50.7965
50.7961
50.7957
50.7953
50.7949
50.7945
50.7941
50.7938
50.7934
50.7931
50.7927
50.7923
50.7919
50.7915
50.7911
50.7907
50.7903
50.7898
50.7894
50.7889
50.7884
50.7878
50.7873
50.7868
50.7862
50.7856
50.785
50.7844
50.7838
50.7832
50.7826
50.782
50.7813
50.7807
50.78
50.7794
50.7788
50.7782
50.7776
50.777
50.7765
50.7759
50.7754
50.7749
50.7744
50.7739
50.7734
50.773
50.7725
50.7719
50.7714
50.7708
50.7702
50.7696
50.7689
50.7682
50.7675
50.7667
50.766
50.7653
50.7645
50.7638
50.7632
50.7624
50.805
50.805
50.805
50.8051
50.8052
50.8054
50.8056
50.8057
50.8059
50.8061
50.8063
50.8065
50.8066
50.8066
50.8066
50.8066
50.8066
50.8065
50.8064
50.8064
50.8065
50.8066
50.8067
50.8068
50.8068
50.8068
50.8067
50.8066
50.8065
50.8064
50.8062
50.8061
50.8059
50.8058
50.8056
50.8054
50.8052
50.805
50.8048
50.8046
50.8044
50.8042
50.8039
50.8037
50.8035
50.8033
50.8031
50.8029
50.8027
50.8025
50.8023
50.8022
50.802
50.8019
50.8019
50.8018
50.8018
50.8018
50.8019
50.802
50.8021
50.8022
50.8024
50.8026
50.8029
50.8031
50.8034
50.8037
50.804
50.8044
50.8047
50.8051
50.8054
50.8058
50.8061
50.8064
50.8067
50.807
50.8072
50.8074
50.8076
50.8077
50.8078
50.8079
50.8079
50.8079
50.8078
50.8077
50.8076
50.8075
50.8073
50.8071
50.8069
50.8067
50.8064
50.8062
50.8059
50.8057
50.8055
50.8052
50.805
50.8048
50.8046
50.8044
50.8042
50.8041
50.8039
50.8038
50.8037
50.8036
50.8035
50.8034
50.8033
50.8032
50.803
50.8029
50.8028
50.8026
50.8024
50.8023
50.802
50.8018
50.8016
50.8013
50.801
50.8007
50.8004
50.8
50.7997
50.7993
50.7989
50.7985
50.7981
50.7977
50.7973
50.7969
50.7965
50.7961
50.7957
50.7953
50.7949
50.7945
50.7941
50.7938
50.7934
50.7931
50.7927
50.7923
50.7919
50.7915
50.7911
50.7907
50.7903
50.7898
50.7894
50.7889
50.7884
50.7878
50.7873
50.7868
50.7862
50.7856
50.785
50.7844
50.7838
50.7832
50.7826
50.782
50.7813
50.7807
50.78
50.7794
50.7788
50.7782
50.7776
50.777
50.7765
50.7759
50.7754
50.7749
50.7744
50.7739
50.7734
50.773
50.7725
50.7719
50.7714
50.7708
50.7702
50.7696
50.7689
50.7682
50.7675
50.7667
50.766
50.7653
50.7645
50.7639
50.7623
50.7674
50.8049
50.8049
50.8049
50.805
50.8051
50.8053
50.8055
50.8057
50.8058
50.806
50.8062
50.8064
50.8065
50.8066
50.8066
50.8065
50.8065
50.8064
50.8063
50.8063
50.8064
50.8065
50.8066
50.8067
50.8067
50.8067
50.8066
50.8066
50.8064
50.8063
50.8062
50.806
50.8059
50.8057
50.8055
50.8053
50.8051
50.8049
50.8047
50.8045
50.8043
50.8041
50.8039
50.8036
50.8034
50.8032
50.803
50.8028
50.8026
50.8024
50.8022
50.8021
50.802
50.8019
50.8018
50.8018
50.8017
50.8018
50.8018
50.8019
50.802
50.8022
50.8023
50.8025
50.8028
50.8031
50.8033
50.8037
50.804
50.8043
50.8047
50.805
50.8054
50.8057
50.806
50.8063
50.8066
50.8069
50.8071
50.8073
50.8075
50.8076
50.8077
50.8078
50.8078
50.8078
50.8078
50.8077
50.8076
50.8074
50.8072
50.807
50.8068
50.8066
50.8064
50.8061
50.8059
50.8056
50.8054
50.8052
50.8049
50.8047
50.8045
50.8043
50.8042
50.804
50.8039
50.8038
50.8036
50.8035
50.8034
50.8033
50.8032
50.8031
50.803
50.8028
50.8027
50.8025
50.8024
50.8022
50.802
50.8018
50.8015
50.8012
50.8009
50.8006
50.8003
50.8
50.7996
50.7992
50.7988
50.7984
50.798
50.7976
50.7972
50.7968
50.7964
50.796
50.7956
50.7952
50.7948
50.7944
50.7941
50.7937
50.7934
50.793
50.7926
50.7923
50.7919
50.7915
50.7911
50.7907
50.7902
50.7898
50.7893
50.7888
50.7883
50.7878
50.7872
50.7867
50.7861
50.7856
50.785
50.7844
50.7838
50.7832
50.7825
50.7819
50.7813
50.7806
50.78
50.7794
50.7787
50.7781
50.7775
50.777
50.7764
50.7759
50.7753
50.7748
50.7743
50.7739
50.7734
50.7729
50.7724
50.7719
50.7713
50.7708
50.7702
50.7695
50.7688
50.7681
50.7674
50.7667
50.7659
50.7652
50.7644
50.7639
50.7618
50.7726
50.7769
50.7832
50.7837
50.7819
50.7803
50.7791
50.7784
50.7766
50.7722
50.7657
50.7603
50.7561
50.7537
50.7582
50.7669
50.7712
50.7638
50.7463
50.7224
50.7026
50.7736
50.7767
50.7763
50.7747
50.7732
50.772
50.7715
50.7696
50.7648
50.7583
50.7532
50.7492
50.7471
50.7519
50.7615
50.7637
50.7536
50.7317
50.7081
50.6899
50.7628
50.7625
50.7613
50.7593
50.7565
50.753
50.7487
50.7439
50.7385
50.7327
50.7257
50.7176
50.7086
50.6984
50.6875
50.6771
50.6683
50.6607
50.6529
50.6433
50.7413
50.7385
50.7391
50.7402
50.739
50.7352
50.7302
50.7233
50.7174
50.7103
50.7036
50.697
50.6909
50.6849
50.679
50.6736
50.6685
50.6641
50.6609
50.6587
50.7321
50.7205
50.7161
50.7152
50.713
50.7081
50.7019
50.6939
50.6867
50.6781
50.6705
50.6624
50.655
50.6475
50.6408
50.6341
50.6283
50.6229
50.6192
50.6174
50.6541
50.6537
50.6583
50.6508
50.6475
50.6465
50.6462
50.645
50.6439
50.6436
50.6432
50.6427
50.6422
50.6417
50.6413
50.6409
50.6405
50.6402
50.6398
50.6395
50.6393
50.6391
50.6391
50.6389
50.6384
50.6381
50.6379
50.6379
50.6379
50.638
50.6385
50.6391
50.6389
50.6382
50.6376
50.6377
50.6379
50.6382
50.6385
50.6388
50.6392
50.6396
50.6396
50.6371
50.6235
50.6021
50.5918
50.591
50.5974
50.6202
50.6407
50.6506
50.6538
50.6539
50.6524
50.65
50.6484
50.6474
50.6467
50.6463
50.6459
50.6456
50.6453
50.6451
50.6448
50.6446
50.6444
50.6442
50.644
50.6438
50.6436
50.6435
50.6433
50.6432
50.6431
50.643
50.6429
50.6429
50.6429
50.6429
50.6429
50.6429
50.643
50.6431
50.6432
50.6433
50.6434
50.6436
50.6437
50.6439
50.644
50.6442
50.6443
50.6444
50.6445
50.6446
50.6447
50.6447
50.6448
50.6448
50.6447
50.6447
50.6446
50.6445
50.6444
50.6442
50.644
50.6438
50.6435
50.6433
50.643
50.6427
50.6424
50.642
50.6417
50.6413
50.6409
50.6406
50.6402
50.6398
50.6394
50.6391
50.6387
50.6384
50.6381
50.6377
50.6374
50.6372
50.6369
50.6367
50.6365
50.6363
50.6361
50.6359
50.6358
50.6357
50.6355
50.6354
50.6353
50.6352
50.6351
50.635
50.6348
50.6347
50.6345
50.6343
50.6341
50.6338
50.6336
50.6333
50.6329
50.6325
50.6321
50.6317
50.6312
50.6307
50.6302
50.6296
50.6291
50.6285
50.6278
50.6272
50.6266
50.6259
50.6252
50.6246
50.6239
50.6232
50.6226
50.6219
50.6213
50.6206
50.62
50.6195
50.6189
50.6184
50.618
50.6175
50.6171
50.6168
50.6165
50.6162
50.616
50.6158
50.6156
50.6155
50.6154
50.6153
50.6152
50.6151
50.615
50.6149
50.6147
50.6145
50.6143
50.6141
50.6137
50.6134
50.6119
50.6195
50.6509
50.654
50.6579
50.6502
50.6466
50.6455
50.6449
50.6439
50.6428
50.6425
50.642
50.6415
50.641
50.6406
50.6402
50.6398
50.6394
50.6391
50.6387
50.6384
50.6381
50.6379
50.6378
50.6375
50.637
50.6367
50.6365
50.6364
50.6364
50.6365
50.6367
50.637
50.6367
50.6361
50.6358
50.6359
50.6362
50.6365
50.6368
50.6372
50.6377
50.6381
50.6378
50.6339
50.6223
50.6133
50.6105
50.6114
50.6177
50.6316
50.6414
50.6464
50.6483
50.6487
50.6485
50.6479
50.6473
50.6469
50.6465
50.6462
50.6459
50.6456
50.6454
50.6451
50.6449
50.6447
50.6445
50.6442
50.644
50.6439
50.6437
50.6435
50.6434
50.6432
50.6431
50.643
50.643
50.6429
50.6429
50.6429
50.6429
50.643
50.6431
50.6431
50.6432
50.6434
50.6435
50.6436
50.6438
50.6439
50.6441
50.6442
50.6444
50.6445
50.6446
50.6447
50.6447
50.6448
50.6448
50.6448
50.6448
50.6447
50.6447
50.6446
50.6444
50.6443
50.6441
50.6438
50.6436
50.6433
50.6431
50.6427
50.6424
50.6421
50.6417
50.6414
50.641
50.6406
50.6403
50.6399
50.6395
50.6391
50.6388
50.6385
50.6381
50.6378
50.6375
50.6372
50.637
50.6367
50.6365
50.6363
50.6362
50.636
50.6359
50.6357
50.6356
50.6355
50.6354
50.6353
50.6352
50.635
50.6349
50.6348
50.6346
50.6344
50.6342
50.6339
50.6336
50.6333
50.633
50.6326
50.6322
50.6317
50.6313
50.6308
50.6302
50.6297
50.6291
50.6285
50.6279
50.6273
50.6266
50.626
50.6253
50.6246
50.624
50.6233
50.6226
50.622
50.6213
50.6207
50.6201
50.6195
50.619
50.6185
50.618
50.6176
50.6172
50.6169
50.6166
50.6163
50.6161
50.6159
50.6157
50.6156
50.6154
50.6153
50.6152
50.6151
50.615
50.6149
50.6148
50.6146
50.6144
50.6141
50.6138
50.6134
50.6123
50.6153
50.6143
50.6226
50.6295
50.6304
50.6291
50.6281
50.6275
50.6271
50.6268
50.6264
50.626
50.6256
50.6252
50.6248
50.6243
50.6239
50.6235
50.623
50.6224
50.622
50.6216
50.6212
50.6208
50.6205
50.6201
50.6198
50.6195
50.6192
50.6191
50.6191
50.6193
50.6201
50.6232
50.6277
50.6314
50.6343
50.6364
50.6378
50.6387
50.6394
50.64
50.6405
50.6409
50.6413
50.6419
50.6426
50.6436
50.6446
50.6454
50.646
50.6463
50.6465
50.6465
50.6465
50.6464
50.6463
50.6462
50.6461
50.646
50.6458
50.6456
50.6454
50.6453
50.6451
50.6448
50.6446
50.6444
50.6442
50.644
50.6439
50.6437
50.6435
50.6434
50.6432
50.6431
50.643
50.643
50.6429
50.6429
50.6429
50.6429
50.643
50.6431
50.6431
50.6432
50.6434
50.6435
50.6436
50.6438
50.6439
50.6441
50.6442
50.6444
50.6445
50.6446
50.6447
50.6447
50.6448
50.6448
50.6448
50.6448
50.6447
50.6447
50.6446
50.6444
50.6443
50.6441
50.6438
50.6436
50.6433
50.6431
50.6427
50.6424
50.6421
50.6417
50.6414
50.641
50.6406
50.6403
50.6399
50.6395
50.6391
50.6388
50.6385
50.6381
50.6378
50.6375
50.6372
50.637
50.6367
50.6365
50.6363
50.6362
50.636
50.6359
50.6357
50.6356
50.6355
50.6354
50.6353
50.6352
50.635
50.6349
50.6348
50.6346
50.6344
50.6342
50.6339
50.6336
50.6333
50.633
50.6326
50.6322
50.6317
50.6313
50.6308
50.6302
50.6297
50.6291
50.6285
50.6279
50.6273
50.6266
50.626
50.6253
50.6246
50.624
50.6233
50.6226
50.622
50.6213
50.6207
50.6201
50.6195
50.619
50.6185
50.618
50.6176
50.6172
50.6169
50.6166
50.6163
50.6161
50.6159
50.6157
50.6156
50.6154
50.6153
50.6152
50.6151
50.615
50.6149
50.6148
50.6146
50.6144
50.6141
50.6138
50.6134
50.6131
50.6126
50.6535
50.6513
50.6491
50.6475
50.6461
50.645
50.6442
50.6437
50.6434
50.6429
50.6425
50.642
50.6415
50.6411
50.6407
50.6403
50.64
50.6396
50.6393
50.6391
50.6388
50.6386
50.6384
50.6382
50.638
50.6379
50.6378
50.6378
50.6379
50.6379
50.6379
50.6377
50.6375
50.6373
50.6373
50.6375
50.6376
50.6374
50.6369
50.6368
50.637
50.637
50.6361
50.6331
50.6311
50.6306
50.6311
50.6328
50.6376
50.6425
50.6456
50.6471
50.6477
50.6478
50.6477
50.6474
50.647
50.6466
50.6463
50.6461
50.6458
50.6456
50.6453
50.6451
50.6449
50.6447
50.6445
50.6442
50.644
50.6439
50.6437
50.6435
50.6434
50.6432
50.6431
50.643
50.643
50.6429
50.6429
50.6429
50.6429
50.643
50.6431
50.6431
50.6432
50.6434
50.6435
50.6436
50.6438
50.6439
50.6441
50.6442
50.6444
50.6445
50.6446
50.6447
50.6447
50.6448
50.6448
50.6448
50.6448
50.6447
50.6447
50.6446
50.6444
50.6443
50.6441
50.6438
50.6436
50.6433
50.6431
50.6427
50.6424
50.6421
50.6417
50.6414
50.641
50.6406
50.6403
50.6399
50.6395
50.6391
50.6388
50.6385
50.6381
50.6378
50.6375
50.6372
50.637
50.6367
50.6365
50.6363
50.6362
50.636
50.6359
50.6357
50.6356
50.6355
50.6354
50.6353
50.6352
50.635
50.6349
50.6348
50.6346
50.6344
50.6342
50.6339
50.6336
50.6333
50.633
50.6326
50.6322
50.6317
50.6313
50.6308
50.6302
50.6297
50.6291
50.6285
50.6279
50.6273
50.6266
50.626
50.6253
50.6246
50.624
50.6233
50.6226
50.622
50.6213
50.6207
50.6201
50.6195
50.619
50.6185
50.618
50.6176
50.6172
50.6169
50.6166
50.6163
50.6161
50.6159
50.6157
50.6156
50.6154
50.6153
50.6152
50.6151
50.615
50.6149
50.6148
50.6146
50.6144
50.6141
50.6138
50.6135
50.6135
50.612
50.6388
50.6427
50.6411
50.6397
50.6385
50.6374
50.6366
50.6361
50.6358
50.6353
50.6348
50.6344
50.6339
50.6335
50.6331
50.6327
50.6324
50.6321
50.6318
50.6316
50.6313
50.6311
50.6309
50.6307
50.6305
50.6304
50.6303
50.6303
50.6303
50.6302
50.63
50.6298
50.6298
50.6298
50.6298
50.6295
50.6294
50.6296
50.6301
50.6307
50.6311
50.63
50.6219
50.6075
50.5994
50.5974
50.5984
50.6044
50.6174
50.6278
50.6351
50.6398
50.6427
50.6444
50.6453
50.6458
50.646
50.646
50.6459
50.6458
50.6456
50.6454
50.6452
50.645
50.6448
50.6446
50.6444
50.6442
50.644
50.6438
50.6436
50.6435
50.6433
50.6432
50.6431
50.643
50.6429
50.6429
50.6429
50.6429
50.6429
50.6429
50.643
50.6431
50.6432
50.6433
50.6434
50.6436
50.6437
50.6439
50.644
50.6442
50.6443
50.6444
50.6445
50.6446
50.6447
50.6447
50.6448
50.6448
50.6447
50.6447
50.6446
50.6445
50.6444
50.6442
50.644
50.6438
50.6435
50.6433
50.643
50.6427
50.6424
50.642
50.6417
50.6413
50.6409
50.6406
50.6402
50.6398
50.6394
50.6391
50.6387
50.6384
50.6381
50.6377
50.6374
50.6372
50.6369
50.6367
50.6365
50.6363
50.6361
50.6359
50.6358
50.6357
50.6355
50.6354
50.6353
50.6352
50.6351
50.635
50.6348
50.6347
50.6345
50.6343
50.6341
50.6338
50.6336
50.6333
50.6329
50.6325
50.6321
50.6317
50.6312
50.6307
50.6302
50.6296
50.6291
50.6285
50.6278
50.6272
50.6266
50.6259
50.6252
50.6246
50.6239
50.6232
50.6226
50.6219
50.6213
50.6206
50.62
50.6195
50.6189
50.6184
50.618
50.6175
50.6171
50.6168
50.6165
50.6162
50.616
50.6158
50.6156
50.6155
50.6154
50.6153
50.6152
50.6151
50.615
50.6148
50.6147
50.6145
50.6143
50.614
50.6138
50.6134
50.6135
50.6117
50.5846
50.5724
50.5679
50.5668
50.5645
50.5596
50.553
50.5462
50.5384
50.5309
50.5232
50.5152
50.5078
50.5002
50.4933
50.4866
50.4811
50.4762
50.4728
50.4711
50.5929
50.5899
50.5903
50.5912
50.59
50.5863
50.5805
50.5753
50.5683
50.5624
50.5558
50.5496
50.5427
50.5368
50.5308
50.5255
50.5206
50.5168
50.514
50.5119
50.613
50.6129
50.6118
50.6097
50.607
50.6036
50.5997
50.595
50.5898
50.5833
50.576
50.5675
50.5582
50.5492
50.5414
50.5342
50.5262
50.5165
50.5063
50.4949
50.623
50.6262
50.626
50.6246
50.6231
50.6219
50.62
50.6162
50.6121
50.6088
50.6067
50.6093
50.6165
50.6169
50.6072
50.5896
50.5739
50.5641
50.5551
50.5481
50.6263
50.6326
50.6333
50.6316
50.6301
50.6288
50.6268
50.6232
50.619
50.6155
50.6132
50.6156
50.6219
50.624
50.6166
50.6019
50.5852
50.5743
50.5641
50.5561
50.4913
50.4935
50.4916
50.4904
50.4888
50.4875
50.4866
50.4861
50.4855
50.4848
50.4841
50.4835
50.4829
50.4823
50.4817
50.4811
50.4806
50.4802
50.4797
50.4793
50.4788
50.4784
50.478
50.4776
50.4773
50.477
50.4768
50.4765
50.4762
50.4758
50.4754
50.475
50.4747
50.4746
50.4744
50.4741
50.4735
50.4732
50.4733
50.4735
50.4738
50.4739
50.472
50.4623
50.4481
50.4405
50.4387
50.4398
50.4464
50.459
50.4687
50.4754
50.4796
50.4822
50.4836
50.4843
50.4846
50.4846
50.4845
50.4843
50.484
50.4838
50.4835
50.4832
50.483
50.4827
50.4825
50.4823
50.4821
50.4819
50.4818
50.4816
50.4816
50.4815
50.4815
50.4815
50.4815
50.4816
50.4817
50.4819
50.482
50.4822
50.4824
50.4827
50.4829
50.4832
50.4834
50.4837
50.4839
50.4841
50.4844
50.4845
50.4847
50.4848
50.4849
50.4849
50.4849
50.4849
50.4837
50.4912
50.5056
50.5019
50.4996
50.4979
50.4962
50.4948
50.494
50.4934
50.4929
50.4922
50.4915
50.4908
50.4902
50.4896
50.489
50.4885
50.488
50.4875
50.487
50.4865
50.4861
50.4857
50.4853
50.4849
50.4846
50.4843
50.484
50.4838
50.4836
50.4834
50.483
50.4825
50.4822
50.482
50.4818
50.4816
50.4814
50.4812
50.4806
50.4799
50.4796
50.4795
50.4793
50.4779
50.4747
50.4726
50.472
50.4723
50.4739
50.4785
50.4828
50.4854
50.4866
50.487
50.4869
50.4866
50.4861
50.4856
50.4851
50.4847
50.4843
50.484
50.4837
50.4833
50.4831
50.4828
50.4826
50.4823
50.4821
50.482
50.4818
50.4817
50.4816
50.4816
50.4815
50.4816
50.4816
50.4817
50.4818
50.4819
50.4821
50.4823
50.4825
50.4827
50.483
50.4832
50.4835
50.4837
50.484
50.4842
50.4844
50.4846
50.4847
50.4849
50.4849
50.485
50.4849
50.4849
50.4841
50.4871
50.4624
50.4729
50.4807
50.4817
50.4802
50.4788
50.4779
50.4774
50.4768
50.4762
50.4755
50.4749
50.4742
50.4736
50.473
50.4724
50.4718
50.4712
50.4706
50.47
50.4694
50.4689
50.4684
50.468
50.4675
50.4671
50.4665
50.4659
50.4655
50.4651
50.4648
50.4647
50.4656
50.4689
50.4727
50.4759
50.4782
50.4798
50.4808
50.4814
50.4818
50.4821
50.4823
50.4825
50.4827
50.483
50.4835
50.4844
50.485
50.4856
50.4859
50.486
50.486
50.4858
50.4856
50.4854
50.4851
50.4849
50.4846
50.4844
50.4841
50.4838
50.4835
50.4833
50.483
50.4828
50.4825
50.4823
50.4821
50.482
50.4818
50.4817
50.4816
50.4816
50.4815
50.4816
50.4816
50.4817
50.4818
50.4819
50.4821
50.4823
50.4825
50.4827
50.483
50.4832
50.4835
50.4837
50.484
50.4842
50.4844
50.4846
50.4847
50.4849
50.4849
50.485
50.485
50.4849
50.4849
50.4848
50.5358
50.516
50.5031
50.4989
50.4979
50.4968
50.4949
50.4931
50.4925
50.4919
50.491
50.4902
50.4896
50.4891
50.4885
50.4879
50.4873
50.4867
50.4863
50.4859
50.4855
50.4851
50.4847
50.4841
50.4835
50.4831
50.4828
50.4826
50.4824
50.4822
50.4823
50.4819
50.4812
50.4806
50.4804
50.4803
50.4802
50.4802
50.48
50.4798
50.4798
50.4799
50.4799
50.4791
50.4744
50.4626
50.4543
50.4517
50.4526
50.4589
50.4724
50.4815
50.4861
50.4877
50.4879
50.4875
50.4868
50.486
50.4854
50.4849
50.4844
50.4841
50.4837
50.4834
50.4831
50.4828
50.4826
50.4823
50.4822
50.482
50.4818
50.4817
50.4816
50.4816
50.4815
50.4816
50.4816
50.4817
50.4818
50.4819
50.4821
50.4823
50.4825
50.4827
50.483
50.4832
50.4835
50.4837
50.484
50.4842
50.4844
50.4846
50.4847
50.4849
50.4849
50.485
50.485
50.485
50.4853
50.4843
50.5372
50.5166
50.5035
50.4996
50.4987
50.498
50.4959
50.4941
50.4936
50.493
50.4921
50.4914
50.4907
50.4902
50.4896
50.489
50.4884
50.4879
50.4874
50.487
50.4866
50.4864
50.486
50.4854
50.4849
50.4845
50.4841
50.4839
50.4838
50.4838
50.4842
50.4839
50.4832
50.4824
50.482
50.4819
50.4818
50.4817
50.4817
50.4816
50.4815
50.4816
50.4817
50.4813
50.4784
50.4648
50.4444
50.4345
50.4336
50.4393
50.4606
50.4802
50.4897
50.4927
50.4927
50.4913
50.4888
50.487
50.4859
50.4851
50.4846
50.4841
50.4837
50.4834
50.4831
50.4828
50.4825
50.4823
50.4821
50.4819
50.4818
50.4817
50.4816
50.4815
50.4815
50.4815
50.4815
50.4816
50.4817
50.4819
50.482
50.4822
50.4824
50.4827
50.4829
50.4832
50.4834
50.4837
50.4839
50.4841
50.4844
50.4845
50.4847
50.4848
50.4849
50.4849
50.4849
50.4849
50.4853
50.4841
50.4576
50.4456
50.4412
50.4401
50.4379
50.4331
50.4266
50.42
50.4124
50.405
50.3974
50.3896
50.3824
50.3749
50.3682
50.3616
50.3561
50.3513
50.348
50.3463
50.4658
50.4628
50.4632
50.4642
50.463
50.4594
50.4537
50.4487
50.4419
50.4362
50.4296
50.4236
50.4168
50.411
50.4053
50.4
50.3952
50.3915
50.3887
50.3867
50.4854
50.4853
50.4843
50.4824
50.4797
50.4765
50.4727
50.4682
50.4631
50.4568
50.4497
50.4414
50.4322
50.4232
50.4154
50.4083
50.4007
50.3913
50.3813
50.3702
50.4951
50.4984
50.4983
50.497
50.4957
50.4945
50.4928
50.4892
50.4851
50.4816
50.4795
50.4812
50.4891
50.4909
50.4826
50.4654
50.4491
50.4388
50.4296
50.4222
50.4983
50.5047
50.5055
50.5039
50.5025
50.5014
50.4996
50.4961
50.4919
50.4882
50.4859
50.4874
50.4944
50.4977
50.4916
50.4776
50.4606
50.4491
50.4387
50.4303
50.3664
50.3691
50.3679
50.3671
50.366
50.3651
50.3648
50.3648
50.3647
50.3646
50.3644
50.3643
50.3643
50.3642
50.3642
50.3643
50.3643
50.3644
50.3645
50.3646
50.3647
50.3649
50.3651
50.3653
50.3655
50.3657
50.366
50.3662
50.3664
50.3664
50.3664
50.3664
50.3664
50.3665
50.3664
50.366
50.366
50.3662
50.3667
50.3671
50.3671
50.3636
50.3509
50.339
50.334
50.3336
50.3361
50.3459
50.358
50.3666
50.3724
50.376
50.3781
50.3792
50.3798
50.38
50.3801
50.38
50.3799
50.3797
50.3796
50.3794
50.3793
50.3792
50.3791
50.379
50.3789
50.3789
50.3789
50.3789
50.3789
50.379
50.379
50.3792
50.3793
50.3794
50.3796
50.3797
50.3799
50.3801
50.3803
50.3805
50.3806
50.3808
50.381
50.3812
50.3813
50.3814
50.3815
50.3816
50.3817
50.3817
50.3818
50.3818
50.3817
50.3817
50.3816
50.3815
50.3814
50.3813
50.3811
50.381
50.3808
50.3806
50.3804
50.3802
50.38
50.3798
50.3796
50.3794
50.3792
50.379
50.3788
50.3786
50.3785
50.3783
50.3782
50.3781
50.3781
50.378
50.378
50.378
50.3781
50.3781
50.3782
50.3783
50.3785
50.3786
50.3788
50.379
50.3792
50.3794
50.3796
50.3798
50.38
50.3801
50.3803
50.3805
50.3806
50.3808
50.3809
50.3809
50.381
50.381
50.381
50.381
50.3809
50.3809
50.3808
50.3806
50.3805
50.3804
50.3802
50.38
50.3798
50.3796
50.3794
50.3792
50.379
50.3788
50.3786
50.3784
50.3782
50.378
50.3778
50.3777
50.3775
50.3774
50.3774
50.3773
50.3773
50.3773
50.3773
50.3774
50.3775
50.3776
50.3778
50.378
50.3782
50.3784
50.3786
50.3789
50.3791
50.3793
50.3796
50.3798
50.3799
50.3801
50.3802
50.3803
50.3804
50.3804
50.3804
50.3803
50.3803
50.3802
50.3801
50.38
50.3803
50.3789
50.3804
50.3774
50.3758
50.3746
50.3734
50.3725
50.3722
50.3722
50.3722
50.372
50.3718
50.3717
50.3717
50.3717
50.3716
50.3716
50.3717
50.3718
50.3719
50.372
50.3721
50.3723
50.3724
50.3726
50.3728
50.373
50.3733
50.3735
50.3738
50.374
50.3739
50.3738
50.3738
50.3738
50.3739
50.3741
50.374
50.3735
50.373
50.373
50.3731
50.3727
50.3706
50.3678
50.3666
50.3667
50.3675
50.3705
50.3756
50.3792
50.3811
50.3819
50.3821
50.382
50.3817
50.3813
50.3809
50.3805
50.3802
50.38
50.3798
50.3796
50.3794
50.3793
50.3792
50.3791
50.379
50.379
50.3789
50.3789
50.379
50.379
50.3791
50.3792
50.3793
50.3795
50.3796
50.3798
50.38
50.3801
50.3803
50.3805
50.3807
50.3809
50.3811
50.3812
50.3814
50.3815
50.3816
50.3817
50.3818
50.3818
50.3818
50.3818
50.3818
50.3818
50.3817
50.3816
50.3815
50.3813
50.3812
50.381
50.3809
50.3807
50.3805
50.3803
50.3801
50.3798
50.3796
50.3794
50.3792
50.379
50.3789
50.3787
50.3785
50.3784
50.3783
50.3782
50.3781
50.3781
50.3781
50.3781
50.3781
50.3782
50.3783
50.3784
50.3785
50.3787
50.3788
50.379
50.3792
50.3794
50.3796
50.3798
50.38
50.3802
50.3804
50.3806
50.3807
50.3808
50.3809
50.381
50.3811
50.3811
50.3811
50.3811
50.381
50.3809
50.3808
50.3807
50.3806
50.3804
50.3803
50.3801
50.3799
50.3797
50.3795
50.3793
50.379
50.3788
50.3786
50.3784
50.3782
50.378
50.3779
50.3777
50.3776
50.3775
50.3774
50.3774
50.3773
50.3774
50.3774
50.3775
50.3776
50.3777
50.3779
50.378
50.3782
50.3785
50.3787
50.3789
50.3792
50.3794
50.3796
50.3798
50.38
50.3802
50.3803
50.3804
50.3804
50.3804
50.3804
50.3804
50.3803
50.3803
50.3802
50.3801
50.3804
50.3791
50.3376
50.349
50.3574
50.3586
50.3575
50.3566
50.3562
50.3562
50.3562
50.356
50.3559
50.3558
50.3558
50.3557
50.3557
50.3557
50.3557
50.3558
50.3558
50.3557
50.3557
50.3557
50.3557
50.3557
50.3556
50.3555
50.3554
50.3554
50.3555
50.3556
50.3559
50.3571
50.3607
50.3649
50.3684
50.3709
50.3727
50.3739
50.3747
50.3753
50.3758
50.3762
50.3765
50.3769
50.3775
50.3782
50.3792
50.3799
50.3805
50.3808
50.381
50.381
50.3809
50.3807
50.3806
50.3804
50.3803
50.3801
50.38
50.3798
50.3796
50.3795
50.3794
50.3792
50.3791
50.3791
50.379
50.379
50.3789
50.3789
50.379
50.379
50.3791
50.3792
50.3793
50.3795
50.3796
50.3798
50.38
50.3801
50.3803
50.3805
50.3807
50.3809
50.3811
50.3812
50.3814
50.3815
50.3816
50.3817
50.3818
50.3818
50.3818
50.3818
50.3818
50.3818
50.3817
50.3816
50.3815
50.3813
50.3812
50.381
50.3809
50.3807
50.3805
50.3803
50.3801
50.3798
50.3796
50.3794
50.3792
50.379
50.3789
50.3787
50.3785
50.3784
50.3783
50.3782
50.3781
50.3781
50.3781
50.3781
50.3781
50.3782
50.3783
50.3784
50.3785
50.3787
50.3788
50.379
50.3792
50.3794
50.3796
50.3798
50.38
50.3802
50.3804
50.3806
50.3807
50.3808
50.3809
50.381
50.3811
50.3811
50.3811
50.3811
50.381
50.3809
50.3808
50.3807
50.3806
50.3804
50.3803
50.3801
50.3799
50.3797
50.3795
50.3793
50.379
50.3788
50.3786
50.3784
50.3782
50.378
50.3779
50.3777
50.3776
50.3775
50.3774
50.3774
50.3773
50.3774
50.3774
50.3775
50.3776
50.3777
50.3779
50.378
50.3782
50.3785
50.3787
50.3789
50.3792
50.3794
50.3796
50.3798
50.38
50.3802
50.3803
50.3804
50.3804
50.3804
50.3804
50.3804
50.3803
50.3803
50.3802
50.3801
50.38
50.3798
50.4082
50.3903
50.3792
50.3757
50.3749
50.3743
50.3729
50.3719
50.3718
50.3716
50.3713
50.3712
50.3711
50.3711
50.3711
50.3711
50.3711
50.3712
50.3713
50.3714
50.3715
50.3716
50.3717
50.3718
50.3719
50.372
50.3722
50.3723
50.3725
50.3727
50.3731
50.3732
50.3727
50.3723
50.3723
50.3725
50.3727
50.3729
50.3731
50.3734
50.3737
50.3737
50.372
50.364
50.353
50.3475
50.347
50.3497
50.3604
50.3724
50.3792
50.3821
50.383
50.3829
50.3825
50.3818
50.3812
50.3807
50.3804
50.3801
50.3798
50.3796
50.3794
50.3793
50.3792
50.3791
50.379
50.379
50.3789
50.3789
50.379
50.379
50.3791
50.3792
50.3793
50.3795
50.3796
50.3798
50.38
50.3801
50.3803
50.3805
50.3807
50.3809
50.3811
50.3812
50.3814
50.3815
50.3816
50.3817
50.3818
50.3818
50.3818
50.3818
50.3818
50.3818
50.3817
50.3816
50.3815
50.3813
50.3812
50.381
50.3809
50.3807
50.3805
50.3803
50.3801
50.3798
50.3796
50.3794
50.3792
50.379
50.3789
50.3787
50.3785
50.3784
50.3783
50.3782
50.3781
50.3781
50.3781
50.3781
50.3781
50.3782
50.3783
50.3784
50.3785
50.3787
50.3788
50.379
50.3792
50.3794
50.3796
50.3798
50.38
50.3802
50.3804
50.3806
50.3807
50.3808
50.3809
50.381
50.3811
50.3811
50.3811
50.3811
50.381
50.3809
50.3808
50.3807
50.3806
50.3804
50.3803
50.3801
50.3799
50.3797
50.3795
50.3793
50.379
50.3788
50.3786
50.3784
50.3782
50.378
50.3779
50.3777
50.3776
50.3775
50.3774
50.3774
50.3773
50.3774
50.3774
50.3775
50.3776
50.3777
50.3779
50.378
50.3782
50.3785
50.3787
50.3789
50.3792
50.3794
50.3796
50.3798
50.38
50.3802
50.3803
50.3804
50.3804
50.3804
50.3804
50.3804
50.3803
50.3803
50.3801
50.3801
50.3792
50.3825
50.4096
50.3909
50.3797
50.3764
50.3757
50.3754
50.3739
50.3728
50.3728
50.3727
50.3724
50.3723
50.3721
50.3722
50.3722
50.3721
50.3721
50.3722
50.3723
50.3725
50.3726
50.3727
50.3728
50.3729
50.373
50.3732
50.3734
50.3736
50.3739
50.3743
50.3752
50.3754
50.3748
50.3742
50.374
50.3742
50.3744
50.3746
50.3747
50.3749
50.3752
50.3754
50.3745
50.3684
50.3489
50.3332
50.3285
50.3303
50.3434
50.367
50.381
50.3868
50.3879
50.3873
50.3852
50.3832
50.3819
50.3811
50.3805
50.3801
50.3798
50.3796
50.3794
50.3792
50.3791
50.379
50.379
50.3789
50.3789
50.3789
50.3789
50.379
50.3791
50.3792
50.3793
50.3794
50.3796
50.3797
50.3799
50.3801
50.3803
50.3805
50.3806
50.3808
50.381
50.3812
50.3813
50.3814
50.3815
50.3816
50.3817
50.3817
50.3818
50.3818
50.3817
50.3817