/*--------------------------------*- C++ -*----------------------------------*\
| =========                 |                                                 |
| \\      /  F ield         | OpenFOAM: The Open Source CFD Toolbox           |
|  \\    /   O peration     | Version:  3.0.x                                 |
|   \\  /    A nd           | Web:      www.OpenFOAM.org                      |
|    \\/     M anipulation  |                                                 |
\*---------------------------------------------------------------------------*/
FoamFile
{
    version     2.0;
    format      ascii;
    class       volScalarField;
    location    "0.21";
    object      T;
}
// * * * * * * * * * * * * * * * * * * * * * * * * * * * * * * * * * * * * * //

dimensions      [0 0 0 1 0 0 0];

internalField   nonuniform List<scalar> 
6900
(
774.099
774.099
774.099
774.098
774.095
774.092
774.089
774.086
774.082
774.079
774.075
774.071
774.068
774.066
774.064
774.063
774.062
774.062
774.062
774.06
774.057
774.053
774.05
774.047
774.044
774.042
774.041
774.04
774.039
774.039
774.038
774.038
774.037
774.037
774.036
774.036
774.035
774.034
774.034
774.033
774.033
774.032
774.031
774.031
774.03
774.029
774.029
774.028
774.027
774.027
774.026
774.026
774.025
774.025
774.025
774.025
774.025
774.025
774.025
774.025
774.025
774.026
774.027
774.027
774.028
774.029
774.03
774.031
774.032
774.033
774.034
774.035
774.036
774.037
774.038
774.039
774.04
774.04
774.041
774.042
774.042
774.043
774.043
774.043
774.043
774.043
774.043
774.043
774.042
774.042
774.041
774.041
774.04
774.04
774.039
774.038
774.037
774.037
774.036
774.035
774.034
774.034
774.033
774.033
774.032
774.032
774.031
774.031
774.03
774.03
774.03
774.029
774.029
774.029
774.028
774.028
774.028
774.027
774.027
774.026
774.025
774.025
774.024
774.023
774.022
774.021
774.02
774.019
774.018
774.017
774.016
774.015
774.013
774.012
774.011
774.01
774.008
774.007
774.006
774.005
774.004
774.002
774.001
774
773.999
773.998
773.997
773.996
773.995
773.993
773.992
773.991
773.989
773.988
773.987
773.985
773.984
773.982
773.98
773.979
773.977
773.975
773.973
773.972
773.97
773.968
773.966
773.964
773.962
773.96
773.958
773.956
773.954
773.952
773.951
773.949
773.947
773.946
773.944
773.942
773.941
773.939
773.938
773.937
773.935
773.933
773.932
773.93
773.928
773.926
773.924
773.922
773.92
773.918
773.915
773.913
773.91
773.91
773.908
773.971
774.098
774.098
774.097
774.096
774.094
774.09
774.087
774.084
774.081
774.077
774.073
774.07
774.067
774.064
774.063
774.062
774.061
774.061
774.06
774.059
774.056
774.052
774.049
774.046
774.043
774.041
774.04
774.039
774.038
774.038
774.037
774.037
774.036
774.036
774.035
774.035
774.034
774.033
774.033
774.032
774.032
774.031
774.03
774.03
774.029
774.028
774.028
774.027
774.026
774.026
774.025
774.025
774.024
774.024
774.024
774.024
774.024
774.024
774.024
774.024
774.025
774.025
774.026
774.026
774.027
774.028
774.029
774.03
774.031
774.032
774.033
774.034
774.035
774.036
774.037
774.038
774.039
774.039
774.04
774.041
774.041
774.042
774.042
774.042
774.042
774.042
774.042
774.042
774.041
774.041
774.04
774.04
774.039
774.039
774.038
774.037
774.036
774.036
774.035
774.034
774.033
774.033
774.032
774.032
774.031
774.031
774.03
774.03
774.029
774.029
774.029
774.028
774.028
774.028
774.027
774.027
774.027
774.026
774.026
774.025
774.024
774.024
774.023
774.022
774.021
774.02
774.019
774.018
774.017
774.016
774.015
774.014
774.012
774.011
774.01
774.009
774.007
774.006
774.005
774.004
774.003
774.001
774
773.999
773.998
773.997
773.996
773.995
773.994
773.992
773.991
773.99
773.989
773.987
773.986
773.984
773.983
773.981
773.979
773.978
773.976
773.974
773.972
773.971
773.969
773.967
773.965
773.963
773.961
773.959
773.957
773.955
773.953
773.952
773.95
773.948
773.946
773.945
773.943
773.942
773.94
773.939
773.937
773.936
773.934
773.932
773.931
773.929
773.927
773.925
773.923
773.921
773.919
773.917
773.914
773.912
773.909
773.909
773.907
773.965
774.098
774.098
774.097
774.096
774.094
774.091
774.087
774.084
774.081
774.077
774.073
774.07
774.067
774.065
774.063
774.062
774.061
774.061
774.06
774.059
774.056
774.052
774.049
774.046
774.043
774.041
774.04
774.039
774.038
774.038
774.037
774.037
774.036
774.036
774.035
774.035
774.034
774.033
774.033
774.032
774.032
774.031
774.03
774.03
774.029
774.028
774.028
774.027
774.026
774.026
774.025
774.025
774.024
774.024
774.024
774.024
774.024
774.024
774.024
774.024
774.025
774.025
774.026
774.026
774.027
774.028
774.029
774.03
774.031
774.032
774.033
774.034
774.035
774.036
774.037
774.038
774.039
774.039
774.04
774.041
774.041
774.042
774.042
774.042
774.042
774.042
774.042
774.042
774.041
774.041
774.04
774.04
774.039
774.039
774.038
774.037
774.036
774.036
774.035
774.034
774.033
774.033
774.032
774.032
774.031
774.031
774.03
774.03
774.029
774.029
774.029
774.028
774.028
774.028
774.027
774.027
774.027
774.026
774.026
774.025
774.024
774.024
774.023
774.022
774.021
774.02
774.019
774.018
774.017
774.016
774.015
774.014
774.012
774.011
774.01
774.009
774.007
774.006
774.005
774.004
774.003
774.001
774
773.999
773.998
773.997
773.996
773.995
773.994
773.992
773.991
773.99
773.989
773.987
773.986
773.984
773.983
773.981
773.979
773.978
773.976
773.974
773.972
773.971
773.969
773.967
773.965
773.963
773.961
773.959
773.957
773.955
773.953
773.952
773.95
773.948
773.946
773.945
773.943
773.942
773.94
773.938
773.937
773.936
773.934
773.932
773.931
773.929
773.927
773.925
773.923
773.921
773.919
773.917
773.914
773.912
773.91
773.908
773.905
773.907
774.098
774.098
774.097
774.096
774.094
774.09
774.087
774.084
774.081
774.077
774.073
774.07
774.067
774.064
774.063
774.062
774.061
774.061
774.06
774.059
774.056
774.052
774.049
774.046
774.043
774.041
774.04
774.039
774.038
774.038
774.037
774.037
774.036
774.036
774.035
774.035
774.034
774.033
774.033
774.032
774.032
774.031
774.03
774.03
774.029
774.028
774.028
774.027
774.026
774.026
774.025
774.025
774.024
774.024
774.024
774.024
774.024
774.024
774.024
774.024
774.025
774.025
774.026
774.026
774.027
774.028
774.029
774.03
774.031
774.032
774.033
774.034
774.035
774.036
774.037
774.038
774.039
774.039
774.04
774.041
774.041
774.042
774.042
774.042
774.042
774.042
774.042
774.042
774.041
774.041
774.04
774.04
774.039
774.039
774.038
774.037
774.036
774.036
774.035
774.034
774.033
774.033
774.032
774.032
774.031
774.031
774.03
774.03
774.029
774.029
774.029
774.028
774.028
774.028
774.027
774.027
774.027
774.026
774.026
774.025
774.024
774.024
774.023
774.022
774.021
774.02
774.019
774.018
774.017
774.016
774.015
774.014
774.012
774.011
774.01
774.009
774.007
774.006
774.005
774.004
774.003
774.001
774
773.999
773.998
773.997
773.996
773.995
773.994
773.992
773.991
773.99
773.989
773.987
773.986
773.984
773.983
773.981
773.979
773.978
773.976
773.974
773.972
773.971
773.969
773.967
773.965
773.963
773.961
773.959
773.957
773.955
773.953
773.951
773.95
773.948
773.946
773.945
773.943
773.941
773.94
773.938
773.937
773.935
773.934
773.932
773.931
773.929
773.927
773.925
773.923
773.921
773.919
773.916
773.914
773.912
773.91
773.905
773.908
773.79
774.099
774.099
774.099
774.098
774.095
774.092
774.089
774.086
774.082
774.079
774.075
774.071
774.068
774.066
774.064
774.063
774.062
774.062
774.062
774.06
774.057
774.053
774.05
774.047
774.044
774.042
774.041
774.04
774.039
774.039
774.038
774.038
774.037
774.037
774.036
774.036
774.035
774.034
774.034
774.033
774.033
774.032
774.031
774.031
774.03
774.029
774.029
774.028
774.027
774.027
774.026
774.026
774.025
774.025
774.025
774.025
774.025
774.025
774.025
774.025
774.025
774.026
774.027
774.027
774.028
774.029
774.03
774.031
774.032
774.033
774.034
774.035
774.036
774.037
774.038
774.039
774.04
774.04
774.041
774.042
774.042
774.043
774.043
774.043
774.043
774.043
774.043
774.043
774.042
774.042
774.041
774.041
774.04
774.04
774.039
774.038
774.037
774.037
774.036
774.035
774.034
774.034
774.033
774.033
774.032
774.032
774.031
774.031
774.03
774.03
774.03
774.029
774.029
774.029
774.028
774.028
774.028
774.027
774.027
774.026
774.025
774.025
774.024
774.023
774.022
774.021
774.02
774.019
774.018
774.017
774.016
774.015
774.013
774.012
774.011
774.01
774.008
774.007
774.006
774.005
774.004
774.002
774.001
774
773.999
773.998
773.997
773.996
773.995
773.993
773.992
773.991
773.989
773.988
773.987
773.985
773.984
773.982
773.98
773.979
773.977
773.975
773.973
773.972
773.97
773.968
773.966
773.964
773.962
773.96
773.958
773.956
773.954
773.952
773.951
773.949
773.947
773.946
773.944
773.942
773.941
773.939
773.938
773.936
773.935
773.933
773.932
773.93
773.928
773.926
773.924
773.922
773.92
773.917
773.915
773.913
773.911
773.905
773.916
773.71
773.955
773.967
773.966
773.964
773.963
773.96
773.955
773.949
773.938
773.928
773.929
773.938
773.948
773.922
773.886
773.862
773.847
773.798
773.751
773.734
773.943
773.945
773.944
773.94
773.936
773.931
773.924
773.915
773.903
773.888
773.885
773.895
773.908
773.882
773.829
773.814
773.806
773.775
773.705
773.686
773.906
773.904
773.902
773.897
773.891
773.885
773.878
773.871
773.862
773.854
773.844
773.837
773.83
773.826
773.829
773.83
773.82
773.804
773.789
773.78
773.84
773.84
773.845
773.844
773.837
773.823
773.809
773.787
773.774
773.749
773.738
773.721
773.699
773.684
773.673
773.66
773.648
773.638
773.629
773.623
773.79
773.771
773.767
773.768
773.767
773.762
773.75
773.736
773.722
773.708
773.691
773.68
773.664
773.654
773.64
773.634
773.625
773.627
773.633
773.662
773.612
773.61
773.616
773.605
773.573
773.566
773.573
773.582
773.578
773.569
773.567
773.568
773.568
773.566
773.564
773.563
773.562
773.561
773.561
773.56
773.559
773.558
773.556
773.557
773.558
773.559
773.56
773.56
773.56
773.559
773.556
773.556
773.56
773.563
773.567
773.568
773.569
773.57
773.574
773.577
773.579
773.583
773.594
773.644
773.861
774.199
774.365
774.384
774.292
773.949
773.639
773.489
773.442
773.44
773.46
773.495
773.517
773.529
773.536
773.54
773.542
773.543
773.544
773.544
773.544
773.543
773.543
773.542
773.542
773.541
773.541
773.54
773.54
773.54
773.539
773.539
773.539
773.539
773.539
773.539
773.539
773.539
773.539
773.539
773.54
773.54
773.54
773.541
773.541
773.542
773.542
773.543
773.543
773.543
773.544
773.544
773.544
773.544
773.544
773.544
773.544
773.544
773.544
773.544
773.543
773.543
773.542
773.541
773.541
773.54
773.539
773.538
773.537
773.536
773.535
773.534
773.533
773.532
773.53
773.529
773.528
773.527
773.526
773.525
773.524
773.523
773.522
773.521
773.52
773.52
773.519
773.518
773.518
773.517
773.517
773.516
773.516
773.516
773.515
773.515
773.515
773.514
773.514
773.513
773.513
773.512
773.512
773.511
773.51
773.509
773.508
773.507
773.506
773.504
773.503
773.501
773.5
773.498
773.496
773.494
773.493
773.491
773.489
773.487
773.485
773.482
773.48
773.478
773.476
773.474
773.472
773.47
773.469
773.467
773.465
773.464
773.462
773.461
773.46
773.459
773.458
773.457
773.456
773.456
773.455
773.455
773.454
773.454
773.454
773.453
773.453
773.453
773.452
773.452
773.451
773.45
773.449
773.445
773.449
773.28
773.6
773.604
773.622
773.616
773.587
773.582
773.593
773.599
773.594
773.587
773.586
773.586
773.585
773.583
773.581
773.58
773.579
773.578
773.578
773.577
773.576
773.576
773.577
773.579
773.58
773.581
773.582
773.582
773.582
773.582
773.584
773.589
773.594
773.595
773.594
773.595
773.595
773.596
773.598
773.6
773.602
773.607
773.622
773.691
773.879
774.027
774.079
774.072
773.982
773.774
773.628
773.554
773.525
773.518
773.52
773.526
773.533
773.537
773.54
773.542
773.543
773.543
773.543
773.543
773.543
773.543
773.542
773.542
773.541
773.54
773.54
773.539
773.539
773.539
773.538
773.538
773.538
773.538
773.538
773.538
773.538
773.538
773.538
773.538
773.539
773.539
773.539
773.54
773.54
773.541
773.541
773.542
773.542
773.542
773.543
773.543
773.543
773.543
773.543
773.543
773.543
773.543
773.543
773.543
773.542
773.542
773.541
773.54
773.54
773.539
773.538
773.537
773.536
773.535
773.534
773.533
773.532
773.531
773.53
773.528
773.527
773.526
773.525
773.524
773.523
773.522
773.521
773.52
773.519
773.519
773.518
773.517
773.517
773.516
773.516
773.516
773.515
773.515
773.515
773.514
773.514
773.513
773.513
773.513
773.512
773.511
773.511
773.51
773.509
773.508
773.507
773.506
773.505
773.503
773.502
773.5
773.499
773.497
773.495
773.493
773.492
773.49
773.488
773.486
773.484
773.482
773.48
773.477
773.475
773.473
773.471
773.47
773.468
773.466
773.464
773.463
773.461
773.46
773.459
773.458
773.457
773.456
773.455
773.455
773.454
773.454
773.453
773.453
773.453
773.453
773.452
773.452
773.451
773.451
773.45
773.449
773.448
773.445
773.444
773.348
773.79
773.828
773.833
773.83
773.832
773.835
773.836
773.835
773.833
773.831
773.829
773.827
773.826
773.824
773.823
773.823
773.823
773.824
773.827
773.828
773.83
773.831
773.832
773.834
773.836
773.839
773.842
773.845
773.846
773.847
773.845
773.832
773.785
773.718
773.664
773.625
773.599
773.584
773.577
773.575
773.576
773.578
773.582
773.585
773.585
773.584
773.576
773.567
773.56
773.555
773.553
773.552
773.552
773.552
773.551
773.551
773.55
773.549
773.548
773.547
773.547
773.546
773.545
773.544
773.544
773.543
773.542
773.542
773.541
773.541
773.54
773.539
773.539
773.539
773.538
773.538
773.538
773.538
773.538
773.538
773.538
773.538
773.538
773.538
773.539
773.539
773.539
773.54
773.54
773.541
773.541
773.542
773.542
773.542
773.543
773.543
773.543
773.543
773.543
773.543
773.543
773.543
773.543
773.543
773.542
773.542
773.541
773.54
773.54
773.539
773.538
773.537
773.536
773.535
773.534
773.533
773.532
773.531
773.53
773.528
773.527
773.526
773.525
773.524
773.523
773.522
773.521
773.52
773.519
773.519
773.518
773.517
773.517
773.516
773.516
773.516
773.515
773.515
773.515
773.514
773.514
773.513
773.513
773.513
773.512
773.511
773.511
773.51
773.509
773.508
773.507
773.506
773.505
773.503
773.502
773.5
773.499
773.497
773.495
773.493
773.492
773.49
773.488
773.486
773.484
773.482
773.48
773.477
773.475
773.473
773.471
773.47
773.468
773.466
773.464
773.463
773.461
773.46
773.459
773.458
773.457
773.456
773.455
773.455
773.454
773.454
773.453
773.453
773.453
773.453
773.452
773.452
773.451
773.451
773.45
773.449
773.448
773.448
773.446
773.447
773.599
773.598
773.595
773.587
773.583
773.583
773.584
773.583
773.58
773.578
773.577
773.577
773.576
773.574
773.573
773.572
773.571
773.57
773.569
773.567
773.566
773.565
773.564
773.564
773.563
773.563
773.562
773.562
773.562
773.562
773.564
773.568
773.571
773.575
773.579
773.582
773.586
773.596
773.611
773.622
773.628
773.637
773.661
773.714
773.755
773.77
773.769
773.75
773.681
773.61
773.566
773.544
773.535
773.533
773.533
773.535
773.539
773.541
773.543
773.544
773.544
773.544
773.544
773.544
773.543
773.543
773.542
773.542
773.541
773.54
773.54
773.539
773.539
773.539
773.538
773.538
773.538
773.538
773.538
773.538
773.538
773.538
773.538
773.538
773.539
773.539
773.539
773.54
773.54
773.541
773.541
773.542
773.542
773.542
773.543
773.543
773.543
773.543
773.543
773.543
773.543
773.543
773.543
773.543
773.542
773.542
773.541
773.54
773.54
773.539
773.538
773.537
773.536
773.535
773.534
773.533
773.532
773.531
773.53
773.528
773.527
773.526
773.525
773.524
773.523
773.522
773.521
773.52
773.519
773.519
773.518
773.517
773.517
773.516
773.516
773.516
773.515
773.515
773.515
773.514
773.514
773.513
773.513
773.513
773.512
773.511
773.511
773.51
773.509
773.508
773.507
773.506
773.505
773.503
773.502
773.5
773.499
773.497
773.495
773.493
773.492
773.49
773.488
773.486
773.484
773.482
773.48
773.477
773.475
773.473
773.471
773.47
773.468
773.466
773.464
773.463
773.461
773.46
773.459
773.458
773.457
773.456
773.455
773.455
773.454
773.454
773.453
773.453
773.453
773.453
773.452
773.452
773.451
773.451
773.45
773.45
773.448
773.448
773.45
773.497
773.714
773.714
773.712
773.704
773.699
773.699
773.699
773.698
773.696
773.694
773.694
773.693
773.692
773.691
773.69
773.688
773.687
773.685
773.683
773.681
773.68
773.679
773.678
773.678
773.677
773.677
773.677
773.677
773.677
773.68
773.684
773.687
773.688
773.69
773.694
773.703
773.712
773.715
773.715
773.715
773.717
773.744
773.877
774.106
774.239
774.278
774.269
774.184
773.991
773.835
773.726
773.655
773.611
773.584
773.569
773.56
773.554
773.551
773.549
773.548
773.547
773.547
773.546
773.545
773.545
773.544
773.543
773.543
773.542
773.541
773.541
773.54
773.54
773.54
773.539
773.539
773.539
773.539
773.539
773.539
773.539
773.539
773.539
773.539
773.54
773.54
773.54
773.541
773.541
773.542
773.542
773.543
773.543
773.543
773.544
773.544
773.544
773.544
773.544
773.544
773.544
773.544
773.544
773.544
773.543
773.543
773.542
773.541
773.541
773.54
773.539
773.538
773.537
773.536
773.535
773.534
773.533
773.532
773.53
773.529
773.528
773.527
773.526
773.525
773.524
773.523
773.522
773.521
773.52
773.52
773.519
773.518
773.518
773.517
773.517
773.516
773.516
773.516
773.515
773.515
773.515
773.514
773.514
773.513
773.513
773.512
773.512
773.511
773.51
773.509
773.508
773.507
773.506
773.504
773.503
773.501
773.5
773.498
773.496
773.494
773.493
773.491
773.489
773.487
773.485
773.482
773.48
773.478
773.476
773.474
773.472
773.47
773.469
773.467
773.465
773.464
773.462
773.461
773.46
773.459
773.458
773.457
773.456
773.456
773.455
773.455
773.454
773.454
773.454
773.453
773.453
773.453
773.452
773.452
773.451
773.45
773.449
773.449
773.451
773.502
773.339
773.32
773.314
773.315
773.313
773.307
773.294
773.285
773.266
773.257
773.239
773.229
773.212
773.204
773.191
773.186
773.178
773.18
773.186
773.213
773.385
773.385
773.389
773.387
773.38
773.366
773.348
773.335
773.313
773.301
773.279
773.26
773.253
773.233
773.219
773.204
773.195
773.184
773.175
773.167
773.447
773.446
773.443
773.438
773.433
773.426
773.42
773.413
773.404
773.395
773.387
773.382
773.38
773.378
773.368
773.356
773.347
773.342
773.331
773.327
773.484
773.486
773.485
773.48
773.475
773.471
773.463
773.453
773.448
773.45
773.46
773.443
773.405
773.399
773.391
773.357
773.3
773.296
773.313
773.311
773.495
773.507
773.505
773.505
773.503
773.499
773.494
773.486
773.484
773.489
773.496
773.481
773.454
773.439
773.425
773.382
773.351
773.353
773.372
773.348
773.257
773.255
773.249
773.24
773.238
773.238
773.235
773.231
773.229
773.228
773.226
773.224
773.222
773.22
773.219
773.217
773.215
773.213
773.211
773.209
773.208
773.207
773.206
773.205
773.203
773.202
773.201
773.201
773.202
773.204
773.206
773.206
773.207
773.207
773.208
773.212
773.221
773.227
773.228
773.227
773.225
773.227
773.26
773.413
773.634
773.754
773.784
773.77
773.671
773.478
773.329
773.226
773.158
773.115
773.089
773.074
773.065
773.059
773.056
773.054
773.052
773.051
773.05
773.049
773.048
773.047
773.047
773.046
773.045
773.045
773.044
773.044
773.044
773.044
773.044
773.044
773.044
773.044
773.044
773.045
773.045
773.046
773.047
773.047
773.048
773.049
773.049
773.05
773.051
773.052
773.052
773.053
773.053
773.054
773.054
773.054
773.054
773.05
773.055
772.893
773.147
773.143
773.132
773.126
773.125
773.125
773.123
773.119
773.116
773.115
773.114
773.112
773.109
773.107
773.106
773.104
773.103
773.101
773.099
773.098
773.096
773.095
773.094
773.093
773.092
773.091
773.09
773.088
773.088
773.088
773.089
773.092
773.093
773.093
773.095
773.098
773.1
773.105
773.116
773.129
773.137
773.141
773.149
773.173
773.226
773.263
773.274
773.272
773.249
773.179
773.113
773.072
773.05
773.042
773.039
773.039
773.041
773.044
773.046
773.047
773.048
773.048
773.048
773.047
773.047
773.046
773.046
773.045
773.044
773.044
773.043
773.043
773.043
773.043
773.043
773.043
773.043
773.043
773.043
773.044
773.044
773.045
773.046
773.046
773.047
773.048
773.049
773.049
773.05
773.051
773.051
773.052
773.052
773.053
773.053
773.053
773.053
773.05
773.049
772.958
773.346
773.351
773.359
773.36
773.367
773.367
773.366
773.363
773.361
773.36
773.358
773.356
773.354
773.353
773.351
773.351
773.35
773.35
773.35
773.352
773.353
773.353
773.353
773.353
773.353
773.354
773.358
773.362
773.364
773.365
773.365
773.362
773.343
773.291
773.23
773.181
773.144
773.12
773.106
773.099
773.096
773.096
773.097
773.098
773.099
773.098
773.094
773.084
773.076
773.068
773.063
773.061
773.059
773.058
773.058
773.057
773.056
773.055
773.054
773.053
773.051
773.05
773.049
773.048
773.047
773.047
773.046
773.045
773.045
773.044
773.044
773.043
773.043
773.043
773.043
773.043
773.043
773.043
773.043
773.044
773.044
773.045
773.046
773.046
773.047
773.048
773.049
773.049
773.05
773.051
773.051
773.052
773.052
773.053
773.053
773.053
773.053
773.053
773.053
773.055
773.171
773.162
773.154
773.134
773.118
773.131
773.142
773.135
773.124
773.121
773.122
773.122
773.12
773.116
773.115
773.114
773.113
773.112
773.11
773.108
773.107
773.107
773.107
773.108
773.108
773.109
773.108
773.106
773.106
773.106
773.109
773.114
773.115
773.113
773.11
773.108
773.108
773.108
773.111
773.116
773.119
773.121
773.126
773.143
773.221
773.406
773.538
773.581
773.571
773.475
773.27
773.129
773.058
773.03
773.023
773.024
773.031
773.038
773.042
773.044
773.046
773.046
773.047
773.047
773.046
773.046
773.045
773.045
773.044
773.044
773.043
773.043
773.043
773.043
773.043
773.043
773.043
773.043
773.043
773.044
773.044
773.045
773.046
773.046
773.047
773.048
773.049
773.049
773.05
773.051
773.051
773.052
773.052
773.053
773.053
773.053
773.053
773.054
773.056
773.103
773.194
773.16
773.146
773.122
773.106
773.113
773.126
773.121
773.107
773.104
773.105
773.105
773.103
773.099
773.097
773.096
773.096
773.094
773.093
773.091
773.089
773.087
773.087
773.087
773.087
773.088
773.088
773.087
773.084
773.081
773.08
773.082
773.084
773.085
773.085
773.085
773.084
773.085
773.086
773.089
773.093
773.095
773.099
773.109
773.159
773.372
773.69
773.845
773.863
773.777
773.452
773.15
773.002
772.953
772.95
772.967
773.001
773.022
773.034
773.04
773.044
773.046
773.047
773.047
773.047
773.047
773.046
773.046
773.045
773.045
773.044
773.044
773.044
773.044
773.044
773.044
773.044
773.044
773.044
773.045
773.045
773.046
773.047
773.047
773.048
773.049
773.049
773.05
773.051
773.052
773.052
773.053
773.053
773.054
773.054
773.054
773.054
773.055
773.057
773.108
772.949
772.93
772.924
772.925
772.923
772.918
772.904
772.895
772.878
772.869
772.851
772.84
772.825
772.816
772.804
772.799
772.792
772.793
772.799
772.825
772.994
772.994
772.999
772.997
772.99
772.977
772.958
772.945
772.924
772.912
772.891
772.871
772.864
772.847
772.832
772.818
772.809
772.798
772.789
772.781
773.055
773.054
773.051
773.047
773.043
773.036
773.03
773.023
773.015
773.006
772.999
772.994
772.992
772.991
772.983
772.971
772.962
772.957
772.948
772.944
773.092
773.095
773.094
773.089
773.085
773.081
773.073
773.064
773.058
773.06
773.07
773.058
773.018
773.01
773.005
772.977
772.918
772.909
772.926
772.924
773.103
773.116
773.114
773.114
773.112
773.109
773.104
773.097
773.095
773.098
773.107
773.094
773.067
773.05
773.04
773.002
772.966
772.966
772.984
772.961
772.872
772.872
772.869
772.862
772.862
772.863
772.862
772.86
772.859
772.86
772.859
772.859
772.859
772.859
772.859
772.859
772.858
772.859
772.859
772.859
772.86
772.86
772.86
772.86
772.86
772.861
772.861
772.862
772.863
772.867
772.87
772.872
772.873
772.876
772.882
772.893
772.9
772.901
772.901
772.901
772.909
772.968
773.17
773.36
773.443
773.454
773.42
773.272
773.089
772.958
772.87
772.814
772.779
772.759
772.747
772.74
772.736
772.734
772.733
772.731
772.731
772.73
772.73
772.729
772.729
772.729
772.728
772.728
772.728
772.728
772.728
772.729
772.729
772.729
772.729
772.73
772.73
772.731
772.731
772.732
772.732
772.733
772.734
772.734
772.735
772.735
772.736
772.736
772.736
772.737
772.737
772.737
772.737
772.737
772.737
772.737
772.737
772.736
772.736
772.736
772.735
772.735
772.734
772.734
772.733
772.732
772.732
772.731
772.73
772.73
772.729
772.728
772.728
772.727
772.727
772.727
772.726
772.726
772.726
772.726
772.726
772.726
772.726
772.726
772.726
772.727
772.727
772.727
772.728
772.728
772.729
772.73
772.73
772.731
772.732
772.732
772.733
772.733
772.734
772.734
772.734
772.735
772.735
772.735
772.735
772.735
772.735
772.734
772.734
772.734
772.733
772.733
772.732
772.732
772.731
772.73
772.73
772.729
772.729
772.728
772.727
772.727
772.726
772.725
772.725
772.724
772.724
772.724
772.724
772.723
772.723
772.723
772.723
772.724
772.724
772.724
772.725
772.725
772.726
772.727
772.727
772.728
772.729
772.73
772.73
772.731
772.731
772.732
772.732
772.733
772.733
772.733
772.733
772.733
772.733
772.732
772.732
772.733
772.734
772.786
772.761
772.759
772.753
772.748
772.748
772.75
772.749
772.746
772.745
772.746
772.746
772.746
772.745
772.745
772.745
772.745
772.745
772.745
772.746
772.746
772.746
772.747
772.748
772.748
772.749
772.749
772.749
772.749
772.75
772.751
772.755
772.758
772.761
772.764
772.767
772.77
772.776
772.79
772.804
772.811
772.817
772.83
772.869
772.918
772.942
772.946
772.938
772.895
772.819
772.765
772.735
772.722
772.717
772.717
772.718
772.721
772.724
772.726
772.727
772.728
772.728
772.728
772.728
772.728
772.728
772.727
772.727
772.727
772.727
772.727
772.727
772.728
772.728
772.728
772.728
772.729
772.729
772.73
772.73
772.731
772.732
772.732
772.733
772.733
772.734
772.734
772.735
772.735
772.736
772.736
772.736
772.736
772.736
772.736
772.736
772.736
772.736
772.735
772.735
772.735
772.734
772.734
772.733
772.733
772.732
772.731
772.731
772.73
772.729
772.729
772.728
772.728
772.727
772.727
772.726
772.726
772.725
772.725
772.725
772.725
772.725
772.725
772.725
772.725
772.725
772.726
772.726
772.727
772.727
772.728
772.728
772.729
772.729
772.73
772.731
772.731
772.732
772.732
772.733
772.733
772.733
772.734
772.734
772.734
772.734
772.734
772.734
772.733
772.733
772.733
772.732
772.732
772.731
772.731
772.73
772.729
772.729
772.728
772.728
772.727
772.726
772.726
772.725
772.725
772.724
772.724
772.723
772.723
772.723
772.722
772.722
772.722
772.723
772.723
772.723
772.723
772.724
772.725
772.725
772.726
772.727
772.727
772.728
772.729
772.729
772.73
772.731
772.731
772.731
772.732
772.732
772.732
772.732
772.732
772.732
772.731
772.731
772.732
772.733
772.781
772.964
772.971
772.979
772.983
772.99
772.992
772.991
772.99
772.99
772.99
772.99
772.989
772.989
772.989
772.989
772.99
772.99
772.991
772.993
772.996
772.998
773.001
773.003
773.007
773.012
773.017
773.022
773.026
773.029
773.03
773.028
773.011
772.958
772.896
772.848
772.813
772.79
772.778
772.772
772.77
772.77
772.771
772.772
772.773
772.772
772.765
772.756
772.748
772.742
772.739
772.737
772.736
772.736
772.736
772.735
772.734
772.733
772.732
772.731
772.731
772.73
772.729
772.729
772.728
772.728
772.728
772.727
772.727
772.727
772.727
772.727
772.728
772.728
772.728
772.729
772.729
772.729
772.73
772.73
772.731
772.732
772.732
772.733
772.733
772.734
772.734
772.735
772.735
772.736
772.736
772.736
772.736
772.736
772.736
772.736
772.736
772.736
772.735
772.735
772.735
772.734
772.734
772.733
772.733
772.732
772.731
772.731
772.73
772.729
772.729
772.728
772.728
772.727
772.727
772.726
772.726
772.725
772.725
772.725
772.725
772.725
772.725
772.725
772.725
772.725
772.726
772.726
772.727
772.727
772.728
772.728
772.729
772.729
772.73
772.731
772.731
772.732
772.732
772.733
772.733
772.733
772.734
772.734
772.734
772.734
772.734
772.734
772.733
772.733
772.733
772.732
772.732
772.731
772.731
772.73
772.729
772.729
772.728
772.728
772.727
772.726
772.726
772.725
772.725
772.724
772.724
772.723
772.723
772.723
772.722
772.722
772.722
772.723
772.723
772.723
772.723
772.724
772.725
772.725
772.726
772.727
772.727
772.728
772.729
772.729
772.73
772.731
772.731
772.731
772.732
772.732
772.732
772.732
772.732
772.732
772.731
772.731
772.731
772.73
772.733
772.788
772.782
772.775
772.754
772.743
772.756
772.766
772.761
772.753
772.752
772.755
772.755
772.755
772.754
772.754
772.754
772.755
772.755
772.755
772.755
772.755
772.756
772.758
772.76
772.762
772.764
772.765
772.766
772.767
772.771
772.777
772.783
772.785
772.784
772.783
772.783
772.784
772.786
772.789
772.791
772.794
772.802
772.835
772.965
773.143
773.232
773.247
773.211
773.049
772.867
772.764
772.718
772.703
772.702
772.706
772.714
772.719
772.723
772.725
772.726
772.727
772.727
772.728
772.728
772.727
772.727
772.727
772.727
772.727
772.727
772.727
772.728
772.728
772.728
772.728
772.729
772.729
772.73
772.73
772.731
772.732
772.732
772.733
772.733
772.734
772.734
772.735
772.735
772.736
772.736
772.736
772.736
772.736
772.736
772.736
772.736
772.736
772.735
772.735
772.735
772.734
772.734
772.733
772.733
772.732
772.731
772.731
772.73
772.729
772.729
772.728
772.728
772.727
772.727
772.726
772.726
772.725
772.725
772.725
772.725
772.725
772.725
772.725
772.725
772.725
772.726
772.726
772.727
772.727
772.728
772.728
772.729
772.729
772.73
772.731
772.731
772.732
772.732
772.733
772.733
772.733
772.734
772.734
772.734
772.734
772.734
772.734
772.733
772.733
772.733
772.732
772.732
772.731
772.731
772.73
772.729
772.729
772.728
772.728
772.727
772.726
772.726
772.725
772.725
772.724
772.724
772.723
772.723
772.723
772.722
772.722
772.722
772.723
772.723
772.723
772.723
772.724
772.725
772.725
772.726
772.727
772.727
772.728
772.729
772.729
772.73
772.731
772.731
772.731
772.732
772.732
772.732
772.732
772.732
772.732
772.731
772.731
772.728
772.727
772.633
772.808
772.779
772.766
772.743
772.73
772.738
772.751
772.746
772.737
772.735
772.738
772.739
772.738
772.737
772.737
772.738
772.738
772.738
772.738
772.738
772.739
772.739
772.741
772.742
772.744
772.745
772.746
772.747
772.747
772.745
772.745
772.748
772.753
772.755
772.757
772.758
772.758
772.761
772.765
772.768
772.771
772.776
772.797
772.899
773.204
773.454
773.531
773.509
773.311
772.951
772.736
772.647
772.627
772.634
772.665
772.692
772.708
772.717
772.722
772.725
772.727
772.728
772.728
772.728
772.728
772.728
772.728
772.728
772.728
772.728
772.728
772.729
772.729
772.729
772.729
772.73
772.73
772.731
772.731
772.732
772.732
772.733
772.734
772.734
772.735
772.735
772.736
772.736