/*--------------------------------*- C++ -*----------------------------------*\
| =========                 |                                                 |
| \\      /  F ield         | OpenFOAM: The Open Source CFD Toolbox           |
|  \\    /   O peration     | Version:  3.0.x                                 |
|   \\  /    A nd           | Web:      www.OpenFOAM.org                      |
|    \\/     M anipulation  |                                                 |
\*---------------------------------------------------------------------------*/
FoamFile
{
    version     2.0;
    format      ascii;
    class       surfaceScalarField;
    location    "0.02";
    object      phi;
}
// * * * * * * * * * * * * * * * * * * * * * * * * * * * * * * * * * * * * * //

dimensions      [1 0 -1 0 0 0 0];

internalField   nonuniform List<scalar> 
26210
(
3.90504
0.000468273
3.90478
0.000264298
3.90459
0.000190282
3.90446
0.000124152
3.90439
7.09425e-05
3.90435
3.60984e-05
3.90434
1.66141e-05
3.90433
7.04594e-06
3.90433
2.84823e-06
3.90432
1.18399e-06
3.90432
5.80549e-07
3.90432
3.78637e-07
3.90432
3.15827e-07
3.90432
2.97554e-07
3.90432
2.92552e-07
3.90432
2.9126e-07
3.90432
2.90944e-07
3.90431
2.90878e-07
3.90431
2.90867e-07
3.90431
2.90871e-07
3.90431
2.90875e-07
3.90431
2.90875e-07
3.90431
2.90878e-07
3.90431
2.90886e-07
3.90431
2.90889e-07
3.90431
2.90896e-07
3.9043
2.909e-07
3.9043
2.90904e-07
3.9043
2.90907e-07
3.9043
2.90911e-07
3.9043
2.90918e-07
3.9043
2.90922e-07
3.9043
2.90929e-07
3.9043
2.90936e-07
3.9043
2.90936e-07
3.9043
2.90944e-07
3.90429
2.90947e-07
3.90429
2.90947e-07
3.90429
2.90955e-07
3.90429
2.90958e-07
3.90429
2.90966e-07
3.90429
2.90969e-07
3.90429
2.90976e-07
3.90429
2.9098e-07
3.90429
2.90984e-07
3.90428
2.90995e-07
3.90428
2.90995e-07
3.90428
2.91002e-07
3.90428
2.91006e-07
3.90428
2.91009e-07
3.90428
2.91013e-07
3.90428
2.91024e-07
3.90428
2.91031e-07
3.90428
2.91031e-07
3.90428
2.91038e-07
3.90428
2.91042e-07
3.90428
2.91049e-07
3.90428
2.91053e-07
3.90428
2.9106e-07
3.90428
2.9106e-07
3.90427
2.91064e-07
3.90427
2.91064e-07
3.90427
2.91071e-07
3.90427
2.91071e-07
3.90427
2.91078e-07
3.90427
2.91078e-07
3.90427
2.91082e-07
3.90427
2.91078e-07
3.90427
2.91075e-07
3.90427
2.91082e-07
3.90427
2.91075e-07
3.90427
2.91075e-07
3.90427
2.91082e-07
3.90427
2.91082e-07
3.90427
2.91078e-07
3.90427
2.91082e-07
3.90427
2.91082e-07
3.90427
2.91075e-07
3.90427
2.91078e-07
3.90427
2.91075e-07
3.90427
2.91078e-07
3.90427
2.91078e-07
3.90427
2.91078e-07
3.90427
2.91078e-07
3.90427
2.91078e-07
3.90427
2.91082e-07
3.90427
2.91082e-07
3.90427
2.91078e-07
3.90427
2.91075e-07
3.90427
2.91082e-07
3.90427
2.91082e-07
3.90427
2.91078e-07
3.90427
2.91078e-07
3.90427
2.91082e-07
3.90427
2.91078e-07
3.90427
2.91086e-07
3.90427
2.91089e-07
3.90427
2.91078e-07
3.90427
2.91078e-07
3.90427
2.91078e-07
3.90427
2.91078e-07
3.90427
2.91078e-07
3.90427
2.91078e-07
3.90427
2.91078e-07
3.90427
2.91078e-07
3.90427
2.91078e-07
3.90427
2.91075e-07
3.90427
2.91078e-07
3.90427
2.91078e-07
3.90427
2.91078e-07
3.90427
2.91082e-07
3.90427
2.91082e-07
3.90427
2.91078e-07
3.90427
2.91078e-07
3.90427
2.91082e-07
3.90427
2.91082e-07
3.90427
2.91082e-07
3.90427
2.91082e-07
3.90427
2.91086e-07
3.90427
2.91089e-07
3.90427
2.911e-07
3.90427
2.91115e-07
3.90427
2.91137e-07
3.90426
2.91173e-07
3.90426
2.91238e-07
3.90425
2.91326e-07
3.90423
2.91471e-07
3.9042
2.91686e-07
3.90416
2.92013e-07
3.9041
2.92483e-07
3.90401
2.93159e-07
3.90387
2.94112e-07
3.90366
2.95415e-07
3.90337
2.97161e-07
3.90295
2.99424e-07
3.90238
3.02272e-07
3.9016
3.0571e-07
3.90055
3.09694e-07
3.89919
3.14012e-07
3.89746
3.18334e-07
3.89531
3.22085e-07
3.89269
3.24457e-07
3.88961
3.24384e-07
3.88607
3.20582e-07
3.88215
3.11629e-07
3.87797
2.96081e-07
3.87369
2.72736e-07
3.86954
2.40831e-07
3.86576
2.00318e-07
3.86263
1.52118e-07
3.8604
9.82072e-08
3.85929
4.17276e-08
3.85942
-1.18962e-09
3.86078
-4.87744e-08
3.86335
-1.04017e-07
3.86699
-1.26169e-07
3.87144
-1.39134e-07
3.87639
-1.32066e-07
3.88148
-1.04468e-07
3.88636
-7.07332e-08
3.89076
-1.81717e-08
3.89448
3.6609e-08
3.89739
9.12223e-08
3.89949
1.46585e-07
3.90083
1.8959e-07
3.90153
2.27654e-07
3.90173
2.55393e-07
3.9016
2.66147e-07
3.90127
2.83042e-07
3.90083
2.85385e-07
3.90035
2.84886e-07
3.8999
2.83122e-07
3.89948
2.7653e-07
3.89912
2.72874e-07
3.89882
2.67675e-07
3.89856
2.6315e-07
3.89834
2.60927e-07
3.89815
2.56452e-07
3.89798
2.54309e-07
3.89784
2.5277e-07
3.89772
2.50031e-07
3.89761
2.49314e-07
3.89751
2.47503e-07
3.89742
2.46e-07
3.89735
2.45793e-07
3.89728
2.4401e-07
3.89722
2.43788e-07
3.89717
2.45294e-07
3.89713
2.61021e-07
3.89709
2.92275e-07
3.89706
5.61515e-07
3.89705
1.43592e-06
3.89703
8.32125e-06
3.89698
3.66791e-05
3.8968
0.000188008
3.89588
0.000922167
3.89136
0.00453372
3.86956
0.0218081
3.7572
0.11241
0.4639
3.29347
5.52327
0.000428281
5.52328
0.000252464
5.52329
0.00017688
5.5233
0.000116968
5.5233
6.716e-05
5.5233
3.42743e-05
5.5233
1.58473e-05
5.5233
6.75377e-06
5.5233
2.74013e-06
5.52329
1.13902e-06
5.52329
5.5475e-07
5.52329
3.5789e-07
5.52329
2.9619e-07
5.52329
2.78098e-07
5.52329
2.73105e-07
5.52329
2.7181e-07
5.52328
2.71491e-07
5.52328
2.71411e-07
5.52328
2.71397e-07
5.52328
2.71404e-07
5.52328
2.71411e-07
5.52328
2.71404e-07
5.52328
2.71411e-07
5.52327
2.71422e-07
5.52327
2.71417e-07
5.52327
2.71426e-07
5.52327
2.7143e-07
5.52327
2.71435e-07
5.52327
2.71441e-07
5.52326
2.71442e-07
5.52326
2.71448e-07
5.52326
2.71455e-07
5.52326
2.71455e-07
5.52326
2.71468e-07
5.52326
2.71468e-07
5.52326
2.71468e-07
5.52325
2.7147e-07
5.52325
2.71468e-07
5.52325
2.71477e-07
5.52325
2.71481e-07
5.52325
2.71477e-07
5.52325
2.71486e-07
5.52325
2.71497e-07
5.52324
2.71501e-07
5.52324
2.71504e-07
5.52324
2.71506e-07
5.52324
2.71513e-07
5.52324
2.71517e-07
5.52324
2.71522e-07
5.52324
2.71526e-07
5.52323
2.71537e-07
5.52323
2.71535e-07
5.52323
2.71548e-07
5.52323
2.71542e-07
5.52323
2.71551e-07
5.52323
2.71551e-07
5.52323
2.71564e-07
5.52323
2.71562e-07
5.52323
2.71566e-07
5.52323
2.7157e-07
5.52323
2.71571e-07
5.52323
2.71581e-07
5.52323
2.71581e-07
5.52323
2.71581e-07
5.52323
2.71586e-07
5.52323
2.71586e-07
5.52323
2.71593e-07
5.52323
2.71595e-07
5.52323
2.71591e-07
5.52323
2.71591e-07
5.52323
2.71586e-07
5.52323
2.71588e-07
5.52323
2.71599e-07
5.52323
2.71591e-07
5.52323
2.71588e-07
5.52323
2.7159e-07
5.52323
2.71591e-07
5.52323
2.7159e-07
5.52323
2.7159e-07
5.52323
2.71591e-07
5.52323
2.7159e-07
5.52323
2.71591e-07
5.52323
2.71586e-07
5.52323
2.71584e-07
5.52323
2.71584e-07
5.52323
2.71593e-07
5.52323
2.71593e-07
5.52323
2.71588e-07
5.52323
2.71582e-07
5.52323
2.71593e-07
5.52323
2.71588e-07
5.52323
2.71591e-07
5.52323
2.71595e-07
5.52323
2.71597e-07
5.52323
2.71588e-07
5.52323
2.71595e-07
5.52323
2.71595e-07
5.52323
2.71586e-07
5.52323
2.71588e-07
5.52323
2.71591e-07
5.52323
2.7159e-07
5.52323
2.71586e-07
5.52323
2.71593e-07
5.52323
2.71591e-07
5.52323
2.71588e-07
5.52323
2.71586e-07
5.52323
2.71591e-07
5.52323
2.71586e-07
5.52323
2.71597e-07
5.52323
2.71597e-07
5.52323
2.71599e-07
5.52323
2.71591e-07
5.52323
2.7159e-07
5.52323
2.71591e-07
5.52322
2.71597e-07
5.52322
2.71595e-07
5.52322
2.71593e-07
5.52322
2.7159e-07
5.52322
2.71595e-07
5.52322
2.71602e-07
5.52322
2.7161e-07
5.52322
2.71626e-07
5.52322
2.71644e-07
5.52321
2.71684e-07
5.5232
2.71735e-07
5.52319
2.71828e-07
5.52316
2.71961e-07
5.52313
2.72166e-07
5.52307
2.7247e-07
5.52298
2.72918e-07
5.52285
2.73556e-07
5.52265
2.74455e-07
5.52236
2.75695e-07
5.52194
2.77341e-07
5.52136
2.79477e-07
5.52054
2.82156e-07
5.51944
2.85394e-07
5.51796
2.89148e-07
5.51604
2.93205e-07
5.51359
2.97259e-07
5.51054
3.00768e-07
5.50685
3.02975e-07
5.50248
3.02864e-07
5.49748
2.99244e-07
5.49194
2.90778e-07
5.48603
2.76124e-07
5.47998
2.54176e-07
5.4741
2.24207e-07
5.46876
1.86206e-07
5.46433
1.41061e-07
5.46118
9.06493e-08
5.4596
3.80478e-08
5.45979
-2.50111e-09
5.46172
-4.58385e-08
5.46534
-9.74123e-08
5.47049
-1.17992e-07
5.47679
-1.29508e-07
5.48379
-1.22491e-07
5.49098
-9.66393e-08
5.49789
-6.46796e-08
5.50411
-1.57925e-08
5.50936
3.5674e-08
5.51348
8.64475e-08
5.51645
1.37754e-07
5.51834
1.77826e-07
5.51934
2.12984e-07
5.51963
2.38568e-07
5.51944
2.48689e-07
5.51897
2.63875e-07
5.51834
2.66185e-07
5.51767
2.65596e-07
5.51703
2.63903e-07
5.51644
2.57887e-07
5.51594
2.54335e-07
5.5155
2.49602e-07
5.51513
2.45398e-07
5.51482
2.43337e-07
5.51455
2.39244e-07
5.51432
2.37158e-07
5.51412
2.3579e-07
5.51395
2.333e-07
5.51379
2.32567e-07
5.51365
2.30939e-07
5.51353
2.29515e-07
5.51342
2.29375e-07
5.51333
2.27832e-07
5.51324
2.28038e-07
5.51317
2.32367e-07
5.51311
2.60241e-07
5.51306
3.58701e-07
5.51302
9.51704e-07
5.51299
3.53556e-06
5.51297
1.87068e-05
5.51291
8.92803e-05
5.51265
0.000449955
5.51135
0.00222342
5.505
0.0108981
5.47424
0.0526022
5.31931
0.267291
1.07227
4.71122
7.81108
0.000374855
7.8111
0.000233142
7.81111
0.000158292
7.81112
0.000106356
7.81112
6.15269e-05
7.81112
3.15404e-05
7.81112
1.4681e-05
7.81112
6.30177e-06
7.81112
2.57075e-06
7.81112
1.06902e-06
7.81112
5.15934e-07
7.81111
3.27722e-07
7.81111
2.68108e-07
7.81111
2.50441e-07
7.81111
2.45503e-07
7.81111
2.44204e-07
7.8111
2.43884e-07
7.8111
2.438e-07
7.8111
2.43786e-07
7.8111
2.43793e-07
7.81109
2.43796e-07
7.81109
2.43796e-07
7.81109
2.43802e-07
7.81109
2.4381e-07
7.81109
2.43805e-07
7.81108
2.43816e-07
7.81108
2.43814e-07
7.81108
2.4382e-07
7.81108
2.43825e-07
7.81108
2.43826e-07
7.81107
2.43827e-07
7.81107
2.43838e-07
7.81107
2.43836e-07
7.81107
2.43846e-07
7.81107
2.43849e-07
7.81106
2.43846e-07
7.81106
2.43847e-07
7.81106
2.43846e-07
7.81106
2.4385e-07
7.81105
2.43853e-07
7.81105
2.43854e-07
7.81105
2.43863e-07
7.81105
2.43872e-07
7.81105
2.43874e-07
7.81104
2.4388e-07
7.81104
2.43885e-07
7.81104
2.43886e-07
7.81104
2.43892e-07
7.81104
2.43894e-07
7.81103
2.43898e-07
7.81103
2.43906e-07
7.81103
2.43905e-07
7.81103
2.43918e-07
7.81103
2.43915e-07
7.81103
2.43927e-07
7.81103
2.43923e-07
7.81102
2.43933e-07
7.81102
2.43929e-07
7.81102
2.43939e-07
7.81102
2.43938e-07
7.81102
2.43943e-07
7.81102
2.4395e-07
7.81102
2.43948e-07
7.81102
2.43949e-07
7.81102
2.43956e-07
7.81102
2.43948e-07
7.81102
2.43956e-07
7.81102
2.43957e-07
7.81102
2.43961e-07
7.81102
2.4396e-07
7.81102
2.43953e-07
7.81102
2.43955e-07
7.81102
2.43961e-07
7.81102
2.43956e-07
7.81102
2.43955e-07
7.81102
2.43954e-07
7.81102
2.4396e-07
7.81102
2.43956e-07
7.81102
2.43956e-07
7.81102
2.43957e-07
7.81102
2.43957e-07
7.81102
2.43957e-07
7.81102
2.43952e-07
7.81102
2.43955e-07
7.81102
2.43951e-07
7.81102
2.43958e-07
7.81102
2.4396e-07
7.81102
2.43956e-07
7.81102
2.4395e-07
7.81102
2.43958e-07
7.81102
2.43957e-07
7.81102
2.43955e-07
7.81102
2.43962e-07
7.81102
2.43963e-07
7.81102
2.43953e-07
7.81102
2.43959e-07
7.81102
2.43958e-07
7.81102
2.4395e-07
7.81102
2.43958e-07
7.81102
2.43956e-07
7.81102
2.43954e-07
7.81102
2.43949e-07
7.81102
2.43956e-07
7.81102
2.43959e-07
7.81102
2.43954e-07
7.81102
2.43952e-07
7.81102
2.43957e-07
7.81102
2.4395e-07
7.81102
2.43961e-07
7.81102
2.43962e-07
7.81102
2.43963e-07
7.81102
2.43957e-07
7.81102
2.43956e-07
7.81102
2.43959e-07
7.81102
2.43962e-07
7.81102
2.43957e-07
7.81102
2.43959e-07
7.81102
2.43957e-07
7.81102
2.43964e-07
7.81102
2.4397e-07
7.81102
2.4397e-07
7.81101
2.43986e-07
7.81101
2.44005e-07
7.811
2.44045e-07
7.81099
2.4409e-07
7.81097
2.4417e-07
7.81093
2.44291e-07
7.81088
2.44479e-07
7.8108
2.44753e-07
7.81068
2.45159e-07
7.81049
2.4574e-07
7.81021
2.46548e-07
7.8098
2.47674e-07
7.80921
2.49161e-07
7.80838
2.51091e-07
7.80723
2.53511e-07
7.80566
2.56437e-07
7.80358
2.59823e-07
7.80086
2.63481e-07
7.7974
2.67135e-07
7.79309
2.70292e-07
7.78786
2.72265e-07
7.78169
2.72146e-07
7.77462
2.68855e-07
7.76678
2.61196e-07
7.75841
2.4795e-07
7.74986
2.28142e-07
7.74155
2.01122e-07
7.73399
1.66885e-07
7.72773
1.2625e-07
7.72327
8.09214e-08
7.72104
3.3835e-08
7.72131
-3.4288e-09
7.72403
-4.1101e-08
7.72916
-8.76635e-08
7.73644
-1.06268e-07
7.74536
-1.16164e-07
7.75525
-1.09605e-07
7.76542
-8.64557e-08
7.77519
-5.73582e-08
7.78399
-1.37079e-08
7.79142
3.30901e-08
7.79724
7.83448e-08
7.80144
1.24132e-07
7.80412
1.60279e-07
7.80552
1.9159e-07
7.80593
2.14349e-07
7.80566
2.23713e-07
7.805
2.36806e-07
7.80412
2.39094e-07
7.80317
2.3847e-07
7.80225
2.36861e-07
7.80143
2.31643e-07
7.80071
2.28277e-07
7.8001
2.24137e-07
7.79958
2.20392e-07
7.79914
2.18475e-07
7.79876
2.14914e-07
7.79843
2.12956e-07
7.79815
2.11752e-07
7.7979
2.09599e-07
7.79768
2.08842e-07
7.79748
2.07452e-07
7.79731
2.06171e-07
7.79716
2.06051e-07
7.79702
2.04883e-07
7.7969
2.0578e-07
7.7968
2.13851e-07
7.79671
2.59032e-07
7.79664
4.49874e-07
7.79659
1.49526e-06
7.79655
6.43422e-06
7.79651
3.31196e-05
7.79643
0.00016214
7.79607
0.000813161
7.79428
0.00402687
7.78546
0.0197295
7.74282
0.0952816
7.52983
0.48025
1.8776
6.72485
34.4797
0.0001741
34.4798
0.00012434
34.4799
7.96682e-05
34.4799
5.47143e-05
34.48
3.24144e-05
34.48
1.67192e-05
34.48
7.84787e-06
34.48
3.40559e-06
34.48
1.39824e-06
34.4799
5.79643e-07
34.4799
2.74678e-07
34.4799
1.69628e-07
34.4799
1.35913e-07
34.4799
1.25786e-07
34.4799
1.22914e-07
34.4799
1.22147e-07
34.4799
1.21954e-07
34.4799
1.21904e-07
34.4799
1.21893e-07
34.4798
1.21895e-07
34.4798
1.21897e-07
34.4798
1.21897e-07
34.4798
1.219e-07
34.4798
1.21904e-07
34.4798
1.21903e-07
34.4798
1.21907e-07
34.4798
1.21905e-07
34.4798
1.21907e-07
34.4798
1.2191e-07
34.4798
1.21912e-07
34.4797
1.21912e-07
34.4797
1.21917e-07
34.4797
1.21919e-07
34.4797
1.21922e-07
34.4797
1.21925e-07
34.4797
1.21923e-07
34.4797
1.21925e-07
34.4797
1.21922e-07
34.4797
1.21924e-07
34.4797
1.21923e-07
34.4797
1.21927e-07
34.4796
1.2193e-07
34.4796
1.21936e-07
34.4796
1.21936e-07
34.4796
1.2194e-07
34.4796
1.21943e-07
34.4796
1.21943e-07
34.4796
1.21946e-07
34.4796
1.21947e-07
34.4796
1.21947e-07
34.4796
1.21952e-07
34.4796
1.21952e-07
34.4796
1.21959e-07
34.4795
1.21957e-07
34.4795
1.21963e-07
34.4795
1.21961e-07
34.4795
1.21966e-07
34.4795
1.21963e-07
34.4795
1.21969e-07
34.4795
1.21969e-07
34.4795
1.21971e-07
34.4795
1.21974e-07
34.4795
1.21974e-07
34.4795
1.21975e-07
34.4795
1.21977e-07
34.4795
1.21973e-07
34.4795
1.21978e-07
34.4795
1.21978e-07
34.4795
1.21981e-07
34.4795
1.21979e-07
34.4795
1.21975e-07
34.4795
1.21976e-07
34.4795
1.21981e-07
34.4795
1.21978e-07
34.4795
1.21976e-07
34.4795
1.21976e-07
34.4795
1.21979e-07
34.4795
1.21976e-07
34.4795
1.21975e-07
34.4795
1.21977e-07
34.4795
1.2198e-07
34.4795
1.21979e-07
34.4795
1.21976e-07
34.4795
1.21977e-07
34.4795
1.21973e-07
34.4795
1.21976e-07
34.4795
1.21977e-07
34.4795
1.21976e-07
34.4795
1.21973e-07
34.4795
1.21979e-07
34.4795
1.21978e-07
34.4795
1.21977e-07
34.4795
1.21978e-07
34.4795
1.21981e-07
34.4795
1.21976e-07
34.4795
1.21979e-07
34.4795
1.21978e-07
34.4795
1.21971e-07
34.4795
1.21977e-07
34.4795
1.21978e-07
34.4795
1.21977e-07
34.4795
1.21973e-07
34.4795
1.21979e-07
34.4795
1.21979e-07
34.4795
1.21975e-07
34.4795
1.21975e-07
34.4795
1.21977e-07
34.4795
1.21972e-07
34.4795
1.21979e-07
34.4795
1.21981e-07
34.4795
1.21981e-07
34.4795
1.21978e-07
34.4795
1.21976e-07
34.4795
1.21979e-07
34.4795
1.21979e-07
34.4795
1.21976e-07
34.4795
1.21978e-07
34.4795
1.2198e-07
34.4795
1.21981e-07
34.4795
1.21983e-07
34.4795
1.21983e-07
34.4795
1.21992e-07
34.4795
1.22003e-07
34.4794
1.22023e-07
34.4794
1.22046e-07
34.4793
1.22086e-07
34.4791
1.22146e-07
34.4789
1.22242e-07
34.4785
1.22376e-07
34.478
1.22579e-07
34.4772
1.22869e-07
34.4759
1.23273e-07
34.4741
1.23835e-07
34.4715
1.24582e-07
34.4679
1.25544e-07
34.4628
1.26754e-07
34.4559
1.28216e-07
34.4467
1.29909e-07
34.4347
1.31738e-07
34.4194
1.33563e-07
34.4004
1.35139e-07
34.3773
1.36124e-07
34.35
1.36059e-07
34.3188
1.34412e-07
34.2842
1.30578e-07
34.2473
1.2395e-07
34.2095
1.14042e-07
34.1728
1.0053e-07
34.1395
8.34107e-08
34.1118
6.30862e-08
34.0922
4.03957e-08
34.0823
1.6777e-08
34.0835
-1.78534e-09
34.0955
-1.94441e-08
34.1182
-4.40718e-08
34.1503
-5.34419e-08
34.1897
-5.79516e-08
34.2333
-5.47147e-08
34.2782
-4.33001e-08
34.3213
-2.85063e-08
34.3602
-6.95309e-09
34.393
1.68366e-08
34.4187
3.91665e-08
34.4372
6.1973e-08
34.449
8.02106e-08
34.4552
9.57475e-08
34.4571
1.07093e-07
34.4559
1.12104e-07
34.453
1.18132e-07
34.449
1.19622e-07
34.4448
1.19264e-07
34.4408
1.18328e-07
34.4372
1.15919e-07
34.434
1.14047e-07
34.4313
1.12144e-07
34.429
1.10191e-07
34.4271
1.09161e-07
34.4254
1.07528e-07
34.4239
1.06471e-07
34.4227
1.05837e-07
34.4216
1.04867e-07
34.4206
1.04355e-07
34.4198
1.0377e-07
34.419
1.03148e-07
34.4183
1.03133e-07
34.4177
1.03321e-07
34.4172
1.0736e-07
34.4167
1.29463e-07
34.4164
2.45884e-07
34.416
7.90843e-07
34.4158
3.63293e-06
34.4156
1.76553e-05
34.4155
8.95553e-05
34.4152
0.000446483
34.4137
0.00223406
34.4067
0.0110795
34.3723
0.054239
34.2088
0.258932
33.4943
1.19474
4.47191
30.9011
34.4797
2.27374e-12
34.4798
4.54747e-13
34.4799
-9.09495e-13
34.4799
4.54747e-13
34.48
-1.36424e-12
34.48
1.81899e-12
34.48
-1.36424e-12
34.48
-3.63798e-12
34.48
-1.36424e-12
34.4799
4.54747e-13
34.4799
2.27374e-12
34.4799
3.18323e-12
34.4799
1.81899e-12
34.4799
3.18323e-12
34.4799
4.54747e-13
34.4799
9.09495e-13
34.4799
4.09273e-12
34.4799
9.09495e-13
34.4799
0
34.4798
1.81899e-12
34.4798
0
34.4798
-4.54747e-13
34.4798
4.54747e-13
34.4798
2.72848e-12
34.4798
4.54747e-13
34.4798
2.27374e-12
34.4798
-2.72848e-12
34.4798
-3.18323e-12
34.4798
-2.27374e-12
34.4798
-1.36424e-12
34.4797
-2.72848e-12
34.4797
2.27374e-12
34.4797
1.81899e-12
34.4797
9.09495e-13
34.4797
0
34.4797
-4.54747e-13
34.4797
3.18323e-12
34.4797
-4.54747e-13
34.4797
-3.18323e-12
34.4797
-3.63798e-12
34.4797
-1.36424e-12
34.4796
4.54747e-13
34.4796
2.72848e-12
34.4796
-9.09495e-13
34.4796
1.81899e-12
34.4796
3.63798e-12
34.4796
1.36424e-12
34.4796
4.54747e-13
34.4796
0
34.4796
-1.81899e-12
34.4796
1.81899e-12
34.4796
-4.54747e-13
34.4796
1.36424e-12
34.4795
-9.09495e-13
34.4795
1.81899e-12
34.4795
-9.09495e-13
34.4795
2.27374e-12
34.4795
-1.36424e-12
34.4795
4.54747e-13
34.4795
0
34.4795
4.54747e-13
34.4795
-9.09495e-13
34.4795
4.54747e-13
34.4795
1.36424e-12
34.4795
2.27374e-12
34.4795
-9.09495e-13
34.4795
0
34.4795
9.09495e-13
34.4795
2.72848e-12
34.4795
1.81899e-12
34.4795
-2.72848e-12
34.4795
4.54747e-13
34.4795
2.27374e-12
34.4795
2.27374e-12
34.4795
-9.09495e-13
34.4795
4.54747e-13
34.4795
0
34.4795
-2.27374e-12
34.4795
-1.81899e-12
34.4795
-1.36424e-12
34.4795
1.36424e-12
34.4795
1.81899e-12
34.4795
-4.54747e-13
34.4795
4.54747e-13
34.4795
-1.81899e-12
34.4795
-1.36424e-12
34.4795
-1.81899e-12
34.4795
-9.09495e-13
34.4795
-2.27374e-12
34.4795
0
34.4795
-4.54747e-13
34.4795
-1.36424e-12
34.4795
-1.81899e-12
34.4795
9.09495e-13
34.4795
-1.81899e-12
34.4795
9.09495e-13
34.4795
0
34.4795
-6.82121e-12
34.4795
-2.27374e-12
34.4795
0
34.4795
4.54747e-13
34.4795
-9.09495e-13
34.4795
2.27374e-12
34.4795
4.54747e-13
34.4795
-3.63798e-12
34.4795
-1.81899e-12
34.4795
-1.36424e-12
34.4795
-4.09273e-12
34.4795
-2.27374e-12
34.4795
1.36424e-12
34.4795
1.36424e-12
34.4795
-9.09495e-13
34.4795
-2.72848e-12
34.4795
0
34.4795
-4.54747e-13
34.4795
-4.54747e-13
34.4795
-1.36424e-12
34.4795
9.09495e-13
34.4795
4.54747e-13
34.4795
-4.54747e-13
34.4795
-2.72848e-12
34.4795
-9.09495e-13
34.4795
1.81899e-12
34.4794
3.18323e-12
34.4794
2.27374e-12
34.4793
1.81899e-12
34.4791
1.36424e-12
34.4789
3.63798e-12
34.4785
0
34.478
4.54747e-13
34.4772
0
34.4759
-1.36424e-12
34.4741
-9.09495e-13
34.4715
4.54747e-12
34.4679
4.54747e-13
34.4628
4.54747e-13
34.4559
-1.81899e-12
34.4467
1.36424e-12
34.4347
9.09495e-13
34.4194
9.09495e-13
34.4004
9.09495e-13
34.3773
3.63798e-12
34.35
4.54747e-13
34.3188
4.54747e-13
34.2842
9.09495e-13
34.2473
-1.36424e-12
34.2095
0
34.1728
-4.54747e-13
34.1395
-1.36424e-12
34.1118
0
34.0922
1.81899e-12
34.0823
4.54747e-13
34.0835
-1.81899e-12
34.0955
-2.72848e-12
34.1182
-1.81899e-12
34.1503
4.54747e-13
34.1897
9.09495e-13
34.2333
2.27374e-12
34.2782
9.09495e-13
34.3213
-4.54747e-13
34.3602
-9.09495e-13
34.393
-9.09495e-13
34.4187
-9.09495e-13
34.4372
4.54747e-13
34.449
-4.54747e-13
34.4552
1.81899e-12
34.4571
1.81899e-12
34.4559
-2.27374e-12
34.453
-2.27374e-12
34.449
-4.54747e-13
34.4448
-1.36424e-12
34.4408
4.54747e-13
34.4372
4.54747e-13
34.434
-1.36424e-12
34.4313
0
34.429
2.72848e-12
34.4271
1.36424e-12
34.4254
2.72848e-12
34.4239
3.18323e-12
34.4227
2.27374e-12
34.4216
9.09495e-13
34.4206
1.81899e-12
34.4198
7.27596e-12
34.419
4.91127e-11
34.4183
2.59206e-10
34.4177
1.33059e-09
34.4172
6.79938e-09
34.4167
3.44949e-08
34.4164
1.73578e-07
34.4161
8.62009e-07
34.4158
4.37375e-06
34.4157
2.19571e-05
34.4155
0.000111084
34.4154
0.000556773
34.4148
0.00279161
34.4121
0.0138929
34.3978
0.0685281
34.3249
0.332044
33.9551
1.56458
5.96871
32.459
34.4797
-0.0001741
34.4798
-0.00012434
34.4799
-7.96682e-05
34.4799
-5.47143e-05
34.48
-3.24144e-05
34.48
-1.67192e-05
34.48
-7.84787e-06
34.48
-3.4056e-06
34.48
-1.39824e-06
34.4799
-5.79641e-07
34.4799
-2.74672e-07
34.4799
-1.69618e-07
34.4799
-1.35911e-07
34.4799
-1.25777e-07
34.4799
-1.22912e-07
34.4799
-1.22143e-07
34.4799
-1.21946e-07
34.4799
-1.21902e-07
34.4799
-1.21893e-07
34.4798
-1.21891e-07
34.4798
-1.21898e-07
34.4798
-1.21896e-07
34.4798
-1.21896e-07
34.4798
-1.21897e-07
34.4798
-1.219e-07
34.4798
-1.21902e-07
34.4798
-1.2191e-07
34.4798
-1.21914e-07
34.4798
-1.21915e-07
34.4798
-1.21914e-07
34.4797
-1.21917e-07
34.4797
-1.21913e-07
34.4797
-1.21916e-07
34.4797
-1.2192e-07
34.4797
-1.21923e-07
34.4797
-1.21924e-07
34.4797
-1.21917e-07
34.4797
-1.21923e-07
34.4797
-1.2193e-07
34.4797
-1.2193e-07
34.4797
-1.2193e-07
34.4796
-1.2193e-07
34.4796
-1.2193e-07
34.4796
-1.21937e-07
34.4796
-1.21936e-07
34.4796
-1.21938e-07
34.4796
-1.2194e-07
34.4796
-1.21943e-07
34.4796
-1.21944e-07
34.4796
-1.2195e-07
34.4796
-1.21951e-07
34.4796
-1.21956e-07
34.4796
-1.21954e-07
34.4795
-1.21959e-07
34.4795
-1.2196e-07
34.4795
-1.21963e-07
34.4795
-1.21961e-07
34.4795
-1.21966e-07
34.4795
-1.21967e-07
34.4795
-1.21971e-07
34.4795
-1.21972e-07
34.4795
-1.21976e-07
34.4795
-1.21975e-07
34.4795
-1.21971e-07
34.4795
-1.21973e-07
34.4795
-1.21976e-07
34.4795
-1.21976e-07
34.4795
-1.21976e-07
34.4795
-1.21974e-07
34.4795
-1.21974e-07
34.4795
-1.21981e-07
34.4795
-1.21977e-07
34.4795
-1.21976e-07
34.4795
-1.21974e-07
34.4795
-1.21979e-07
34.4795
-1.21977e-07
34.4795
-1.21977e-07
34.4795
-1.21979e-07
34.4795
-1.2198e-07
34.4795
-1.21981e-07
34.4795
-1.21978e-07
34.4795
-1.21974e-07
34.4795
-1.21976e-07
34.4795
-1.21976e-07
34.4795
-1.21977e-07
34.4795
-1.21978e-07
34.4795
-1.21979e-07
34.4795
-1.21979e-07
34.4795
-1.21982e-07
34.4795
-1.21977e-07
34.4795
-1.21979e-07
34.4795
-1.21977e-07
34.4795
-1.21981e-07
34.4795
-1.21979e-07
34.4795
-1.2198e-07
34.4795
-1.21978e-07
34.4795
-1.2198e-07
34.4795
-1.21984e-07
34.4795
-1.21981e-07
34.4795
-1.21978e-07
34.4795
-1.21976e-07
34.4795
-1.21976e-07
34.4795
-1.21974e-07
34.4795
-1.21977e-07
34.4795
-1.21982e-07
34.4795
-1.2198e-07
34.4795
-1.2198e-07
34.4795
-1.21982e-07
34.4795
-1.21981e-07
34.4795
-1.21979e-07
34.4795
-1.21978e-07
34.4795
-1.21979e-07
34.4795
-1.21982e-07
34.4795
-1.21978e-07
34.4795
-1.21979e-07
34.4795
-1.21979e-07
34.4795
-1.2198e-07
34.4795
-1.21977e-07
34.4795
-1.2198e-07
34.4795
-1.21984e-07
34.4795
-1.2199e-07
34.4795
-1.21993e-07
34.4795
-1.21999e-07
34.4794
-1.22013e-07
34.4794
-1.22041e-07
34.4793
-1.22082e-07
34.4791
-1.22144e-07
34.4789
-1.22237e-07
34.4785
-1.22377e-07
34.478
-1.22579e-07
34.4772
-1.22868e-07
34.4759
-1.23277e-07
34.4741
-1.23835e-07
34.4715
-1.24573e-07
34.4679
-1.25542e-07
34.4628
-1.26755e-07
34.4559
-1.28219e-07
34.4467
-1.29906e-07
34.4347
-1.31736e-07
34.4194
-1.33562e-07
34.4004
-1.35136e-07
34.3773
-1.36118e-07
34.35
-1.3606e-07
34.3188
-1.34411e-07
34.2842
-1.30575e-07
34.2473
-1.23955e-07
34.2095
-1.1404e-07
34.1728
-1.00531e-07
34.1395
-8.34129e-08
34.1118
-6.30835e-08
34.0922
-4.03916e-08
34.0823
-1.67765e-08
34.0835
1.7817e-09
34.0955
1.94373e-08
34.1182
4.40691e-08
34.1503
5.34442e-08
34.1897
5.79553e-08
34.2333
5.47184e-08
34.2782
4.33042e-08
34.3213
2.85022e-08
34.3602
6.94945e-09
34.393
-1.6842e-08
34.4187
-3.91692e-08
34.4372
-6.19739e-08
34.449
-8.02124e-08
34.4552
-9.57443e-08
34.4571
-1.07088e-07
34.4559
-1.12108e-07
34.453
-1.18138e-07
34.449
-1.19623e-07
34.4448
-1.19266e-07
34.4408
-1.18328e-07
34.4372
-1.15917e-07
34.434
-1.14051e-07
34.4313
-1.12147e-07
34.429
-1.10185e-07
34.4271
-1.09158e-07
34.4254
-1.07523e-07
34.4239
-1.06465e-07
34.4227
-1.05833e-07
34.4216
-1.04863e-07
34.4206
-1.04351e-07
34.4198
-1.03759e-07
34.419
-1.03073e-07
34.4183
-1.0272e-07
34.4177
-1.01217e-07
34.4172
-9.63723e-08
34.4167
-7.36436e-08
34.4164
3.72911e-08
34.4161
5.92461e-07
34.4158
3.41981e-06
34.4157
1.75866e-05
34.4156
8.93338e-05
34.4157
0.000449548
34.4162
0.00226346
34.4188
0.0113593
34.4304
0.0569663
34.477
0.285601
34.5648
1.47682
5.39838
35.1351
34.4797
-0.000374855
34.4798
-0.000233142
34.4799
-0.000158292
34.4799
-0.000106356
34.48
-6.15269e-05
34.48
-3.15404e-05
34.48
-1.4681e-05
34.48
-6.30177e-06
34.48
-2.57076e-06
34.4799
-1.06902e-06
34.4799
-5.15929e-07
34.4799
-3.27715e-07
34.4799
-2.68106e-07
34.4799
-2.5043e-07
34.4799
-2.45501e-07
34.4799
-2.442e-07
34.4799
-2.43872e-07
34.4799
-2.438e-07
34.4799
-2.43788e-07
34.4798
-2.43786e-07
34.4798
-2.43796e-07
34.4798
-2.43795e-07
34.4798
-2.43796e-07
34.4798
-2.43798e-07
34.4798
-2.43803e-07
34.4798
-2.43807e-07
34.4798
-2.43819e-07
34.4798
-2.43826e-07
34.4798
-2.43831e-07
34.4798
-2.43826e-07
34.4797
-2.43835e-07
34.4797
-2.43829e-07
34.4797
-2.43837e-07
34.4797
-2.43841e-07
34.4797
-2.43847e-07
34.4797
-2.43851e-07
34.4797
-2.4384e-07
34.4797
-2.43846e-07
34.4797
-2.4386e-07
34.4797
-2.43858e-07
34.4797
-2.43863e-07
34.4796
-2.43863e-07
34.4796
-2.43863e-07
34.4796
-2.43875e-07
34.4796
-2.43874e-07
34.4796
-2.4388e-07
34.4796
-2.43882e-07
34.4796
-2.43888e-07
34.4796
-2.43891e-07
34.4796
-2.43902e-07
34.4796
-2.439e-07
34.4796
-2.43916e-07
34.4796
-2.4391e-07
34.4795
-2.43918e-07
34.4795
-2.43926e-07
34.4795
-2.43929e-07
34.4795
-2.43926e-07
34.4795
-2.43936e-07
34.4795
-2.43936e-07
34.4795
-2.43943e-07
34.4795
-2.43944e-07
34.4795
-2.43956e-07
34.4795
-2.43951e-07
34.4795
-2.43948e-07
34.4795
-2.43951e-07
34.4795
-2.43953e-07
34.4795
-2.43956e-07
34.4795
-2.43952e-07
34.4795
-2.43951e-07
34.4795
-2.43951e-07
34.4795
-2.43961e-07
34.4795
-2.43956e-07
34.4795
-2.43957e-07
34.4795
-2.43953e-07
34.4795
-2.4396e-07
34.4795
-2.43955e-07
34.4795
-2.43955e-07
34.4795
-2.43957e-07
34.4795
-2.43956e-07
34.4795
-2.43961e-07
34.4795
-2.43958e-07
34.4795
-2.43952e-07
34.4795
-2.43954e-07
34.4795
-2.43954e-07
34.4795
-2.43955e-07
34.4795
-2.43954e-07
34.4795
-2.43956e-07
34.4795
-2.43959e-07
34.4795
-2.43965e-07
34.4795
-2.43955e-07
34.4795
-2.43957e-07
34.4795
-2.43956e-07
34.4795
-2.43963e-07
34.4795
-2.43959e-07
34.4795
-2.4396e-07
34.4795
-2.43958e-07
34.4795
-2.43961e-07
34.4795
-2.43967e-07
34.4795
-2.43963e-07
34.4795
-2.43956e-07
34.4795
-2.43956e-07
34.4795
-2.43951e-07
34.4795
-2.43949e-07
34.4795
-2.43957e-07
34.4795
-2.43962e-07
34.4795
-2.43958e-07
34.4795
-2.43964e-07
34.4795
-2.43962e-07
34.4795
-2.43959e-07
34.4795
-2.43959e-07
34.4795
-2.43959e-07
34.4795
-2.43958e-07
34.4795
-2.43961e-07
34.4795
-2.43957e-07
34.4795
-2.43961e-07
34.4795
-2.43959e-07
34.4795
-2.43959e-07
34.4795
-2.43957e-07
34.4795
-2.43964e-07
34.4795
-2.43968e-07
34.4795
-2.43979e-07
34.4795
-2.43988e-07
34.4795
-2.44003e-07
34.4794
-2.44036e-07
34.4794
-2.44087e-07
34.4793
-2.44166e-07
34.4791
-2.44291e-07
34.4789
-2.44476e-07
34.4785
-2.44754e-07
34.478
-2.4516e-07
34.4772
-2.45736e-07
34.4759
-2.46555e-07
34.4741
-2.4767e-07
34.4715
-2.4915e-07
34.4679
-2.5109e-07
34.4628
-2.53513e-07
34.4559
-2.56442e-07
34.4467
-2.59819e-07
34.4347
-2.6348e-07
34.4194
-2.67136e-07
34.4004
-2.7029e-07
34.3773
-2.7226e-07
34.35
-2.72149e-07
34.3188
-2.68856e-07
34.2842
-2.61191e-07
34.2473
-2.47956e-07
34.2095
-2.28137e-07
34.1728
-2.01121e-07
34.1395
-1.66891e-07
34.1118
-1.26245e-07
34.0922
-8.09168e-08
34.0823
-3.38359e-08
34.0835
3.42516e-09
34.0955
4.10919e-08
34.1182
8.76607e-08
34.1503
1.06272e-07
34.1897
1.16165e-07
34.2333
1.09608e-07
34.2782
8.64575e-08
34.3213
5.73482e-08
34.3602
1.37015e-08
34.393
-3.30965e-08
34.4187
-7.83511e-08
34.4372
-1.24132e-07
34.449
-1.6028e-07
34.4552
-1.91587e-07
34.4571
-2.14342e-07
34.4559
-2.23718e-07
34.453
-2.36816e-07
34.449
-2.39091e-07
34.4448
-2.38471e-07
34.4408
-2.36862e-07
34.4372
-2.3164e-07
34.434
-2.28281e-07
34.4313
-2.24141e-07
34.429
-2.20384e-07
34.4271
-2.18472e-07
34.4254
-2.14908e-07
34.4239
-2.12948e-07
34.4227
-2.11749e-07
34.4216
-2.09595e-07
34.4206
-2.08835e-07
34.4198
-2.07451e-07
34.419
-2.06152e-07
34.4183
-2.05903e-07
34.4177
-2.04106e-07
34.4172
-2.01801e-07
34.4167
-1.93576e-07
34.4164
-1.53796e-07
34.4161
5.21177e-08
34.4158
1.0726e-06
34.4157
6.26032e-06
34.4156
3.23312e-05
34.4159
0.000163696
34.4173
0.000825368
34.4246
0.00416032
34.4604
0.0211835
34.633
0.113121
35.3106
0.799361
2.79585
37.9125
7.81108
-0.000428281
7.8111
-0.000252464
7.81111
-0.00017688
7.81112
-0.000116968
7.81112
-6.716e-05
7.81112
-3.42743e-05
7.81112
-1.58473e-05
7.81112
-6.75378e-06
7.81112
-2.74013e-06
7.81112
-1.13902e-06
7.81112
-5.54741e-07
7.81111
-3.57886e-07
7.81111
-2.96188e-07
7.81111
-2.78089e-07
7.81111
-2.73103e-07
7.81111
-2.71806e-07
7.8111
-2.71481e-07
7.8111
-2.71408e-07
7.8111
-2.71404e-07
7.8111
-2.71397e-07
7.81109
-2.71411e-07
7.81109
-2.71408e-07
7.81109
-2.71413e-07
7.81109
-2.71417e-07
7.81109
-2.71419e-07
7.81108
-2.7143e-07
7.81108
-2.71435e-07
7.81108
-2.71439e-07
7.81108
-2.7145e-07
7.81108
-2.71442e-07
7.81107
-2.71451e-07
7.81107
-2.71451e-07
7.81107
-2.71459e-07
7.81107
-2.71461e-07
7.81107
-2.71468e-07
7.81106
-2.7147e-07
7.81106
-2.71462e-07
7.81106
-2.71466e-07
7.81106
-2.71479e-07
7.81105
-2.71482e-07
7.81105
-2.7149e-07
7.81105
-2.71486e-07
7.81105
-2.71488e-07
7.81105
-2.71501e-07
7.81104
-2.71502e-07
7.81104
-2.71504e-07
7.81104
-2.7151e-07
7.81104
-2.71515e-07
7.81104
-2.71524e-07
7.81103
-2.71528e-07
7.81103
-2.7153e-07
7.81103
-2.71542e-07
7.81103
-2.71537e-07
7.81103
-2.71548e-07
7.81103
-2.71553e-07
7.81103
-2.71562e-07
7.81102
-2.71559e-07
7.81102