/*--------------------------------*- C++ -*----------------------------------*\
| =========                 |                                                 |
| \\      /  F ield         | OpenFOAM: The Open Source CFD Toolbox           |
|  \\    /   O peration     | Version:  3.0.x                                 |
|   \\  /    A nd           | Web:      www.OpenFOAM.org                      |
|    \\/     M anipulation  |                                                 |
\*---------------------------------------------------------------------------*/
FoamFile
{
    version     2.0;
    format      ascii;
    class       volVectorField;
    location    "0.02";
    object      U;
}
// * * * * * * * * * * * * * * * * * * * * * * * * * * * * * * * * * * * * * //

dimensions      [0 1 -1 0 0 0 0];

internalField   nonuniform List<vector> 
13800
(
(42.6963 0.00013068 0)
(42.6932 9.42008e-05 0)
(42.6907 6.79919e-05 0)
(42.689 4.45367e-05 0)
(42.688 2.56831e-05 0)
(42.6875 1.31824e-05 0)
(42.6872 6.10909e-06 0)
(42.6871 2.60343e-06 0)
(42.687 1.05464e-06 0)
(42.687 4.3689e-07 0)
(42.687 2.1189e-07 0)
(42.687 1.36356e-07 0)
(42.687 1.12811e-07 0)
(42.687 1.05957e-07 0)
(42.687 1.04073e-07 0)
(42.6869 1.03586e-07 0)
(42.6869 1.03465e-07 0)
(42.6869 1.03438e-07 0)
(42.6869 1.03435e-07 0)
(42.6869 1.03436e-07 0)
(42.6869 1.0344e-07 0)
(42.6869 1.03443e-07 0)
(42.6869 1.03445e-07 0)
(42.6869 1.03443e-07 0)
(42.6868 1.03449e-07 0)
(42.6868 1.03448e-07 0)
(42.6868 1.03451e-07 0)
(42.6868 1.03456e-07 0)
(42.6868 1.03452e-07 0)
(42.6868 1.03454e-07 0)
(42.6868 1.03455e-07 0)
(42.6868 1.03454e-07 0)
(42.6868 1.03461e-07 0)
(42.6867 1.03458e-07 0)
(42.6867 1.03461e-07 0)
(42.6867 1.03473e-07 0)
(42.6867 1.03474e-07 0)
(42.6867 1.03472e-07 0)
(42.6867 1.03472e-07 0)
(42.6867 1.03471e-07 0)
(42.6867 1.03477e-07 0)
(42.6867 1.03479e-07 0)
(42.6866 1.03489e-07 0)
(42.6866 1.03486e-07 0)
(42.6866 1.03486e-07 0)
(42.6866 1.03487e-07 0)
(42.6866 1.03485e-07 0)
(42.6866 1.03495e-07 0)
(42.6866 1.03498e-07 0)
(42.6866 1.03496e-07 0)
(42.6866 1.03501e-07 0)
(42.6866 1.03504e-07 0)
(42.6865 1.03501e-07 0)
(42.6865 1.03504e-07 0)
(42.6865 1.03507e-07 0)
(42.6865 1.03511e-07 0)
(42.6865 1.0351e-07 0)
(42.6865 1.03514e-07 0)
(42.6865 1.03513e-07 0)
(42.6865 1.03513e-07 0)
(42.6865 1.0351e-07 0)
(42.6865 1.03509e-07 0)
(42.6865 1.03519e-07 0)
(42.6865 1.03518e-07 0)
(42.6865 1.03521e-07 0)
(42.6865 1.03522e-07 0)
(42.6865 1.0352e-07 0)
(42.6865 1.03514e-07 0)
(42.6865 1.03512e-07 0)
(42.6865 1.03517e-07 0)
(42.6865 1.03522e-07 0)
(42.6865 1.0352e-07 0)
(42.6865 1.03518e-07 0)
(42.6865 1.03521e-07 0)
(42.6865 1.03515e-07 0)
(42.6865 1.03517e-07 0)
(42.6865 1.03525e-07 0)
(42.6865 1.03517e-07 0)
(42.6865 1.03494e-07 0)
(42.6865 1.03511e-07 0)
(42.6865 1.0351e-07 0)
(42.6865 1.03508e-07 0)
(42.6865 1.03515e-07 0)
(42.6865 1.03517e-07 0)
(42.6865 1.03519e-07 0)
(42.6865 1.03519e-07 0)
(42.6865 1.0352e-07 0)
(42.6865 1.03519e-07 0)
(42.6865 1.03516e-07 0)
(42.6865 1.0352e-07 0)
(42.6865 1.03519e-07 0)
(42.6865 1.03522e-07 0)
(42.6865 1.03526e-07 0)
(42.6865 1.03521e-07 0)
(42.6865 1.03523e-07 0)
(42.6865 1.03518e-07 0)
(42.6865 1.03521e-07 0)
(42.6865 1.03516e-07 0)
(42.6865 1.03518e-07 0)
(42.6865 1.03521e-07 0)
(42.6865 1.03518e-07 0)
(42.6865 1.03519e-07 0)
(42.6865 1.03521e-07 0)
(42.6865 1.03512e-07 0)
(42.6865 1.03518e-07 0)
(42.6865 1.03512e-07 0)
(42.6865 1.03518e-07 0)
(42.6865 1.03515e-07 0)
(42.6865 1.03515e-07 0)
(42.6865 1.03535e-07 0)
(42.6865 1.03526e-07 0)
(42.6865 1.03526e-07 0)
(42.6865 1.03524e-07 0)
(42.6865 1.03521e-07 0)
(42.6865 1.03518e-07 0)
(42.6865 1.03524e-07 0)
(42.6865 1.03522e-07 0)
(42.6865 1.03515e-07 0)
(42.6865 1.03527e-07 0)
(42.6865 1.03516e-07 0)
(42.6865 1.03525e-07 0)
(42.6865 1.03524e-07 0)
(42.6864 1.03526e-07 0)
(42.6864 1.03531e-07 0)
(42.6863 1.03542e-07 0)
(42.6863 1.03554e-07 0)
(42.6861 1.03566e-07 0)
(42.6858 1.03598e-07 0)
(42.6855 1.03635e-07 0)
(42.6849 1.03694e-07 0)
(42.6839 1.03772e-07 0)
(42.6826 1.03873e-07 0)
(42.6806 1.04004e-07 0)
(42.6777 1.04166e-07 0)
(42.6735 1.04363e-07 0)
(42.6677 1.04572e-07 0)
(42.6598 1.04769e-07 0)
(42.6492 1.04903e-07 0)
(42.6352 1.04905e-07 0)
(42.6172 1.04686e-07 0)
(42.5945 1.0407e-07 0)
(42.5667 1.02876e-07 0)
(42.5334 1.00861e-07 0)
(42.4948 9.77631e-08 0)
(42.4513 9.33005e-08 0)
(42.4041 8.7201e-08 0)
(42.3547 7.92708e-08 0)
(42.3054 6.94663e-08 0)
(42.259 5.79021e-08 0)
(42.2186 4.49938e-08 0)
(42.1871 3.14042e-08 0)
(42.1674 1.70405e-08 0)
(42.1613 1.20294e-09 0)
(42.1694 -1.23441e-08 0)
(42.1918 -2.43381e-08 0)
(42.2278 -2.90905e-08 0)
(42.2749 -3.13463e-08 0)
(42.3298 -2.8737e-08 0)
(42.3883 -2.08711e-08 0)
(42.4466 -1.15247e-08 0)
(42.501 2.50854e-09 0)
(42.5486 1.69228e-08 0)
(42.5876 3.11356e-08 0)
(42.6171 4.61792e-08 0)
(42.6374 5.8173e-08 0)
(42.6496 6.92934e-08 0)
(42.6551 7.80598e-08 0)
(42.6557 8.25356e-08 0)
(42.6532 8.80286e-08 0)
(42.6487 9.00888e-08 0)
(42.6434 9.12949e-08 0)
(42.6379 9.20202e-08 0)
(42.6328 9.11719e-08 0)
(42.6283 9.10341e-08 0)
(42.6244 9.04143e-08 0)
(42.6211 8.9666e-08 0)
(42.6182 8.95032e-08 0)
(42.6158 8.87217e-08 0)
(42.6137 8.84623e-08 0)
(42.6119 8.83142e-08 0)
(42.6104 8.77299e-08 0)
(42.609 8.7698e-08 0)
(42.6078 8.74139e-08 0)
(42.6067 8.70997e-08 0)
(42.6058 8.70806e-08 0)
(42.6049 8.66653e-08 0)
(42.6042 8.66049e-08 0)
(42.6035 8.69742e-08 0)
(42.603 9.02289e-08 0)
(42.6025 9.6066e-08 0)
(42.6022 1.49282e-07 0)
(42.6019 3.18032e-07 0)
(42.6017 1.70288e-06 0)
(42.6014 7.39214e-06 0)
(42.6003 3.77384e-05 0)
(42.5948 0.000185111 0)
(42.5686 0.000909615 0)
(42.4442 0.00437783 0)
(41.9967 0.022608 0)
(38.0559 0.095472 0)
(42.7001 0.000207015 0)
(42.7003 0.000125623 0)
(42.7004 8.51493e-05 0)
(42.7005 5.47311e-05 0)
(42.7005 3.0996e-05 0)
(42.7005 1.56595e-05 0)
(42.7005 7.17214e-06 0)
(42.7005 3.03155e-06 0)
(42.7005 1.22347e-06 0)
(42.7005 5.09251e-07 0)
(42.7005 2.51033e-07 0)
(42.7005 1.64801e-07 0)
(42.7005 1.37996e-07 0)
(42.7005 1.30197e-07 0)
(42.7005 1.28065e-07 0)
(42.7004 1.27517e-07 0)
(42.7004 1.27386e-07 0)
(42.7004 1.27357e-07 0)
(42.7004 1.27348e-07 0)
(42.7004 1.27352e-07 0)
(42.7004 1.27353e-07 0)
(42.7004 1.27351e-07 0)
(42.7004 1.27355e-07 0)
(42.7004 1.27359e-07 0)
(42.7003 1.27358e-07 0)
(42.7003 1.27359e-07 0)
(42.7003 1.27363e-07 0)
(42.7003 1.27362e-07 0)
(42.7003 1.27369e-07 0)
(42.7003 1.27368e-07 0)
(42.7003 1.27369e-07 0)
(42.7003 1.27375e-07 0)
(42.7003 1.27375e-07 0)
(42.7002 1.27383e-07 0)
(42.7002 1.27381e-07 0)
(42.7002 1.27376e-07 0)
(42.7002 1.27381e-07 0)
(42.7002 1.27379e-07 0)
(42.7002 1.2738e-07 0)
(42.7002 1.27385e-07 0)
(42.7002 1.27384e-07 0)
(42.7002 1.27388e-07 0)
(42.7002 1.27386e-07 0)
(42.7001 1.27389e-07 0)
(42.7001 1.27392e-07 0)
(42.7001 1.27399e-07 0)
(42.7001 1.27402e-07 0)
(42.7001 1.27401e-07 0)
(42.7001 1.27397e-07 0)
(42.7001 1.27405e-07 0)
(42.7001 1.27404e-07 0)
(42.7001 1.27404e-07 0)
(42.7001 1.2741e-07 0)
(42.7 1.27413e-07 0)
(42.7 1.27412e-07 0)
(42.7 1.27414e-07 0)
(42.7 1.27418e-07 0)
(42.7 1.27418e-07 0)
(42.7 1.27421e-07 0)
(42.7 1.2742e-07 0)
(42.7 1.27427e-07 0)
(42.7 1.27428e-07 0)
(42.7 1.27425e-07 0)
(42.7 1.27425e-07 0)
(42.7 1.27426e-07 0)
(42.7 1.27426e-07 0)
(42.7 1.27431e-07 0)
(42.7 1.27433e-07 0)
(42.7 1.27433e-07 0)
(42.7 1.27432e-07 0)
(42.7 1.27428e-07 0)
(42.7 1.27429e-07 0)
(42.7 1.27431e-07 0)
(42.7 1.27428e-07 0)
(42.7 1.27431e-07 0)
(42.7 1.2743e-07 0)
(42.7 1.2743e-07 0)
(42.7 1.27431e-07 0)
(42.7 1.27433e-07 0)
(42.7 1.27434e-07 0)
(42.7 1.27433e-07 0)
(42.7 1.27435e-07 0)
(42.7 1.27431e-07 0)
(42.7 1.27428e-07 0)
(42.7 1.27425e-07 0)
(42.7 1.27429e-07 0)
(42.7 1.27428e-07 0)
(42.7 1.27428e-07 0)
(42.7 1.27427e-07 0)
(42.7 1.27433e-07 0)
(42.7 1.2743e-07 0)
(42.7 1.27427e-07 0)
(42.7 1.27427e-07 0)
(42.7 1.27431e-07 0)
(42.7 1.27422e-07 0)
(42.7 1.27429e-07 0)
(42.7 1.27432e-07 0)
(42.7 1.2743e-07 0)
(42.7 1.27434e-07 0)
(42.7 1.27426e-07 0)
(42.7 1.27426e-07 0)
(42.7 1.27426e-07 0)
(42.7 1.2743e-07 0)
(42.7 1.27434e-07 0)
(42.7 1.27431e-07 0)
(42.7 1.27435e-07 0)
(42.7 1.27431e-07 0)
(42.7 1.27431e-07 0)
(42.7 1.27433e-07 0)
(42.7 1.2743e-07 0)
(42.7 1.27427e-07 0)
(42.7 1.27423e-07 0)
(42.7 1.2742e-07 0)
(42.7 1.2743e-07 0)
(42.7 1.27434e-07 0)
(42.7 1.27429e-07 0)
(42.7 1.27432e-07 0)
(42.7 1.27431e-07 0)
(42.7 1.27428e-07 0)
(42.7 1.27435e-07 0)
(42.7 1.27434e-07 0)
(42.7 1.27446e-07 0)
(42.6999 1.27457e-07 0)
(42.6999 1.2747e-07 0)
(42.6999 1.27497e-07 0)
(42.6998 1.27538e-07 0)
(42.6996 1.27602e-07 0)
(42.6993 1.27695e-07 0)
(42.699 1.27839e-07 0)
(42.6984 1.28046e-07 0)
(42.6974 1.28354e-07 0)
(42.6961 1.28781e-07 0)
(42.6941 1.29384e-07 0)
(42.6912 1.30194e-07 0)
(42.687 1.31251e-07 0)
(42.6812 1.32609e-07 0)
(42.6733 1.34298e-07 0)
(42.6627 1.36318e-07 0)
(42.6487 1.38619e-07 0)
(42.6307 1.41078e-07 0)
(42.608 1.43517e-07 0)
(42.5802 1.45618e-07 0)
(42.5469 1.46959e-07 0)
(42.5083 1.46996e-07 0)
(42.4648 1.451e-07 0)
(42.4176 1.406e-07 0)
(42.3682 1.32873e-07 0)
(42.3189 1.21443e-07 0)
(42.2725 1.06122e-07 0)
(42.2321 8.71241e-08 0)
(42.2006 6.5061e-08 0)
(42.1809 3.99091e-08 0)
(42.1748 1.23452e-08 0)
(42.1828 -1.14857e-08 0)
(42.2053 -3.6065e-08 0)
(42.2413 -4.87761e-08 0)
(42.2884 -5.80374e-08 0)
(42.3433 -5.89473e-08 0)
(42.4018 -5.07918e-08 0)
(42.4601 -3.93959e-08 0)
(42.5145 -1.81756e-08 0)
(42.5621 6.5139e-09 0)
(42.601 2.76391e-08 0)
(42.6306 5.009e-08 0)
(42.6509 6.8648e-08 0)
(42.663 8.56076e-08 0)
(42.6685 9.88345e-08 0)
(42.6692 1.05553e-07 0)
(42.6666 1.14458e-07 0)
(42.6621 1.173e-07 0)
(42.6568 1.18667e-07 0)
(42.6514 1.19384e-07 0)
(42.6463 1.17738e-07 0)
(42.6417 1.16989e-07 0)
(42.6378 1.15356e-07 0)
(42.6345 1.13904e-07 0)
(42.6317 1.13353e-07 0)
(42.6293 1.11615e-07 0)
(42.6272 1.10767e-07 0)
(42.6254 1.10279e-07 0)
(42.6238 1.09221e-07 0)
(42.6225 1.08961e-07 0)
(42.6212 1.08221e-07 0)
(42.6202 1.07589e-07 0)
(42.6192 1.07613e-07 0)
(42.6183 1.06938e-07 0)
(42.6176 1.06894e-07 0)
(42.617 1.08125e-07 0)
(42.6164 1.17107e-07 0)
(42.616 1.43391e-07 0)
(42.6156 3.17225e-07 0)
(42.6153 1.00661e-06 0)
(42.6151 5.43717e-06 0)
(42.6148 2.52838e-05 0)
(42.6137 0.000127978 0)
(42.6083 0.000631055 0)
(42.5822 0.00309531 0)
(42.4586 0.0149254 0)
(42.0141 0.0760903 0)
(38.2984 0.308688 0)
(42.7001 0.000152975 0)
(42.7003 8.70942e-05 0)
(42.7004 6.00005e-05 0)
(42.7005 4.06135e-05 0)
(42.7005 2.36561e-05 0)
(42.7005 1.2176e-05 0)
(42.7005 5.67867e-06 0)
(42.7005 2.44082e-06 0)
(42.7005 9.96542e-07 0)
(42.7005 4.14427e-07 0)
(42.7005 1.99835e-07 0)
(42.7005 1.26777e-07 0)
(42.7005 1.03642e-07 0)
(42.7005 9.67879e-08 0)
(42.7005 9.48755e-08 0)
(42.7004 9.43737e-08 0)
(42.7004 9.4247e-08 0)
(42.7004 9.42124e-08 0)
(42.7004 9.42096e-08 0)
(42.7004 9.4211e-08 0)
(42.7004 9.42134e-08 0)
(42.7004 9.42118e-08 0)
(42.7004 9.42124e-08 0)
(42.7004 9.42209e-08 0)
(42.7003 9.42171e-08 0)
(42.7003 9.422e-08 0)
(42.7003 9.42198e-08 0)
(42.7003 9.42209e-08 0)
(42.7003 9.42247e-08 0)
(42.7003 9.42235e-08 0)
(42.7003 9.42255e-08 0)
(42.7003 9.42289e-08 0)
(42.7003 9.42282e-08 0)
(42.7002 9.42336e-08 0)
(42.7002 9.42336e-08 0)
(42.7002 9.42354e-08 0)
(42.7002 9.42347e-08 0)
(42.7002 9.42323e-08 0)
(42.7002 9.42395e-08 0)
(42.7002 9.42402e-08 0)
(42.7002 9.42399e-08 0)
(42.7002 9.42414e-08 0)
(42.7002 9.42465e-08 0)
(42.7001 9.42467e-08 0)
(42.7001 9.42507e-08 0)
(42.7001 9.42485e-08 0)
(42.7001 9.4249e-08 0)
(42.7001 9.42517e-08 0)
(42.7001 9.42553e-08 0)
(42.7001 9.42575e-08 0)
(42.7001 9.42607e-08 0)
(42.7001 9.42603e-08 0)
(42.7001 9.42665e-08 0)
(42.7 9.42633e-08 0)
(42.7 9.42683e-08 0)
(42.7 9.42654e-08 0)
(42.7 9.42719e-08 0)
(42.7 9.42718e-08 0)
(42.7 9.42716e-08 0)
(42.7 9.42771e-08 0)
(42.7 9.42735e-08 0)
(42.7 9.42779e-08 0)
(42.7 9.42781e-08 0)
(42.7 9.42807e-08 0)
(42.7 9.42844e-08 0)
(42.7 9.42787e-08 0)
(42.7 9.42847e-08 0)
(42.7 9.42803e-08 0)
(42.7 9.42793e-08 0)
(42.7 9.42836e-08 0)
(42.7 9.42793e-08 0)
(42.7 9.42792e-08 0)
(42.7 9.42838e-08 0)
(42.7 9.42847e-08 0)
(42.7 9.42795e-08 0)
(42.7 9.42806e-08 0)
(42.7 9.42843e-08 0)
(42.7 9.42822e-08 0)
(42.7 9.42816e-08 0)
(42.7 9.42809e-08 0)
(42.7 9.42791e-08 0)
(42.7 9.42799e-08 0)
(42.7 9.42807e-08 0)
(42.7 9.42809e-08 0)
(42.7 9.42812e-08 0)
(42.7 9.42848e-08 0)
(42.7 9.42841e-08 0)
(42.7 9.42815e-08 0)
(42.7 9.4279e-08 0)
(42.7 9.4282e-08 0)
(42.7 9.42813e-08 0)
(42.7 9.42828e-08 0)
(42.7 9.42838e-08 0)
(42.7 9.42844e-08 0)
(42.7 9.42806e-08 0)
(42.7 9.42821e-08 0)
(42.7 9.42822e-08 0)
(42.7 9.42778e-08 0)
(42.7 9.42784e-08 0)
(42.7 9.42823e-08 0)
(42.7 9.42816e-08 0)
(42.7 9.42824e-08 0)
(42.7 9.4282e-08 0)
(42.7 9.42828e-08 0)
(42.7 9.42797e-08 0)
(42.7 9.4278e-08 0)
(42.7 9.42802e-08 0)
(42.7 9.42806e-08 0)
(42.7 9.42817e-08 0)
(42.7 9.42846e-08 0)
(42.7 9.42862e-08 0)
(42.7 9.42874e-08 0)
(42.7 9.42826e-08 0)
(42.7 9.42836e-08 0)
(42.7 9.42817e-08 0)
(42.7 9.42831e-08 0)
(42.7 9.42838e-08 0)
(42.7 9.42827e-08 0)
(42.7 9.42847e-08 0)
(42.7 9.42887e-08 0)
(42.7 9.4291e-08 0)
(42.7 9.4295e-08 0)
(42.6999 9.43e-08 0)
(42.6999 9.43159e-08 0)
(42.6999 9.43362e-08 0)
(42.6998 9.43714e-08 0)
(42.6996 9.44212e-08 0)
(42.6993 9.45003e-08 0)
(42.699 9.46143e-08 0)
(42.6984 9.47842e-08 0)
(42.6974 9.50253e-08 0)
(42.6961 9.53627e-08 0)
(42.6941 9.58295e-08 0)
(42.6912 9.64455e-08 0)
(42.687 9.72463e-08 0)
(42.6813 9.82442e-08 0)
(42.6733 9.94456e-08 0)
(42.6627 1.00825e-07 0)
(42.6487 1.02298e-07 0)
(42.6307 1.03747e-07 0)
(42.608 1.04946e-07 0)
(42.5802 1.05601e-07 0)
(42.5469 1.05311e-07 0)
(42.5083 1.03607e-07 0)
(42.4648 9.99756e-08 0)
(42.4176 9.38817e-08 0)
(42.3682 8.49201e-08 0)
(42.3189 7.2815e-08 0)
(42.2725 5.75974e-08 0)
(42.2321 3.96705e-08 0)
(42.2006 1.98553e-08 0)
(42.1809 -3.48399e-10 0)
(42.1748 -1.46867e-08 0)
(42.1828 -2.68091e-08 0)
(42.2053 -4.63084e-08 0)
(42.2413 -5.38572e-08 0)
(42.2884 -5.74958e-08 0)
(42.3433 -5.38614e-08 0)
(42.4018 -4.27531e-08 0)
(42.4601 -2.86356e-08 0)
(42.5145 -7.03435e-09 0)
(42.5621 1.52759e-08 0)
(42.601 3.45057e-08 0)
(42.6306 5.39092e-08 0)
(42.6509 6.91122e-08 0)
(42.663 8.22501e-08 0)
(42.6685 9.17139e-08 0)
(42.6692 9.5451e-08 0)
(42.6666 1.00767e-07 0)
(42.6621 1.013e-07 0)
(42.6568 1.00681e-07 0)
(42.6514 9.94833e-08 0)
(42.6463 9.66709e-08 0)
(42.6417 9.47029e-08 0)
(42.6378 9.23823e-08 0)
(42.6345 9.02722e-08 0)
(42.6317 8.88698e-08 0)
(42.6293 8.68275e-08 0)
(42.6272 8.55699e-08 0)
(42.6254 8.4572e-08 0)
(42.6238 8.32324e-08 0)
(42.6225 8.25566e-08 0)
(42.6212 8.16381e-08 0)
(42.6202 8.08246e-08 0)
(42.6192 8.04651e-08 0)
(42.6183 7.96838e-08 0)
(42.6176 7.9737e-08 0)
(42.617 8.20579e-08 0)
(42.6164 9.65508e-08 0)
(42.616 1.54639e-07 0)
(42.6156 4.83919e-07 0)
(42.6153 1.99577e-06 0)
(42.6151 1.04037e-05 0)
(42.6148 5.04949e-05 0)
(42.6138 0.000253696 0)
(42.6085 0.00125547 0)
(42.5829 0.00615188 0)
(42.4618 0.0297037 0)
(42.0273 0.150736 0)
(38.4846 0.596691 0)
(42.7001 0.000110728 0)
(42.7003 7.89407e-05 0)
(42.7004 5.59592e-05 0)
(42.7005 3.85066e-05 0)
(42.7005 2.2838e-05 0)
(42.7005 1.18905e-05 0)
(42.7005 5.59984e-06 0)
(42.7005 2.42884e-06 0)
(42.7005 9.96875e-07 0)
(42.7005 4.12882e-07 0)
(42.7005 1.95353e-07 0)
(42.7005 1.20582e-07 0)
(42.7005 9.66693e-08 0)
(42.7005 8.95131e-08 0)
(42.7005 8.74934e-08 0)
(42.7004 8.69557e-08 0)
(42.7004 8.68224e-08 0)
(42.7004 8.67888e-08 0)
(42.7004 8.67833e-08 0)
(42.7004 8.67843e-08 0)
(42.7004 8.67853e-08 0)
(42.7004 8.67861e-08 0)
(42.7004 8.67889e-08 0)
(42.7004 8.67885e-08 0)
(42.7003 8.67875e-08 0)
(42.7003 8.67908e-08 0)
(42.7003 8.67893e-08 0)
(42.7003 8.67935e-08 0)
(42.7003 8.67935e-08 0)
(42.7003 8.67949e-08 0)
(42.7003 8.67953e-08 0)
(42.7003 8.67982e-08 0)
(42.7003 8.67992e-08 0)
(42.7002 8.6801e-08 0)
(42.7002 8.68017e-08 0)
(42.7002 8.68012e-08 0)
(42.7002 8.68013e-08 0)
(42.7002 8.68009e-08 0)
(42.7002 8.68007e-08 0)
(42.7002 8.68014e-08 0)
(42.7002 8.68024e-08 0)
(42.7002 8.68046e-08 0)
(42.7002 8.68098e-08 0)
(42.7001 8.6811e-08 0)
(42.7001 8.68108e-08 0)
(42.7001 8.6813e-08 0)
(42.7001 8.68145e-08 0)
(42.7001 8.68161e-08 0)
(42.7001 8.68169e-08 0)
(42.7001 8.68154e-08 0)
(42.7001 8.68185e-08 0)
(42.7001 8.68186e-08 0)
(42.7001 8.6822e-08 0)
(42.7 8.6822e-08 0)
(42.7 8.68246e-08 0)
(42.7 8.68227e-08 0)
(42.7 8.68262e-08 0)
(42.7 8.68242e-08 0)
(42.7 8.68275e-08 0)
(42.7 8.6827e-08 0)
(42.7 8.68294e-08 0)
(42.7 8.68316e-08 0)
(42.7 8.68295e-08 0)
(42.7 8.68284e-08 0)
(42.7 8.68286e-08 0)
(42.7 8.68287e-08 0)
(42.7 8.68316e-08 0)
(42.7 8.68345e-08 0)
(42.7 8.68365e-08 0)
(42.7 8.68364e-08 0)
(42.7 8.68331e-08 0)
(42.7 8.68341e-08 0)
(42.7 8.68338e-08 0)
(42.7 8.68325e-08 0)
(42.7 8.68325e-08 0)
(42.7 8.68331e-08 0)
(42.7 8.68336e-08 0)
(42.7 8.68318e-08 0)
(42.7 8.68307e-08 0)
(42.7 8.68342e-08 0)
(42.7 8.68372e-08 0)
(42.7 8.68357e-08 0)
(42.7 8.68322e-08 0)
(42.7 8.68319e-08 0)
(42.7 8.68288e-08 0)
(42.7 8.6831e-08 0)
(42.7 8.68332e-08 0)
(42.7 8.68331e-08 0)
(42.7 8.68324e-08 0)
(42.7 8.68353e-08 0)
(42.7 8.68343e-08 0)
(42.7 8.68343e-08 0)
(42.7 8.68359e-08 0)
(42.7 8.68339e-08 0)
(42.7 8.68326e-08 0)
(42.7 8.68352e-08 0)
(42.7 8.68345e-08 0)
(42.7 8.68328e-08 0)
(42.7 8.68363e-08 0)
(42.7 8.68329e-08 0)
(42.7 8.6833e-08 0)
(42.7 8.68303e-08 0)
(42.7 8.68321e-08 0)
(42.7 8.68332e-08 0)
(42.7 8.68321e-08 0)
(42.7 8.6833e-08 0)
(42.7 8.6834e-08 0)
(42.7 8.68323e-08 0)
(42.7 8.68374e-08 0)
(42.7 8.68369e-08 0)
(42.7 8.68344e-08 0)
(42.7 8.68304e-08 0)
(42.7 8.68302e-08 0)
(42.7 8.68332e-08 0)
(42.7 8.68353e-08 0)
(42.7 8.68325e-08 0)
(42.7 8.68328e-08 0)
(42.7 8.68327e-08 0)
(42.7 8.68363e-08 0)
(42.7 8.68382e-08 0)
(42.7 8.68378e-08 0)
(42.7 8.6843e-08 0)
(42.6999 8.68503e-08 0)
(42.6999 8.68637e-08 0)
(42.6999 8.68777e-08 0)
(42.6998 8.68998e-08 0)
(42.6996 8.69355e-08 0)
(42.6993 8.69914e-08 0)
(42.699 8.70748e-08 0)
(42.6984 8.71969e-08 0)
(42.6974 8.73726e-08 0)
(42.6961 8.76144e-08 0)
(42.6941 8.79515e-08 0)
(42.6912 8.83981e-08 0)
(42.687 8.89792e-08 0)
(42.6813 8.97078e-08 0)
(42.6733 9.05906e-08 0)
(42.6627 9.16139e-08 0)
(42.6487 9.27201e-08 0)
(42.6307 9.3828e-08 0)
(42.608 9.47917e-08 0)
(42.5802 9.54074e-08 0)
(42.5469 9.54057e-08 0)
(42.5083 9.44684e-08 0)
(42.4648 9.22392e-08 0)
(42.4176 8.83654e-08 0)
(42.3682 8.25727e-08 0)
(42.3189 7.46878e-08 0)
(42.2725 6.47469e-08 0)
(42.2321 5.30556e-08 0)
(42.2006 4.02507e-08 0)
(42.1809 2.75032e-08 0)
(42.1748 1.92669e-08 0)
(42.1828 9.73845e-09 0)
(42.2053 -5.02511e-09 0)
(42.2413 -1.0844e-08 0)
(42.2884 -1.37441e-08 0)
(42.3433 -1.1919e-08 0)
(42.4018 -5.3009e-09 0)
(42.4601 3.30234e-09 0)
(42.5145 1.58645e-08 0)
(42.5621 2.67744e-08 0)
(42.601 3.95693e-08 0)
(42.6306 5.3073e-08 0)
(42.6509 6.33573e-08 0)
(42.663 7.25676e-08 0)
(42.6685 7.93703e-08 0)
(42.6692 8.20504e-08 0)
(42.6666 8.55691e-08 0)
(42.6621 8.62862e-08 0)
(42.6568 8.61278e-08 0)
(42.6514 8.55573e-08 0)
(42.6463 8.38058e-08 0)
(42.6417 8.27474e-08 0)
(42.6378 8.16065e-08 0)
(42.6345 8.04026e-08 0)
(42.6317 7.97065e-08 0)
(42.6293 7.87274e-08 0)
(42.6272 7.82136e-08 0)
(42.6254 7.78641e-08 0)
(42.6238 7.72092e-08 0)
(42.6225 7.70267e-08 0)
(42.6212 7.67514e-08 0)
(42.6202 7.64496e-08 0)
(42.6192 7.64424e-08 0)
(42.6183 7.63194e-08 0)
(42.6176 7.74453e-08 0)
(42.617 8.37237e-08 0)
(42.6164 1.16967e-07 0)
(42.616 2.70112e-07 0)
(42.6156 1.08122e-06 0)
(42.6153 5.04585e-06 0)
(42.6151 2.56721e-05 0)
(42.6149 0.000127378 0)
(42.6139 0.000637781 0)
(42.6092 0.00316107 0)
(42.5865 0.0154705 0)
(42.4805 0.0739574 0)
(42.1027 0.348784 0)
(39.4437 1.33127 0)
(42.7001 3.40885e-05 0)
(42.7003 2.32568e-05 0)
(42.7004 1.30983e-05 0)
(42.7005 8.06923e-06 0)
(42.7005 4.48008e-06 0)
(42.7005 2.18181e-06 0)
(42.7005 9.78732e-07 0)
(42.7005 4.13401e-07 0)
(42.7005 1.67924e-07 0)
(42.7005 7.0253e-08 0)
(42.7005 3.43961e-08 0)
(42.7005 2.20889e-08 0)
(42.7005 1.81108e-08 0)
(42.7005 1.68997e-08 0)
(42.7005 1.65488e-08 0)
(42.7004 1.64544e-08 0)
(42.7004 1.64308e-08 0)
(42.7004 1.64234e-08 0)
(42.7004 1.64196e-08 0)
(42.7004 1.64212e-08 0)
(42.7004 1.6421e-08 0)
(42.7004 1.64193e-08 0)
(42.7004 1.64199e-08 0)
(42.7004 1.64224e-08 0)
(42.7003 1.64213e-08 0)
(42.7003 1.64233e-08 0)
(42.7003 1.64223e-08 0)
(42.7003 1.64218e-08 0)
(42.7003 1.6423e-08 0)
(42.7003 1.64233e-08 0)
(42.7003 1.64239e-08 0)
(42.7003 1.64251e-08 0)
(42.7003 1.64251e-08 0)
(42.7002 1.64265e-08 0)
(42.7002 1.64266e-08 0)
(42.7002 1.64257e-08 0)
(42.7002 1.64268e-08 0)
(42.7002 1.64265e-08 0)
(42.7002 1.64263e-08 0)
(42.7002 1.64249e-08 0)
(42.7002 1.64259e-08 0)
(42.7002 1.64272e-08 0)
(42.7002 1.64276e-08 0)
(42.7001 1.64263e-08 0)
(42.7001 1.64291e-08 0)
(42.7001 1.64302e-08 0)
(42.7001 1.64294e-08 0)
(42.7001 1.6429e-08 0)
(42.7001 1.64286e-08 0)
(42.7001 1.64298e-08 0)
(42.7001 1.64312e-08 0)
(42.7001 1.64314e-08 0)
(42.7001 1.6433e-08 0)
(42.7 1.64324e-08 0)
(42.7 1.6434e-08 0)
(42.7 1.64347e-08 0)
(42.7 1.64349e-08 0)
(42.7 1.64336e-08 0)
(42.7 1.64356e-08 0)
(42.7 1.64355e-08 0)
(42.7 1.64357e-08 0)
(42.7 1.64359e-08 0)
(42.7 1.64372e-08 0)
(42.7 1.6438e-08 0)
(42.7 1.64399e-08 0)
(42.7 1.64366e-08 0)
(42.7 1.64378e-08 0)
(42.7 1.64376e-08 0)
(42.7 1.64383e-08 0)
(42.7 1.64367e-08 0)
(42.7 1.64358e-08 0)
(42.7 1.64361e-08 0)
(42.7 1.64388e-08 0)
(42.7 1.64382e-08 0)
(42.7 1.6437e-08 0)
(42.7 1.64366e-08 0)
(42.7 1.64369e-08 0)
(42.7 1.6436e-08 0)
(42.7 1.64371e-08 0)
(42.7 1.64361e-08 0)
(42.7 1.64367e-08 0)
(42.7 1.64375e-08 0)
(42.7 1.64363e-08 0)
(42.7 1.64371e-08 0)
(42.7 1.64369e-08 0)
(42.7 1.6437e-08 0)
(42.7 1.64358e-08 0)
(42.7 1.64362e-08 0)
(42.7 1.6434e-08 0)
(42.7 1.64367e-08 0)
(42.7 1.64365e-08 0)
(42.7 1.64346e-08 0)
(42.7 1.64352e-08 0)
(42.7 1.64388e-08 0)
(42.7 1.64365e-08 0)
(42.7 1.64372e-08 0)
(42.7 1.64365e-08 0)
(42.7 1.64341e-08 0)
(42.7 1.64354e-08 0)
(42.7 1.6437e-08 0)
(42.7 1.64366e-08 0)
(42.7 1.64355e-08 0)
(42.7 1.64379e-08 0)
(42.7 1.64373e-08 0)
(42.7 1.64355e-08 0)
(42.7 1.64342e-08 0)
(42.7 1.6436e-08 0)
(42.7 1.64342e-08 0)
(42.7 1.64358e-08 0)
(42.7 1.64368e-08 0)
(42.7 1.64373e-08 0)
(42.7 1.6437e-08 0)
(42.7 1.64361e-08 0)
(42.7 1.64362e-08 0)
(42.7 1.64372e-08 0)
(42.7 1.64368e-08 0)
(42.7 1.64367e-08 0)
(42.7 1.64375e-08 0)
(42.7 1.6436e-08 0)
(42.7 1.64356e-08 0)
(42.7 1.64355e-08 0)
(42.7 1.64387e-08 0)
(42.6999 1.64409e-08 0)
(42.6999 1.64448e-08 0)
(42.6999 1.64497e-08 0)
(42.6998 1.64575e-08 0)
(42.6996 1.64695e-08 0)
(42.6993 1.649e-08 0)
(42.699 1.65161e-08 0)
(42.6984 1.65566e-08 0)
(42.6974 1.6615e-08 0)
(42.6961 1.66977e-08 0)
(42.6941 1.68122e-08 0)
(42.6912 1.69661e-08 0)
(42.687 1.71605e-08 0)
(42.6813 1.74049e-08 0)
(42.6733 1.76991e-08 0)
(42.6627 1.80428e-08 0)
(42.6487 1.84134e-08 0)
(42.6307 1.87836e-08 0)
(42.608 1.91052e-08 0)
(42.5802 1.93077e-08 0)
(42.5469 1.92982e-08 0)
(42.5083 1.89681e-08 0)
(42.4648 1.81942e-08 0)
(42.4176 1.68529e-08 0)
(42.3682 1.48402e-08 0)
(42.3189 1.2082e-08 0)
(42.2725 8.56112e-09 0)
(42.2321 4.33008e-09 0)
(42.2006 -5.25162e-10 0)
(42.1809 -5.97269e-09 0)
(42.1748 -1.22691e-08 0)
(42.1828 -1.90858e-08 0)
(42.2053 -2.44754e-08 0)
(42.2413 -2.67685e-08 0)
(42.2884 -2.79117e-08 0)
(42.3433 -2.72854e-08 0)
(42.4018 -2.5144e-08 0)
(42.4601 -2.22438e-08 0)
(42.5145 -1.81927e-08 0)
(42.5621 -1.41444e-08 0)
(42.601 -9.40908e-09 0)
(42.6306 -4.68968e-09 0)
(42.6509 -7.94567e-10 0)
(42.663 2.45942e-09 0)
(42.6685 4.86591e-09 0)
(42.6692 6.1502e-09 0)
(42.6666 7.50141e-09 0)
(42.6621 7.98733e-09 0)
(42.6568 8.03296e-09 0)
(42.6514 8.0417e-09 0)
(42.6463 7.75486e-09 0)
(42.6417 7.56345e-09 0)
(42.6378 7.29816e-09 0)
(42.6345 7.13733e-09 0)
(42.6317 7.11156e-09 0)
(42.6293 6.95422e-09 0)
(42.6272 6.89428e-09 0)
(42.6254 6.97514e-09 0)
(42.6238 7.01115e-09 0)
(42.6225 7.12466e-09 0)
(42.6212 7.16554e-09 0)
(42.6202 7.26234e-09 0)
(42.6192 7.56875e-09 0)
(42.6183 8.09786e-09 0)
(42.6176 1.02936e-08 0)
(42.617 2.08491e-08 0)
(42.6164 7.40773e-08 0)
(42.616 3.34669e-07 0)
(42.6156 1.67807e-06 0)
(42.6153 8.36912e-06 0)
(42.6152 4.24444e-05 0)
(42.615 0.000212397 0)
(42.6146 0.00106398 0)
(42.6128 0.00528477 0)
(42.6035 0.0259405 0)
(42.558 0.124399 0)
(42.3863 0.57417 0)
(40.7921 2.1678 0)
(42.7001 -3.40885e-05 0)
(42.7003 -2.32568e-05 0)
(42.7004 -1.30983e-05 0)
(42.7005 -8.06923e-06 0)
(42.7005 -4.48008e-06 0)
(42.7005 -2.18181e-06 0)
(42.7005 -9.78734e-07 0)
(42.7005 -4.13403e-07 0)
(42.7005 -1.67924e-07 0)
(42.7005 -7.02524e-08 0)
(42.7005 -3.43944e-08 0)
(42.7005 -2.20864e-08 0)
(42.7005 -1.81098e-08 0)
(42.7005 -1.68967e-08 0)
(42.7005 -1.65481e-08 0)
(42.7004 -1.64531e-08 0)
(42.7004 -1.64275e-08 0)
(42.7004 -1.64226e-08 0)
(42.7004 -1.64195e-08 0)
(42.7004 -1.64196e-08 0)
(42.7004 -1.64207e-08 0)
(42.7004 -1.64192e-08 0)
(42.7004 -1.64188e-08 0)
(42.7004 -1.64197e-08 0)
(42.7003 -1.64205e-08 0)
(42.7003 -1.64217e-08 0)
(42.7003 -1.64242e-08 0)
(42.7003 -1.64253e-08 0)
(42.7003 -1.64249e-08 0)
(42.7003 -1.64244e-08 0)
(42.7003 -1.64256e-08 0)
(42.7003 -1.64239e-08 0)
(42.7003 -1.6424e-08 0)
(42.7002 -1.6426e-08 0)
(42.7002 -1.64263e-08 0)
(42.7002 -1.64269e-08 0)
(42.7002 -1.64245e-08 0)
(42.7002 -1.64268e-08 0)
(42.7002 -1.6429e-08 0)
(42.7002 -1.64281e-08 0)
(42.7002 -1.64271e-08 0)
(42.7002 -1.64268e-08 0)
(42.7002 -1.64253e-08 0)
(42.7001 -1.64273e-08 0)
(42.7001 -1.64274e-08 0)
(42.7001 -1.64279e-08 0)
(42.7001 -1.64287e-08 0)
(42.7001 -1.64283e-08 0)
(42.7001 -1.64283e-08 0)
(42.7001 -1.64313e-08 0)
(42.7001 -1.64302e-08 0)
(42.7001 -1.64332e-08 0)
(42.7001 -1.64318e-08 0)
(42.7 -1.64335e-08 0)
(42.7 -1.64334e-08 0)
(42.7 -1.64353e-08 0)
(42.7 -1.64333e-08 0)
(42.7 -1.64352e-08 0)
(42.7 -1.64348e-08 0)
(42.7 -1.64361e-08 0)
(42.7 -1.64355e-08 0)
(42.7 -1.64367e-08 0)
(42.7 -1.64371e-08 0)
(42.7 -1.64368e-08 0)
(42.7 -1.64368e-08 0)
(42.7 -1.64372e-08 0)
(42.7 -1.64377e-08 0)
(42.7 -1.64369e-08 0)
(42.7 -1.64362e-08 0)
(42.7 -1.64355e-08 0)
(42.7 -1.64381e-08 0)
(42.7 -1.64363e-08 0)
(42.7 -1.64364e-08 0)
(42.7 -1.64368e-08 0)
(42.7 -1.64383e-08 0)
(42.7 -1.64367e-08 0)
(42.7 -1.64361e-08 0)
(42.7 -1.64375e-08 0)
(42.7 -1.64379e-08 0)
(42.7 -1.64372e-08 0)
(42.7 -1.64362e-08 0)
(42.7 -1.6436e-08 0)
(42.7 -1.64371e-08 0)
(42.7 -1.64368e-08 0)
(42.7 -1.64373e-08 0)
(42.7 -1.64378e-08 0)
(42.7 -1.64365e-08 0)
(42.7 -1.64367e-08 0)
(42.7 -1.64365e-08 0)
(42.7 -1.64361e-08 0)
(42.7 -1.64366e-08 0)
(42.7 -1.6435e-08 0)
(42.7 -1.64372e-08 0)
(42.7 -1.64378e-08 0)
(42.7 -1.64382e-08 0)
(42.7 -1.64371e-08 0)
(42.7 -1.64365e-08 0)
(42.7 -1.64398e-08 0)
(42.7 -1.64377e-08 0)
(42.7 -1.64368e-08 0)
(42.7 -1.64365e-08 0)
(42.7 -1.64363e-08 0)
(42.7 -1.64361e-08 0)
(42.7 -1.64369e-08 0)
(42.7 -1.6438e-08 0)
(42.7 -1.64359e-08 0)
(42.7 -1.64367e-08 0)
(42.7 -1.64379e-08 0)
(42.7 -1.64377e-08 0)
(42.7 -1.64361e-08 0)
(42.7 -1.64367e-08 0)
(42.7 -1.64369e-08 0)
(42.7 -1.64376e-08 0)
(42.7 -1.64367e-08 0)
(42.7 -1.64376e-08 0)
(42.7 -1.64376e-08 0)
(42.7 -1.64375e-08 0)
(42.7 -1.64363e-08 0)
(42.7 -1.64361e-08 0)
(42.7 -1.64361e-08 0)
(42.7 -1.64379e-08 0)
(42.7 -1.64386e-08 0)
(42.6999 -1.64396e-08 0)
(42.6999 -1.64424e-08 0)
(42.6999 -1.64485e-08 0)
(42.6998 -1.64565e-08 0)
(42.6996 -1.64687e-08 0)
(42.6993 -1.64874e-08 0)
(42.699 -1.65163e-08 0)
(42.6984 -1.65565e-08 0)
(42.6974 -1.66152e-08 0)
(42.6961 -1.66994e-08 0)
(42.6941 -1.68129e-08 0)
(42.6912 -1.69628e-08 0)
(42.687 -1.716e-08 0)
(42.6813 -1.74046e-08 0)
(42.6733 -1.77e-08 0)
(42.6627 -1.80418e-08 0)
(42.6487 -1.84128e-08 0)
(42.6307 -1.87827e-08 0)
(42.608 -1.91042e-08 0)
(42.5802 -1.93059e-08 0)
(42.5469 -1.92986e-08 0)
(42.5083 -1.89677e-08 0)
(42.4648 -1.81942e-08 0)
(42.4176 -1.68543e-08 0)
(42.3682 -1.484e-08 0)
(42.3189 -1.20818e-08 0)
(42.2725 -8.56339e-09 0)
(42.2321 -4.32911e-09 0)
(42.2006 5.25927e-10 0)
(42.1809 5.97275e-09 0)
(42.1748 1.22687e-08 0)
(42.1828 1.90838e-08 0)
(42.2053 2.44746e-08 0)
(42.2413 2.67693e-08 0)
(42.2884 2.79122e-08 0)
(42.3433 2.72871e-08 0)
(42.4018 2.51449e-08 0)
(42.4601 2.22426e-08 0)
(42.5145 1.81912e-08 0)
(42.5621 1.41425e-08 0)
(42.601 9.40795e-09 0)
(42.6306 4.68943e-09 0)
(42.6509 7.93875e-10 0)
(42.663 -2.45831e-09 0)
(42.6685 -4.86392e-09 0)
(42.6692 -6.1515e-09 0)
(42.6666 -7.50324e-09 0)
(42.6621 -7.98794e-09 0)
(42.6568 -8.03435e-09 0)
(42.6514 -8.0425e-09 0)
(42.6463 -7.7541e-09 0)
(42.6417 -7.56473e-09 0)
(42.6378 -7.29837e-09 0)
(42.6345 -7.13542e-09 0)
(42.6317 -7.11019e-09 0)
(42.6293 -6.95176e-09 0)
(42.6272 -6.89153e-09 0)
(42.6254 -6.97358e-09 0)
(42.6238 -7.01012e-09 0)
(42.6225 -7.12344e-09 0)
(42.6212 -7.15979e-09 0)
(42.6202 -7.22558e-09 0)
(42.6192 -7.37431e-09 0)
(42.6183 -7.09579e-09 0)
(42.6176 -5.11965e-09 0)
(42.617 5.4739e-09 0)
(42.6164 5.98642e-08 0)
(42.616 3.22563e-07 0)
(42.6156 1.66204e-06 0)
(42.6154 8.3828e-06 0)
(42.6152 4.24371e-05 0)
(42.6152 0.000213209 0)
(42.6156 0.0010718 0)
(42.6173 0.00536129 0)
(42.6252 0.0266887 0)
(42.659 0.131504 0)
(42.7757 0.642282 0)
(43.3137 2.4141 0)
(42.7001 -0.000110728 0)
(42.7003 -7.89407e-05 0)
(42.7004 -5.59592e-05 0)
(42.7005 -3.85066e-05 0)
(42.7005 -2.2838e-05 0)
(42.7005 -1.18905e-05 0)
(42.7005 -5.59984e-06 0)
(42.7005 -2.42884e-06 0)
(42.7005 -9.96879e-07 0)
(42.7005 -4.12882e-07 0)
(42.7005 -1.95349e-07 0)
(42.7005 -1.20576e-07 0)
(42.7005 -9.6668e-08 0)
(42.7005 -8.95077e-08 0)
(42.7005 -8.74929e-08 0)
(42.7004 -8.69539e-08 0)
(42.7004 -8.68173e-08 0)
(42.7004 -8.67868e-08 0)
(42.7004 -8.67833e-08 0)
(42.7004 -8.67823e-08 0)
(42.7004 -8.67857e-08 0)
(42.7004 -8.6787e-08 0)
(42.7004 -8.67874e-08 0)
(42.7004 -8.67869e-08 0)
(42.7003 -8.67872e-08 0)
(42.7003 -8.67877e-08 0)
(42.7003 -8.6791e-08 0)
(42.7003 -8.67909e-08 0)
(42.7003 -8.67947e-08 0)
(42.7003 -8.67943e-08 0)
(42.7003 -8.67961e-08 0)
(42.7003 -8.67943e-08 0)
(42.7003 -8.67966e-08 0)
(42.7002 -8.67982e-08 0)
(42.7002 -8.68004e-08 0)
(42.7002 -8.68006e-08 0)
(42.7002 -8.67973e-08 0)
(42.7002 -8.67998e-08 0)
(42.7002 -8.68013e-08 0)
(42.7002 -8.68018e-08 0)
(42.7002 -8.68047e-08 0)
(42.7002 -8.68048e-08 0)
(42.7002 -8.68071e-08 0)
(42.7001 -8.68096e-08 0)
(42.7001 -8.68092e-08 0)
(42.7001 -8.68103e-08 0)
(42.7001 -8.68121e-08 0)
(42.7001 -8.68128e-08 0)
(42.7001 -8.68144e-08 0)
(42.7001 -8.68178e-08 0)
(42.7001 -8.68178e-08 0)
(42.7001 -8.68201e-08 0)
(42.7001 -8.68188e-08 0)
(42.7 -8.68202e-08 0)
(42.7 -8.6822e-08 0)
(42.7 -8.68234e-08 0)