/*--------------------------------*- C++ -*----------------------------------*\
| =========                 |                                                 |
| \\      /  F ield         | OpenFOAM: The Open Source CFD Toolbox           |
|  \\    /   O peration     | Version:  3.0.x                                 |
|   \\  /    A nd           | Web:      www.OpenFOAM.org                      |
|    \\/     M anipulation  |                                                 |
\*---------------------------------------------------------------------------*/
FoamFile
{
    version     2.0;
    format      ascii;
    class       volScalarField;
    location    "0.49995";
    object      p;
}
// * * * * * * * * * * * * * * * * * * * * * * * * * * * * * * * * * * * * * //

dimensions      [1 -1 -2 0 0 0 0];

internalField   nonuniform List<scalar> 
13800
(
1.80654e+07
1.80654e+07
1.80654e+07
1.80654e+07
1.80654e+07
1.80654e+07
1.80655e+07
1.80655e+07
1.80655e+07
1.80655e+07
1.80656e+07
1.80656e+07
1.80657e+07
1.80657e+07
1.80658e+07
1.80658e+07
1.80659e+07
1.8066e+07
1.80661e+07
1.80661e+07
1.80662e+07
1.80664e+07
1.80665e+07
1.80666e+07
1.80667e+07
1.80669e+07
1.8067e+07
1.80672e+07
1.80674e+07
1.80676e+07
1.80678e+07
1.8068e+07
1.80683e+07
1.80686e+07
1.80688e+07
1.80691e+07
1.80695e+07
1.80698e+07
1.80702e+07
1.80706e+07
1.8071e+07
1.80714e+07
1.80719e+07
1.80724e+07
1.80729e+07
1.80735e+07
1.8074e+07
1.80746e+07
1.80753e+07
1.8076e+07
1.80767e+07
1.80774e+07
1.80782e+07
1.8079e+07
1.80799e+07
1.80808e+07
1.80817e+07
1.80827e+07
1.80837e+07
1.80848e+07
1.80859e+07
1.80871e+07
1.80883e+07
1.80896e+07
1.80909e+07
1.80922e+07
1.80936e+07
1.80951e+07
1.80966e+07
1.80982e+07
1.80998e+07
1.81015e+07
1.81032e+07
1.8105e+07
1.81068e+07
1.81087e+07
1.81107e+07
1.81127e+07
1.81148e+07
1.8117e+07
1.81192e+07
1.81215e+07
1.81238e+07
1.81263e+07
1.81288e+07
1.81313e+07
1.81339e+07
1.81366e+07
1.81394e+07
1.81422e+07
1.81451e+07
1.81481e+07
1.81512e+07
1.81543e+07
1.81575e+07
1.81608e+07
1.81642e+07
1.81676e+07
1.81712e+07
1.81748e+07
1.81785e+07
1.81822e+07
1.81861e+07
1.819e+07
1.81941e+07
1.81982e+07
1.82024e+07
1.82067e+07
1.82111e+07
1.82156e+07
1.82201e+07
1.82248e+07
1.82295e+07
1.82344e+07
1.82393e+07
1.82444e+07
1.82495e+07
1.82547e+07
1.82601e+07
1.82655e+07
1.8271e+07
1.82767e+07
1.82824e+07
1.82883e+07
1.82942e+07
1.83003e+07
1.83065e+07
1.83127e+07
1.83191e+07
1.83256e+07
1.83322e+07
1.83389e+07
1.83458e+07
1.83527e+07
1.83598e+07
1.83669e+07
1.83742e+07
1.83816e+07
1.83892e+07
1.83968e+07
1.84046e+07
1.84124e+07
1.84204e+07
1.84286e+07
1.84368e+07
1.84452e+07
1.84537e+07
1.84623e+07
1.8471e+07
1.84799e+07
1.84888e+07
1.8498e+07
1.85072e+07
1.85165e+07
1.8526e+07
1.85356e+07
1.85454e+07
1.85552e+07
1.85652e+07
1.85753e+07
1.85855e+07
1.85959e+07
1.86064e+07
1.8617e+07
1.86277e+07
1.86386e+07
1.86496e+07
1.86606e+07
1.86719e+07
1.86832e+07
1.86947e+07
1.87062e+07
1.87179e+07
1.87297e+07
1.87417e+07
1.87537e+07
1.87658e+07
1.87781e+07
1.87905e+07
1.88029e+07
1.88155e+07
1.88282e+07
1.8841e+07
1.88539e+07
1.88669e+07
1.888e+07
1.88931e+07
1.89064e+07
1.89197e+07
1.89332e+07
1.89467e+07
1.89603e+07
1.8974e+07
1.89878e+07
1.90016e+07
1.90155e+07
1.90295e+07
1.90437e+07
1.90584e+07
1.90738e+07
1.80654e+07
1.80654e+07
1.80654e+07
1.80654e+07
1.80654e+07
1.80654e+07
1.80655e+07
1.80655e+07
1.80655e+07
1.80655e+07
1.80656e+07
1.80656e+07
1.80657e+07
1.80657e+07
1.80658e+07
1.80658e+07
1.80659e+07
1.8066e+07
1.80661e+07
1.80661e+07
1.80662e+07
1.80664e+07
1.80665e+07
1.80666e+07
1.80667e+07
1.80669e+07
1.8067e+07
1.80672e+07
1.80674e+07
1.80676e+07
1.80678e+07
1.8068e+07
1.80683e+07
1.80686e+07
1.80688e+07
1.80691e+07
1.80695e+07
1.80698e+07
1.80702e+07
1.80706e+07
1.8071e+07
1.80714e+07
1.80719e+07
1.80724e+07
1.80729e+07
1.80735e+07
1.8074e+07
1.80746e+07
1.80753e+07
1.8076e+07
1.80767e+07
1.80774e+07
1.80782e+07
1.8079e+07
1.80799e+07
1.80808e+07
1.80817e+07
1.80827e+07
1.80837e+07
1.80848e+07
1.80859e+07
1.80871e+07
1.80883e+07
1.80896e+07
1.80909e+07
1.80922e+07
1.80936e+07
1.80951e+07
1.80966e+07
1.80982e+07
1.80998e+07
1.81015e+07
1.81032e+07
1.8105e+07
1.81068e+07
1.81087e+07
1.81107e+07
1.81127e+07
1.81148e+07
1.8117e+07
1.81192e+07
1.81215e+07
1.81238e+07
1.81263e+07
1.81288e+07
1.81313e+07
1.81339e+07
1.81366e+07
1.81394e+07
1.81422e+07
1.81451e+07
1.81481e+07
1.81512e+07
1.81543e+07
1.81575e+07
1.81608e+07
1.81642e+07
1.81676e+07
1.81712e+07
1.81748e+07
1.81785e+07
1.81822e+07
1.81861e+07
1.819e+07
1.81941e+07
1.81982e+07
1.82024e+07
1.82067e+07
1.82111e+07
1.82156e+07
1.82201e+07
1.82248e+07
1.82295e+07
1.82344e+07
1.82393e+07
1.82444e+07
1.82495e+07
1.82547e+07
1.82601e+07
1.82655e+07
1.8271e+07
1.82767e+07
1.82824e+07
1.82883e+07
1.82942e+07
1.83003e+07
1.83065e+07
1.83127e+07
1.83191e+07
1.83256e+07
1.83322e+07
1.83389e+07
1.83458e+07
1.83527e+07
1.83598e+07
1.83669e+07
1.83742e+07
1.83816e+07
1.83892e+07
1.83968e+07
1.84046e+07
1.84124e+07
1.84204e+07
1.84286e+07
1.84368e+07
1.84452e+07
1.84537e+07
1.84623e+07
1.8471e+07
1.84799e+07
1.84888e+07
1.8498e+07
1.85072e+07
1.85165e+07
1.8526e+07
1.85356e+07
1.85454e+07
1.85552e+07
1.85652e+07
1.85753e+07
1.85855e+07
1.85959e+07
1.86064e+07
1.8617e+07
1.86277e+07
1.86386e+07
1.86496e+07
1.86606e+07
1.86719e+07
1.86832e+07
1.86947e+07
1.87062e+07
1.87179e+07
1.87297e+07
1.87417e+07
1.87537e+07
1.87658e+07
1.87781e+07
1.87905e+07
1.88029e+07
1.88155e+07
1.88282e+07
1.8841e+07
1.88539e+07
1.88669e+07
1.888e+07
1.88931e+07
1.89064e+07
1.89197e+07
1.89332e+07
1.89467e+07
1.89603e+07
1.8974e+07
1.89878e+07
1.90016e+07
1.90155e+07
1.90295e+07
1.90437e+07
1.90584e+07
1.90738e+07
1.80654e+07
1.80654e+07
1.80654e+07
1.80654e+07
1.80654e+07
1.80654e+07
1.80655e+07
1.80655e+07
1.80655e+07
1.80655e+07
1.80656e+07
1.80656e+07
1.80657e+07
1.80657e+07
1.80658e+07
1.80658e+07
1.80659e+07
1.8066e+07
1.80661e+07
1.80661e+07
1.80662e+07
1.80664e+07
1.80665e+07
1.80666e+07
1.80667e+07
1.80669e+07
1.8067e+07
1.80672e+07
1.80674e+07
1.80676e+07
1.80678e+07
1.8068e+07
1.80683e+07
1.80686e+07
1.80688e+07
1.80691e+07
1.80695e+07
1.80698e+07
1.80702e+07
1.80706e+07
1.8071e+07
1.80714e+07
1.80719e+07
1.80724e+07
1.80729e+07
1.80735e+07
1.8074e+07
1.80746e+07
1.80753e+07
1.8076e+07
1.80767e+07
1.80774e+07
1.80782e+07
1.8079e+07
1.80799e+07
1.80808e+07
1.80817e+07
1.80827e+07
1.80837e+07
1.80848e+07
1.80859e+07
1.80871e+07
1.80883e+07
1.80896e+07
1.80909e+07
1.80922e+07
1.80936e+07
1.80951e+07
1.80966e+07
1.80982e+07
1.80998e+07
1.81015e+07
1.81032e+07
1.8105e+07
1.81068e+07
1.81087e+07
1.81107e+07
1.81127e+07
1.81148e+07
1.8117e+07
1.81192e+07
1.81215e+07
1.81238e+07
1.81263e+07
1.81288e+07
1.81313e+07
1.81339e+07
1.81366e+07
1.81394e+07
1.81422e+07
1.81451e+07
1.81481e+07
1.81512e+07
1.81543e+07
1.81575e+07
1.81608e+07
1.81642e+07
1.81676e+07
1.81712e+07
1.81748e+07
1.81785e+07
1.81822e+07
1.81861e+07
1.819e+07
1.81941e+07
1.81982e+07
1.82024e+07
1.82067e+07
1.82111e+07
1.82156e+07
1.82201e+07
1.82248e+07
1.82295e+07
1.82344e+07
1.82393e+07
1.82444e+07
1.82495e+07
1.82547e+07
1.82601e+07
1.82655e+07
1.8271e+07
1.82767e+07
1.82824e+07
1.82883e+07
1.82942e+07
1.83003e+07
1.83065e+07
1.83127e+07
1.83191e+07
1.83256e+07
1.83322e+07
1.83389e+07
1.83458e+07
1.83527e+07
1.83598e+07
1.83669e+07
1.83742e+07
1.83816e+07
1.83892e+07
1.83968e+07
1.84046e+07
1.84124e+07
1.84204e+07
1.84286e+07
1.84368e+07
1.84452e+07
1.84537e+07
1.84623e+07
1.8471e+07
1.84799e+07
1.84888e+07
1.8498e+07
1.85072e+07
1.85165e+07
1.8526e+07
1.85356e+07
1.85454e+07
1.85552e+07
1.85652e+07
1.85753e+07
1.85855e+07
1.85959e+07
1.86064e+07
1.8617e+07
1.86277e+07
1.86386e+07
1.86496e+07
1.86606e+07
1.86719e+07
1.86832e+07
1.86947e+07
1.87062e+07
1.87179e+07
1.87297e+07
1.87417e+07
1.87537e+07
1.87658e+07
1.87781e+07
1.87905e+07
1.88029e+07
1.88155e+07
1.88282e+07
1.8841e+07
1.88539e+07
1.88669e+07
1.888e+07
1.88931e+07
1.89064e+07
1.89197e+07
1.89332e+07
1.89467e+07
1.89603e+07
1.8974e+07
1.89878e+07
1.90016e+07
1.90155e+07
1.90295e+07
1.90437e+07
1.90584e+07
1.90738e+07
1.80654e+07
1.80654e+07
1.80654e+07
1.80654e+07
1.80654e+07
1.80654e+07
1.80655e+07
1.80655e+07
1.80655e+07
1.80655e+07
1.80656e+07
1.80656e+07
1.80657e+07
1.80657e+07
1.80658e+07
1.80658e+07
1.80659e+07
1.8066e+07
1.80661e+07
1.80661e+07
1.80662e+07
1.80664e+07
1.80665e+07
1.80666e+07
1.80667e+07
1.80669e+07
1.8067e+07
1.80672e+07
1.80674e+07
1.80676e+07
1.80678e+07
1.8068e+07
1.80683e+07
1.80686e+07
1.80688e+07
1.80691e+07
1.80695e+07
1.80698e+07
1.80702e+07
1.80706e+07
1.8071e+07
1.80714e+07
1.80719e+07
1.80724e+07
1.80729e+07
1.80735e+07
1.8074e+07
1.80746e+07
1.80753e+07
1.8076e+07
1.80767e+07
1.80774e+07
1.80782e+07
1.8079e+07
1.80799e+07
1.80808e+07
1.80817e+07
1.80827e+07
1.80837e+07
1.80848e+07
1.80859e+07
1.80871e+07
1.80883e+07
1.80896e+07
1.80909e+07
1.80922e+07
1.80936e+07
1.80951e+07
1.80966e+07
1.80982e+07
1.80998e+07
1.81015e+07
1.81032e+07
1.8105e+07
1.81068e+07
1.81087e+07
1.81107e+07
1.81127e+07
1.81148e+07
1.8117e+07
1.81192e+07
1.81215e+07
1.81238e+07
1.81263e+07
1.81288e+07
1.81313e+07
1.81339e+07
1.81366e+07
1.81394e+07
1.81422e+07
1.81451e+07
1.81481e+07
1.81512e+07
1.81543e+07
1.81575e+07
1.81608e+07
1.81642e+07
1.81676e+07
1.81712e+07
1.81748e+07
1.81785e+07
1.81822e+07
1.81861e+07
1.819e+07
1.81941e+07
1.81982e+07
1.82024e+07
1.82067e+07
1.82111e+07
1.82156e+07
1.82201e+07
1.82248e+07
1.82295e+07
1.82344e+07
1.82393e+07
1.82444e+07
1.82495e+07
1.82547e+07
1.82601e+07
1.82655e+07
1.8271e+07
1.82767e+07
1.82824e+07
1.82883e+07
1.82942e+07
1.83003e+07
1.83065e+07
1.83127e+07
1.83191e+07
1.83256e+07
1.83322e+07
1.83389e+07
1.83458e+07
1.83527e+07
1.83598e+07
1.83669e+07
1.83742e+07
1.83816e+07
1.83892e+07
1.83968e+07
1.84046e+07
1.84124e+07
1.84204e+07
1.84286e+07
1.84368e+07
1.84452e+07
1.84537e+07
1.84623e+07
1.8471e+07
1.84799e+07
1.84888e+07
1.8498e+07
1.85072e+07
1.85165e+07
1.8526e+07
1.85356e+07
1.85454e+07
1.85552e+07
1.85652e+07
1.85753e+07
1.85855e+07
1.85959e+07
1.86064e+07
1.8617e+07
1.86277e+07
1.86386e+07
1.86496e+07
1.86606e+07
1.86719e+07
1.86832e+07
1.86947e+07
1.87062e+07
1.87179e+07
1.87297e+07
1.87417e+07
1.87537e+07
1.87658e+07
1.87781e+07
1.87905e+07
1.88029e+07
1.88155e+07
1.88282e+07
1.8841e+07
1.88539e+07
1.88669e+07
1.888e+07
1.88931e+07
1.89064e+07
1.89197e+07
1.89332e+07
1.89467e+07
1.89603e+07
1.8974e+07
1.89878e+07
1.90016e+07
1.90155e+07
1.90295e+07
1.90437e+07
1.90583e+07
1.90735e+07
1.80654e+07
1.80654e+07
1.80654e+07
1.80654e+07
1.80654e+07
1.80654e+07
1.80655e+07
1.80655e+07
1.80655e+07
1.80655e+07
1.80656e+07
1.80656e+07
1.80657e+07
1.80657e+07
1.80658e+07
1.80658e+07
1.80659e+07
1.8066e+07
1.80661e+07
1.80661e+07
1.80662e+07
1.80664e+07
1.80665e+07
1.80666e+07
1.80667e+07
1.80669e+07
1.8067e+07
1.80672e+07
1.80674e+07
1.80676e+07
1.80678e+07
1.8068e+07
1.80683e+07
1.80686e+07
1.80688e+07
1.80691e+07
1.80695e+07
1.80698e+07
1.80702e+07
1.80706e+07
1.8071e+07
1.80714e+07
1.80719e+07
1.80724e+07
1.80729e+07
1.80735e+07
1.8074e+07
1.80746e+07
1.80753e+07
1.8076e+07
1.80767e+07
1.80774e+07
1.80782e+07
1.8079e+07
1.80799e+07
1.80808e+07
1.80817e+07
1.80827e+07
1.80837e+07
1.80848e+07
1.80859e+07
1.80871e+07
1.80883e+07
1.80896e+07
1.80909e+07
1.80922e+07
1.80936e+07
1.80951e+07
1.80966e+07
1.80982e+07
1.80998e+07
1.81015e+07
1.81032e+07
1.8105e+07
1.81068e+07
1.81087e+07
1.81107e+07
1.81127e+07
1.81148e+07
1.8117e+07
1.81192e+07
1.81215e+07
1.81238e+07
1.81263e+07
1.81288e+07
1.81313e+07
1.81339e+07
1.81366e+07
1.81394e+07
1.81422e+07
1.81451e+07
1.81481e+07
1.81512e+07
1.81543e+07
1.81575e+07
1.81608e+07
1.81642e+07
1.81676e+07
1.81712e+07
1.81748e+07
1.81785e+07
1.81822e+07
1.81861e+07
1.819e+07
1.81941e+07
1.81982e+07
1.82024e+07
1.82067e+07
1.82111e+07
1.82156e+07
1.82201e+07
1.82248e+07
1.82295e+07
1.82344e+07
1.82393e+07
1.82444e+07
1.82495e+07
1.82547e+07
1.82601e+07
1.82655e+07
1.8271e+07
1.82767e+07
1.82824e+07
1.82883e+07
1.82942e+07
1.83003e+07
1.83065e+07
1.83127e+07
1.83191e+07
1.83256e+07
1.83322e+07
1.83389e+07
1.83458e+07
1.83527e+07
1.83598e+07
1.83669e+07
1.83742e+07
1.83816e+07
1.83892e+07
1.83968e+07
1.84046e+07
1.84124e+07
1.84204e+07
1.84286e+07
1.84368e+07
1.84452e+07
1.84537e+07
1.84623e+07
1.8471e+07
1.84799e+07
1.84888e+07
1.8498e+07
1.85072e+07
1.85165e+07
1.8526e+07
1.85356e+07
1.85454e+07
1.85552e+07
1.85652e+07
1.85753e+07
1.85855e+07
1.85959e+07
1.86064e+07
1.8617e+07
1.86277e+07
1.86386e+07
1.86496e+07
1.86606e+07
1.86719e+07
1.86832e+07
1.86947e+07
1.87062e+07
1.87179e+07
1.87297e+07
1.87417e+07
1.87537e+07
1.87658e+07
1.87781e+07
1.87905e+07
1.88029e+07
1.88155e+07
1.88282e+07
1.8841e+07
1.88539e+07
1.88669e+07
1.888e+07
1.88931e+07
1.89064e+07
1.89197e+07
1.89332e+07
1.89467e+07
1.89603e+07
1.8974e+07
1.89878e+07
1.90016e+07
1.90155e+07
1.90295e+07
1.90436e+07
1.90579e+07
1.90725e+07
1.80654e+07
1.80654e+07
1.80654e+07
1.80654e+07
1.80654e+07
1.80654e+07
1.80655e+07
1.80655e+07
1.80655e+07
1.80655e+07
1.80656e+07
1.80656e+07
1.80657e+07
1.80657e+07
1.80658e+07
1.80658e+07
1.80659e+07
1.8066e+07
1.80661e+07
1.80661e+07
1.80662e+07
1.80664e+07
1.80665e+07
1.80666e+07
1.80667e+07
1.80669e+07
1.8067e+07
1.80672e+07
1.80674e+07
1.80676e+07
1.80678e+07
1.8068e+07
1.80683e+07
1.80686e+07
1.80688e+07
1.80691e+07
1.80695e+07
1.80698e+07
1.80702e+07
1.80706e+07
1.8071e+07
1.80714e+07
1.80719e+07
1.80724e+07
1.80729e+07
1.80735e+07
1.8074e+07
1.80746e+07
1.80753e+07
1.8076e+07
1.80767e+07
1.80774e+07
1.80782e+07
1.8079e+07
1.80799e+07
1.80808e+07
1.80817e+07
1.80827e+07
1.80837e+07
1.80848e+07
1.80859e+07
1.80871e+07
1.80883e+07
1.80896e+07
1.80909e+07
1.80922e+07
1.80936e+07
1.80951e+07
1.80966e+07
1.80982e+07
1.80998e+07
1.81015e+07
1.81032e+07
1.8105e+07
1.81068e+07
1.81087e+07
1.81107e+07
1.81127e+07
1.81148e+07
1.8117e+07
1.81192e+07
1.81215e+07
1.81238e+07
1.81263e+07
1.81288e+07
1.81313e+07
1.81339e+07
1.81366e+07
1.81394e+07
1.81422e+07
1.81451e+07
1.81481e+07
1.81512e+07
1.81543e+07
1.81575e+07
1.81608e+07
1.81642e+07
1.81676e+07
1.81712e+07
1.81748e+07
1.81785e+07
1.81822e+07
1.81861e+07
1.819e+07
1.81941e+07
1.81982e+07
1.82024e+07
1.82067e+07
1.82111e+07
1.82156e+07
1.82201e+07
1.82248e+07
1.82295e+07
1.82344e+07
1.82393e+07
1.82444e+07
1.82495e+07
1.82547e+07
1.82601e+07
1.82655e+07
1.8271e+07
1.82767e+07
1.82824e+07
1.82883e+07
1.82942e+07
1.83003e+07
1.83065e+07
1.83127e+07
1.83191e+07
1.83256e+07
1.83322e+07
1.83389e+07
1.83458e+07
1.83527e+07
1.83598e+07
1.83669e+07
1.83742e+07
1.83816e+07
1.83892e+07
1.83968e+07
1.84046e+07
1.84124e+07
1.84204e+07
1.84286e+07
1.84368e+07
1.84452e+07
1.84537e+07
1.84623e+07
1.8471e+07
1.84799e+07
1.84888e+07
1.8498e+07
1.85072e+07
1.85165e+07
1.8526e+07
1.85356e+07
1.85454e+07
1.85552e+07
1.85652e+07
1.85753e+07
1.85855e+07
1.85959e+07
1.86064e+07
1.8617e+07
1.86277e+07
1.86386e+07
1.86496e+07
1.86606e+07
1.86719e+07
1.86832e+07
1.86947e+07
1.87062e+07
1.87179e+07
1.87297e+07
1.87417e+07
1.87537e+07
1.87658e+07
1.87781e+07
1.87905e+07
1.88029e+07
1.88155e+07
1.88282e+07
1.8841e+07
1.88539e+07
1.88669e+07
1.888e+07
1.88931e+07
1.89064e+07
1.89197e+07
1.89332e+07
1.89467e+07
1.89603e+07
1.8974e+07
1.89878e+07
1.90016e+07
1.90155e+07
1.90295e+07
1.90435e+07
1.90574e+07
1.90709e+07
1.80654e+07
1.80654e+07
1.80654e+07
1.80654e+07
1.80654e+07
1.80654e+07
1.80655e+07
1.80655e+07
1.80655e+07
1.80655e+07
1.80656e+07
1.80656e+07
1.80657e+07
1.80657e+07
1.80658e+07
1.80658e+07
1.80659e+07
1.8066e+07
1.80661e+07
1.80661e+07
1.80662e+07
1.80664e+07
1.80665e+07
1.80666e+07
1.80667e+07
1.80669e+07
1.8067e+07
1.80672e+07
1.80674e+07
1.80676e+07
1.80678e+07
1.8068e+07
1.80683e+07
1.80686e+07
1.80688e+07
1.80691e+07
1.80695e+07
1.80698e+07
1.80702e+07
1.80706e+07
1.8071e+07
1.80714e+07
1.80719e+07
1.80724e+07
1.80729e+07
1.80735e+07
1.8074e+07
1.80746e+07
1.80753e+07
1.8076e+07
1.80767e+07
1.80774e+07
1.80782e+07
1.8079e+07
1.80799e+07
1.80808e+07
1.80817e+07
1.80827e+07
1.80837e+07
1.80848e+07
1.80859e+07
1.80871e+07
1.80883e+07
1.80896e+07
1.80909e+07
1.80922e+07
1.80936e+07
1.80951e+07
1.80966e+07
1.80982e+07
1.80998e+07
1.81015e+07
1.81032e+07
1.8105e+07
1.81068e+07
1.81087e+07
1.81107e+07
1.81127e+07
1.81148e+07
1.8117e+07
1.81192e+07
1.81215e+07
1.81238e+07
1.81263e+07
1.81288e+07
1.81313e+07
1.81339e+07
1.81366e+07
1.81394e+07
1.81422e+07
1.81451e+07
1.81481e+07
1.81512e+07
1.81543e+07
1.81575e+07
1.81608e+07
1.81642e+07
1.81676e+07
1.81712e+07
1.81748e+07
1.81785e+07
1.81822e+07
1.81861e+07
1.819e+07
1.81941e+07
1.81982e+07
1.82024e+07
1.82067e+07
1.82111e+07
1.82156e+07
1.82201e+07
1.82248e+07
1.82295e+07
1.82344e+07
1.82393e+07
1.82444e+07
1.82495e+07
1.82547e+07
1.82601e+07
1.82655e+07
1.8271e+07
1.82767e+07
1.82824e+07
1.82883e+07
1.82942e+07
1.83003e+07
1.83065e+07
1.83127e+07
1.83191e+07
1.83256e+07
1.83322e+07
1.83389e+07
1.83458e+07
1.83527e+07
1.83598e+07
1.83669e+07
1.83742e+07
1.83816e+07
1.83892e+07
1.83968e+07
1.84046e+07
1.84124e+07
1.84204e+07
1.84286e+07
1.84368e+07
1.84452e+07
1.84537e+07
1.84623e+07
1.8471e+07
1.84799e+07
1.84888e+07
1.8498e+07
1.85072e+07
1.85165e+07
1.8526e+07
1.85356e+07
1.85454e+07
1.85552e+07
1.85652e+07
1.85753e+07
1.85855e+07
1.85959e+07
1.86064e+07
1.8617e+07
1.86277e+07
1.86386e+07
1.86496e+07
1.86606e+07
1.86719e+07
1.86832e+07
1.86947e+07
1.87062e+07
1.87179e+07
1.87297e+07
1.87417e+07
1.87537e+07
1.87658e+07
1.87781e+07
1.87905e+07
1.88029e+07
1.88155e+07
1.88282e+07
1.8841e+07
1.88539e+07
1.88669e+07
1.888e+07
1.88931e+07
1.89064e+07
1.89197e+07
1.89332e+07
1.89467e+07
1.89603e+07
1.8974e+07
1.89878e+07
1.90016e+07
1.90155e+07
1.90295e+07
1.90434e+07
1.90569e+07
1.90697e+07
1.80654e+07
1.80654e+07
1.80654e+07
1.80654e+07
1.80654e+07
1.80654e+07
1.80655e+07
1.80655e+07
1.80655e+07
1.80655e+07
1.80656e+07
1.80656e+07
1.80657e+07
1.80657e+07
1.80658e+07
1.80658e+07
1.80659e+07
1.8066e+07
1.80661e+07
1.80661e+07
1.80662e+07
1.80664e+07
1.80665e+07
1.80666e+07
1.80667e+07
1.80669e+07
1.8067e+07
1.80672e+07
1.80674e+07
1.80676e+07
1.80678e+07
1.8068e+07
1.80683e+07
1.80686e+07
1.80688e+07
1.80691e+07
1.80695e+07
1.80698e+07
1.80702e+07
1.80706e+07
1.8071e+07
1.80714e+07
1.80719e+07
1.80724e+07
1.80729e+07
1.80735e+07
1.8074e+07
1.80746e+07
1.80753e+07
1.8076e+07
1.80767e+07
1.80774e+07
1.80782e+07
1.8079e+07
1.80799e+07
1.80808e+07
1.80817e+07
1.80827e+07
1.80837e+07
1.80848e+07
1.80859e+07
1.80871e+07
1.80883e+07
1.80896e+07
1.80909e+07
1.80922e+07
1.80936e+07
1.80951e+07
1.80966e+07
1.80982e+07
1.80998e+07
1.81015e+07
1.81032e+07
1.8105e+07
1.81068e+07
1.81087e+07
1.81107e+07
1.81127e+07
1.81148e+07
1.8117e+07
1.81192e+07
1.81215e+07
1.81238e+07
1.81263e+07
1.81288e+07
1.81313e+07
1.81339e+07
1.81366e+07
1.81394e+07
1.81422e+07
1.81451e+07
1.81481e+07
1.81512e+07
1.81543e+07
1.81575e+07
1.81608e+07
1.81642e+07
1.81676e+07
1.81712e+07
1.81748e+07
1.81785e+07
1.81822e+07
1.81861e+07
1.819e+07
1.81941e+07
1.81982e+07
1.82024e+07
1.82067e+07
1.82111e+07
1.82156e+07
1.82201e+07
1.82248e+07
1.82295e+07
1.82344e+07
1.82393e+07
1.82444e+07
1.82495e+07
1.82547e+07
1.82601e+07
1.82655e+07
1.8271e+07
1.82767e+07
1.82824e+07
1.82883e+07
1.82942e+07
1.83003e+07
1.83065e+07
1.83127e+07
1.83191e+07
1.83256e+07
1.83322e+07
1.83389e+07
1.83458e+07
1.83527e+07
1.83598e+07
1.83669e+07
1.83742e+07
1.83816e+07
1.83892e+07
1.83968e+07
1.84046e+07
1.84124e+07
1.84204e+07
1.84286e+07
1.84368e+07
1.84452e+07
1.84537e+07
1.84623e+07
1.8471e+07
1.84799e+07
1.84888e+07
1.8498e+07
1.85072e+07
1.85165e+07
1.8526e+07
1.85356e+07
1.85454e+07
1.85552e+07
1.85652e+07
1.85753e+07
1.85855e+07
1.85959e+07
1.86064e+07
1.8617e+07
1.86277e+07
1.86386e+07
1.86496e+07
1.86606e+07
1.86719e+07
1.86832e+07
1.86947e+07
1.87062e+07
1.87179e+07
1.87297e+07
1.87417e+07
1.87537e+07
1.87658e+07
1.87781e+07
1.87905e+07
1.88029e+07
1.88155e+07
1.88282e+07
1.8841e+07
1.88539e+07
1.88669e+07
1.888e+07
1.88931e+07
1.89064e+07
1.89197e+07
1.89332e+07
1.89467e+07
1.89603e+07
1.8974e+07
1.89878e+07
1.90016e+07
1.90155e+07
1.90295e+07
1.90434e+07
1.90567e+07
1.90695e+07
1.80654e+07
1.80654e+07
1.80654e+07
1.80654e+07
1.80654e+07
1.80654e+07
1.80655e+07
1.80655e+07
1.80655e+07
1.80655e+07
1.80656e+07
1.80656e+07
1.80657e+07
1.80657e+07
1.80658e+07
1.80658e+07
1.80659e+07
1.8066e+07
1.80661e+07
1.80661e+07
1.80662e+07
1.80664e+07
1.80665e+07
1.80666e+07
1.80667e+07
1.80669e+07
1.8067e+07
1.80672e+07
1.80674e+07
1.80676e+07
1.80678e+07
1.8068e+07
1.80683e+07
1.80686e+07
1.80688e+07
1.80691e+07
1.80695e+07
1.80698e+07
1.80702e+07
1.80706e+07
1.8071e+07
1.80714e+07
1.80719e+07
1.80724e+07
1.80729e+07
1.80735e+07
1.8074e+07
1.80746e+07
1.80753e+07
1.8076e+07
1.80767e+07
1.80774e+07
1.80782e+07
1.8079e+07
1.80799e+07
1.80808e+07
1.80817e+07
1.80827e+07
1.80837e+07
1.80848e+07
1.80859e+07
1.80871e+07
1.80883e+07
1.80896e+07
1.80909e+07
1.80922e+07
1.80936e+07
1.80951e+07
1.80966e+07
1.80982e+07
1.80998e+07
1.81015e+07
1.81032e+07
1.8105e+07
1.81068e+07
1.81087e+07
1.81107e+07
1.81127e+07
1.81148e+07
1.8117e+07
1.81192e+07
1.81215e+07
1.81238e+07
1.81263e+07
1.81288e+07
1.81313e+07
1.81339e+07
1.81366e+07
1.81394e+07
1.81422e+07
1.81451e+07
1.81481e+07
1.81512e+07
1.81543e+07
1.81575e+07
1.81608e+07
1.81642e+07
1.81676e+07
1.81712e+07
1.81748e+07
1.81785e+07
1.81822e+07
1.81861e+07
1.819e+07
1.81941e+07
1.81982e+07
1.82024e+07
1.82067e+07
1.82111e+07
1.82156e+07
1.82201e+07
1.82248e+07
1.82295e+07
1.82344e+07
1.82393e+07
1.82444e+07
1.82495e+07
1.82547e+07
1.82601e+07
1.82655e+07
1.8271e+07
1.82767e+07
1.82824e+07
1.82883e+07
1.82942e+07
1.83003e+07
1.83065e+07
1.83127e+07
1.83191e+07
1.83256e+07
1.83322e+07
1.83389e+07
1.83458e+07
1.83527e+07
1.83598e+07
1.83669e+07
1.83742e+07
1.83816e+07
1.83892e+07
1.83968e+07
1.84046e+07
1.84124e+07
1.84204e+07
1.84286e+07
1.84368e+07
1.84452e+07
1.84537e+07
1.84623e+07
1.8471e+07
1.84799e+07
1.84888e+07
1.8498e+07
1.85072e+07
1.85165e+07
1.8526e+07
1.85356e+07
1.85454e+07
1.85552e+07
1.85652e+07
1.85753e+07
1.85855e+07
1.85959e+07
1.86064e+07
1.8617e+07
1.86277e+07
1.86386e+07
1.86496e+07
1.86606e+07
1.86719e+07
1.86832e+07
1.86947e+07
1.87062e+07
1.87179e+07
1.87297e+07
1.87417e+07
1.87537e+07
1.87658e+07
1.87781e+07
1.87905e+07
1.88029e+07
1.88155e+07
1.88282e+07
1.8841e+07
1.88539e+07
1.88669e+07
1.888e+07
1.88931e+07
1.89064e+07
1.89197e+07
1.89332e+07
1.89467e+07
1.89603e+07
1.8974e+07
1.89878e+07
1.90016e+07
1.90155e+07
1.90295e+07
1.90434e+07
1.90567e+07
1.90694e+07
1.80654e+07
1.80654e+07
1.80654e+07
1.80654e+07
1.80654e+07
1.80654e+07
1.80655e+07
1.80655e+07
1.80655e+07
1.80655e+07
1.80656e+07
1.80656e+07
1.80657e+07
1.80657e+07
1.80658e+07
1.80658e+07
1.80659e+07
1.8066e+07
1.80661e+07
1.80661e+07
1.80662e+07
1.80664e+07
1.80665e+07
1.80666e+07
1.80667e+07
1.80669e+07
1.8067e+07
1.80672e+07
1.80674e+07
1.80676e+07
1.80678e+07
1.8068e+07
1.80683e+07
1.80686e+07
1.80688e+07
1.80691e+07
1.80695e+07
1.80698e+07
1.80702e+07
1.80706e+07
1.8071e+07
1.80714e+07
1.80719e+07
1.80724e+07
1.80729e+07
1.80735e+07
1.8074e+07
1.80746e+07
1.80753e+07
1.8076e+07
1.80767e+07
1.80774e+07
1.80782e+07
1.8079e+07
1.80799e+07
1.80808e+07
1.80817e+07
1.80827e+07
1.80837e+07
1.80848e+07
1.80859e+07
1.80871e+07
1.80883e+07
1.80896e+07
1.80909e+07
1.80922e+07
1.80936e+07
1.80951e+07
1.80966e+07
1.80982e+07
1.80998e+07
1.81015e+07
1.81032e+07
1.8105e+07
1.81068e+07
1.81087e+07
1.81107e+07
1.81127e+07
1.81148e+07
1.8117e+07
1.81192e+07
1.81215e+07
1.81238e+07
1.81263e+07
1.81288e+07
1.81313e+07
1.81339e+07
1.81366e+07
1.81394e+07
1.81422e+07
1.81451e+07
1.81481e+07
1.81512e+07
1.81543e+07
1.81575e+07
1.81608e+07
1.81642e+07
1.81676e+07
1.81712e+07
1.81748e+07
1.81785e+07
1.81822e+07
1.81861e+07
1.819e+07
1.81941e+07
1.81982e+07
1.82024e+07
1.82067e+07
1.82111e+07
1.82156e+07
1.82201e+07
1.82248e+07
1.82295e+07
1.82344e+07
1.82393e+07
1.82444e+07
1.82495e+07
1.82547e+07
1.82601e+07
1.82655e+07
1.8271e+07
1.82767e+07
1.82824e+07
1.82883e+07
1.82942e+07
1.83003e+07
1.83065e+07
1.83127e+07
1.83191e+07
1.83256e+07
1.83322e+07
1.83389e+07
1.83458e+07
1.83527e+07
1.83598e+07
1.83669e+07
1.83742e+07
1.83816e+07
1.83892e+07
1.83968e+07
1.84046e+07
1.84124e+07
1.84204e+07
1.84286e+07
1.84368e+07
1.84452e+07
1.84537e+07
1.84623e+07
1.8471e+07
1.84799e+07
1.84888e+07
1.8498e+07
1.85072e+07
1.85165e+07
1.8526e+07
1.85356e+07
1.85454e+07
1.85552e+07
1.85652e+07
1.85753e+07
1.85855e+07
1.85959e+07
1.86064e+07
1.8617e+07
1.86277e+07
1.86386e+07
1.86496e+07
1.86606e+07
1.86719e+07
1.86832e+07
1.86947e+07
1.87062e+07
1.87179e+07
1.87297e+07
1.87417e+07
1.87537e+07
1.87658e+07
1.87781e+07
1.87905e+07
1.88029e+07
1.88155e+07
1.88282e+07
1.8841e+07
1.88539e+07
1.88669e+07
1.888e+07
1.88931e+07
1.89064e+07
1.89197e+07
1.89332e+07
1.89467e+07
1.89603e+07
1.8974e+07
1.89878e+07
1.90016e+07
1.90155e+07
1.90295e+07
1.90434e+07
1.90567e+07
1.90694e+07
1.9095e+07
1.91036e+07
1.91084e+07
1.91114e+07
1.9114e+07
1.91167e+07
1.91193e+07
1.91218e+07
1.91243e+07
1.91267e+07
1.91291e+07
1.91315e+07
1.91338e+07
1.9136e+07
1.91382e+07
1.91402e+07
1.9142e+07
1.91435e+07
1.91446e+07
1.91448e+07
1.90941e+07
1.91019e+07
1.91067e+07
1.91097e+07
1.91123e+07
1.9115e+07
1.91176e+07
1.91201e+07
1.91226e+07
1.9125e+07
1.91275e+07
1.91298e+07
1.91322e+07
1.91344e+07
1.91366e+07
1.91386e+07
1.91404e+07
1.91419e+07
1.9143e+07
1.91432e+07
1.90934e+07
1.91014e+07
1.91065e+07
1.91096e+07
1.91122e+07
1.91149e+07
1.91175e+07
1.912e+07
1.91225e+07
1.91249e+07
1.91273e+07
1.91297e+07
1.9132e+07
1.91342e+07
1.91363e+07
1.91382e+07
1.914e+07
1.91414e+07
1.91424e+07
1.91424e+07
1.90899e+07
1.90953e+07
1.90987e+07
1.91013e+07
1.91039e+07
1.91065e+07
1.91091e+07
1.91116e+07
1.91141e+07
1.91167e+07
1.91192e+07
1.91216e+07
1.9124e+07
1.91263e+07
1.91284e+07
1.91305e+07
1.91323e+07
1.91339e+07
1.9135e+07
1.91357e+07
1.90861e+07
1.90912e+07
1.90956e+07
1.90995e+07
1.91029e+07
1.91059e+07
1.91086e+07
1.91112e+07
1.91137e+07
1.91161e+07
1.91185e+07
1.91204e+07
1.91225e+07
1.91245e+07
1.91263e+07
1.9128e+07
1.91296e+07
1.91311e+07
1.91325e+07
1.91337e+07
1.90762e+07
1.9077e+07
1.90776e+07
1.90781e+07
1.90792e+07
1.90808e+07
1.90827e+07
1.90849e+07
1.90872e+07
1.90897e+07
1.90923e+07
1.90951e+07
1.90981e+07
1.91008e+07
1.91036e+07
1.91064e+07
1.91093e+07
1.91122e+07
1.91153e+07
1.91186e+07
1.90683e+07
1.90687e+07
1.90709e+07
1.9074e+07
1.90768e+07
1.90794e+07
1.90819e+07
1.90843e+07
1.90867e+07
1.9089e+07
1.9091e+07
1.90935e+07
1.90955e+07
1.90977e+07
1.91e+07
1.91025e+07
1.91051e+07
1.91082e+07
1.91118e+07
1.9116e+07
1.90551e+07
1.90491e+07
1.90445e+07
1.90422e+07
1.90418e+07
1.90424e+07
1.90435e+07
1.90453e+07
1.90475e+07
1.90501e+07
1.90531e+07
1.90564e+07
1.90601e+07
1.90641e+07
1.90685e+07
1.90733e+07
1.90787e+07
1.90847e+07
1.90913e+07
1.90987e+07
1.90514e+07
1.90453e+07
1.90418e+07
1.90406e+07
1.90407e+07
1.90415e+07
1.90429e+07
1.90447e+07
1.9047e+07
1.90495e+07
1.90524e+07
1.90556e+07
1.90591e+07
1.9063e+07
1.90672e+07
1.90718e+07
1.90769e+07
1.90827e+07
1.90892e+07
1.90967e+07
1.90477e+07
1.90375e+07
1.90322e+07
1.90301e+07
1.90297e+07
1.90301e+07
1.90313e+07
1.90331e+07
1.90353e+07
1.9038e+07
1.90411e+07
1.90445e+07
1.90483e+07
1.90525e+07
1.9057e+07
1.90621e+07
1.90677e+07
1.90741e+07
1.90814e+07
1.90899e+07
1.91403e+07
1.91452e+07
1.9155e+07
1.91658e+07
1.91769e+07
1.91882e+07
1.91995e+07
1.92108e+07
1.92222e+07
1.92336e+07
1.9245e+07
1.92565e+07
1.92679e+07
1.92794e+07
1.92908e+07
1.93023e+07
1.93138e+07
1.93253e+07
1.93368e+07
1.93482e+07
1.93597e+07
1.93712e+07
1.93826e+07
1.93941e+07
1.94055e+07
1.9417e+07
1.94284e+07
1.94398e+07
1.94512e+07
1.94625e+07
1.94739e+07
1.94852e+07
1.94965e+07
1.95078e+07
1.9519e+07
1.95302e+07
1.95414e+07
1.95526e+07
1.95637e+07
1.95748e+07
1.95859e+07
1.95969e+07
1.96079e+07
1.96188e+07
1.96298e+07
1.96406e+07
1.96515e+07
1.96623e+07
1.9673e+07
1.96837e+07
1.96944e+07
1.9705e+07
1.97156e+07
1.97261e+07
1.97366e+07
1.9747e+07
1.97574e+07
1.97677e+07
1.9778e+07
1.97882e+07
1.97984e+07
1.98085e+07
1.98186e+07
1.98286e+07
1.98386e+07
1.98485e+07
1.98583e+07
1.98681e+07
1.98778e+07
1.98875e+07
1.98971e+07
1.99067e+07
1.99162e+07
1.99256e+07
1.9935e+07
1.99443e+07
1.99536e+07
1.99628e+07
1.99719e+07
1.9981e+07
1.999e+07
1.9999e+07
2.00079e+07
2.00167e+07
2.00255e+07
2.00342e+07
2.00429e+07
2.00515e+07
2.006e+07
2.00685e+07
2.00769e+07
2.00852e+07
2.00935e+07
2.01017e+07
2.01098e+07
2.01179e+07
2.01259e+07
2.01339e+07
2.01418e+07
2.01496e+07
2.01573e+07
2.0165e+07
2.01727e+07
2.01802e+07
2.01877e+07
2.01952e+07
2.02026e+07
2.02099e+07
2.02171e+07
2.02243e+07
2.02314e+07
2.02385e+07
2.02455e+07
2.02524e+07
2.02593e+07
2.02661e+07
2.02728e+07
2.02795e+07
2.02861e+07
2.02927e+07
2.02992e+07
2.03056e+07
2.0312e+07
2.03183e+07
2.03246e+07
2.03308e+07
2.03369e+07
2.0343e+07
2.0349e+07
2.0355e+07
2.03609e+07
2.03667e+07
2.03725e+07
2.03783e+07
2.03839e+07
2.03895e+07
2.03951e+07
2.04006e+07
2.0406e+07
2.04114e+07
2.04167e+07
2.0422e+07
2.04272e+07
2.04324e+07
2.04375e+07
2.04425e+07
2.04475e+07
2.04524e+07
2.04573e+07
2.04621e+07
2.04669e+07
2.04716e+07
2.04762e+07
2.04808e+07
2.04854e+07
2.04899e+07
2.04943e+07
2.04987e+07
2.0503e+07
2.05073e+07
2.05116e+07
2.05157e+07
2.05199e+07
2.0524e+07
2.0528e+07
2.0532e+07
2.05359e+07
2.05398e+07
2.05436e+07
2.05474e+07
2.05511e+07
2.05548e+07
2.05584e+07
2.05619e+07
2.05654e+07
2.05689e+07
2.05723e+07
2.05756e+07
2.05789e+07
2.05821e+07
2.05853e+07
2.05884e+07
2.05915e+07
2.05945e+07
2.05975e+07
2.06005e+07
2.06033e+07
2.06062e+07
2.0609e+07
2.06117e+07
2.06144e+07
2.06171e+07
2.06197e+07
2.06223e+07
2.06248e+07
2.06273e+07
2.06298e+07
2.06322e+07
2.06346e+07
2.06369e+07
1.91398e+07
1.91451e+07
1.91549e+07
1.91658e+07
1.91769e+07
1.91882e+07
1.91995e+07
1.92108e+07
1.92222e+07
1.92336e+07
1.9245e+07
1.92565e+07
1.92679e+07
1.92794e+07
1.92908e+07
1.93023e+07
1.93138e+07
1.93253e+07
1.93368e+07
1.93482e+07
1.93597e+07
1.93712e+07
1.93826e+07
1.93941e+07
1.94055e+07
1.9417e+07
1.94284e+07
1.94398e+07
1.94512e+07
1.94625e+07
1.94739e+07
1.94852e+07
1.94965e+07
1.95078e+07
1.9519e+07
1.95302e+07
1.95414e+07
1.95526e+07
1.95637e+07
1.95748e+07
1.95859e+07
1.95969e+07
1.96079e+07
1.96188e+07
1.96298e+07
1.96406e+07
1.96515e+07
1.96623e+07
1.9673e+07