/*--------------------------------*- C++ -*----------------------------------*\
| =========                 |                                                 |
| \\      /  F ield         | OpenFOAM: The Open Source CFD Toolbox           |
|  \\    /   O peration     | Version:  3.0.x                                 |
|   \\  /    A nd           | Web:      www.OpenFOAM.org                      |
|    \\/     M anipulation  |                                                 |
\*---------------------------------------------------------------------------*/
FoamFile
{
    version     2.0;
    format      ascii;
    class       volScalarField;
    location    "0.49995";
    object      T;
}
// * * * * * * * * * * * * * * * * * * * * * * * * * * * * * * * * * * * * * //

dimensions      [0 0 0 1 0 0 0];

internalField   nonuniform List<scalar> 
13800
(
773.523
773.523
773.523
773.523
773.523
773.523
773.523
773.523
773.524
773.524
773.524
773.524
773.524
773.524
773.525
773.525
773.525
773.526
773.526
773.527
773.528
773.528
773.529
773.53
773.531
773.532
773.533
773.534
773.535
773.536
773.538
773.54
773.541
773.543
773.545
773.547
773.549
773.552
773.554
773.557
773.56
773.563
773.567
773.57
773.574
773.577
773.582
773.586
773.59
773.595
773.6
773.606
773.611
773.617
773.623
773.629
773.636
773.643
773.65
773.658
773.666
773.674
773.683
773.692
773.701
773.71
773.721
773.732
773.743
773.754
773.766
773.779
773.791
773.804
773.817
773.83
773.843
773.856
773.869
773.883
773.898
773.913
773.93
773.946
773.964
773.981
774
774.02
774.04
774.06
774.082
774.103
774.125
774.148
774.17
774.193
774.216
774.24
774.264
774.289
774.315
774.342
774.369
774.396
774.424
774.452
774.481
774.51
774.54
774.57
774.601
774.633
774.666
774.7
774.734
774.769
774.806
774.843
774.881
774.92
774.96
775
775.042
775.083
775.126
775.168
775.211
775.254
775.298
775.342
775.388
775.434
775.481
775.529
775.579
775.629
775.68
775.732
775.785
775.838
775.893
775.948
776.004
776.061
776.119
776.178
776.238
776.298
776.359
776.421
776.484
776.548
776.613
776.679
776.745
776.812
776.88
776.949
777.019
777.09
777.162
777.234
777.307
777.381
777.456
777.532
777.608
777.685
777.764
777.842
777.922
778.003
778.084
778.166
778.249
778.332
778.416
778.501
778.586
778.674
778.759
778.849
778.934
779.028
779.112
779.209
779.292
779.392
779.473
779.578
779.657
779.767
779.842
779.958
780.029
780.152
780.218
780.349
780.421
780.627
773.498
773.498
773.498
773.498
773.498
773.498
773.498
773.498
773.498
773.498
773.499
773.499
773.499
773.499
773.5
773.5
773.501
773.501
773.502
773.502
773.503
773.504
773.504
773.505
773.506
773.507
773.508
773.51
773.511
773.512
773.514
773.516
773.517
773.519
773.521
773.523
773.526
773.528
773.531
773.534
773.537
773.54
773.543
773.547
773.55
773.554
773.558
773.563
773.567
773.572
773.577
773.583
773.588
773.594
773.6
773.607
773.613
773.621
773.628
773.636
773.643
773.652
773.661
773.669
773.679
773.688
773.699
773.71
773.721
773.733
773.745
773.757
773.77
773.783
773.796
773.809
773.822
773.835
773.848
773.862
773.877
773.893
773.909
773.926
773.943
773.961
773.979
773.999
774.019
774.04
774.061
774.083
774.105
774.128
774.15
774.173
774.197
774.22
774.245
774.27
774.296
774.322
774.35
774.377
774.405
774.434
774.462
774.492
774.521
774.552
774.583
774.615
774.648
774.681
774.716
774.751
774.787
774.824
774.863
774.902
774.942
774.982
775.023
775.065
775.108
775.15
775.193
775.237
775.281
775.325
775.371
775.417
775.464
775.512
775.562
775.612
775.663
775.715
775.768
775.821
775.876
775.931
775.988
776.045
776.103
776.162
776.221
776.282
776.343
776.405
776.468
776.532
776.597
776.663
776.729
776.796
776.865
776.934
777.003
777.074
777.146
777.218
777.291
777.365
777.44
777.516
777.592
777.669
777.747
777.826
777.906
777.986
778.068
778.15
778.232
778.316
778.4
778.485
778.57
778.658
778.743
778.833
778.918
779.012
779.095
779.193
779.275
779.376
779.457
779.562
779.641
779.751
779.826
779.942
780.012
780.136
780.202
780.335
780.404
780.66
773.498
773.498
773.498
773.498
773.498
773.498
773.498
773.498
773.498
773.498
773.499
773.499
773.499
773.499
773.5
773.5
773.501
773.501
773.502
773.502
773.503
773.504
773.504
773.505
773.506
773.507
773.508
773.51
773.511
773.512
773.514
773.515
773.517
773.519
773.521
773.523
773.526
773.528
773.531
773.534
773.537
773.54
773.543
773.547
773.55
773.554
773.558
773.563
773.567
773.572
773.577
773.583
773.588
773.594
773.6
773.607
773.613
773.62
773.628
773.635
773.643
773.652
773.66
773.669
773.679
773.688
773.699
773.709
773.721
773.733
773.745
773.757
773.77
773.783
773.796
773.809
773.822
773.835
773.848
773.862
773.877
773.893
773.909
773.926
773.943
773.961
773.979
773.999
774.019
774.04
774.061
774.083
774.105
774.128
774.15
774.173
774.196
774.22
774.245
774.27
774.296
774.322
774.35
774.377
774.405
774.433
774.462
774.491
774.521
774.552
774.583
774.615
774.648
774.681
774.716
774.751
774.787
774.824
774.863
774.902
774.941
774.982
775.023
775.065
775.108
775.15
775.193
775.237
775.281
775.325
775.371
775.417
775.464
775.512
775.562
775.612
775.663
775.715
775.768
775.821
775.876
775.931
775.988
776.045
776.103
776.162
776.221
776.282
776.343
776.405
776.468
776.532
776.597
776.663
776.729
776.796
776.865
776.933
777.003
777.074
777.146
777.218
777.291
777.365
777.44
777.516
777.592
777.669
777.747
777.826
777.906
777.986
778.068
778.15
778.232
778.316
778.4
778.485
778.57
778.658
778.743
778.833
778.918
779.012
779.095
779.193
779.275
779.376
779.457
779.562
779.641
779.751
779.826
779.942
780.012
780.136
780.202
780.334
780.404
780.652
773.498
773.498
773.498
773.498
773.498
773.498
773.498
773.498
773.498
773.499
773.499
773.499
773.499
773.5
773.5
773.5
773.501
773.501
773.502
773.502
773.503
773.504
773.505
773.505
773.506
773.507
773.509
773.51
773.511
773.512
773.514
773.516
773.517
773.519
773.521
773.524
773.526
773.528
773.531
773.534
773.537
773.54
773.543
773.547
773.55
773.554
773.559
773.563
773.567
773.572
773.577
773.583
773.588
773.594
773.6
773.607
773.614
773.621
773.628
773.636
773.644
773.652
773.661
773.67
773.679
773.688
773.699
773.71
773.721
773.733
773.745
773.757
773.77
773.783
773.796
773.809
773.822
773.835
773.848
773.862
773.877
773.893
773.909
773.926
773.943
773.961
773.98
773.999
774.019
774.04
774.061
774.083
774.105
774.128
774.15
774.173
774.197
774.22
774.245
774.27
774.296
774.322
774.35
774.377
774.405
774.434
774.462
774.492
774.521
774.552
774.583
774.615
774.648
774.681
774.716
774.751
774.787
774.824
774.863
774.902
774.942
774.982
775.023
775.065
775.108
775.15
775.193
775.237
775.281
775.325
775.371
775.417
775.464
775.512
775.562
775.612
775.663
775.715
775.768
775.821
775.876
775.931
775.988
776.045
776.103
776.162
776.221
776.282
776.343
776.405
776.468
776.532
776.597
776.663
776.729
776.796
776.865
776.933
777.003
777.074
777.146
777.218
777.291
777.365
777.44
777.516
777.592
777.669
777.747
777.826
777.906
777.986
778.068
778.15
778.232
778.316
778.4
778.485
778.57
778.658
778.743
778.833
778.918
779.012
779.096
779.192
779.275
779.376
779.457
779.562
779.641
779.751
779.826
779.942
780.012
780.136
780.202
780.332
780.404
780.59
773.498
773.498
773.498
773.498
773.498
773.498
773.498
773.498
773.499
773.499
773.499
773.499
773.499
773.5
773.5
773.501
773.501
773.501
773.502
773.503
773.503
773.504
773.505
773.506
773.507
773.508
773.509
773.51
773.511
773.513
773.514
773.516
773.518
773.519
773.522
773.524
773.526
773.528
773.531
773.534
773.537
773.54
773.543
773.547
773.551
773.555
773.559
773.563
773.568
773.572
773.578
773.583
773.588
773.594
773.601
773.607
773.614
773.621
773.628
773.636
773.644
773.652
773.661
773.67
773.679
773.688
773.699
773.71
773.721
773.733
773.745
773.757
773.77
773.783
773.796
773.809
773.822
773.835
773.849
773.863
773.877
773.893
773.909
773.926
773.943
773.961
773.98
773.999
774.019
774.04
774.061
774.083
774.105
774.128
774.15
774.173
774.197
774.22
774.245
774.27
774.296
774.323
774.35
774.377
774.405
774.434
774.462
774.492
774.521
774.552
774.583
774.615
774.648
774.681
774.716
774.751
774.787
774.824
774.863
774.902
774.942
774.982
775.023
775.065
775.108
775.15
775.193
775.237
775.281
775.325
775.371
775.417
775.464
775.512
775.562
775.612
775.663
775.715
775.768
775.821
775.876
775.931
775.988
776.045
776.103
776.162
776.221
776.282
776.343
776.405
776.468
776.532
776.597
776.663
776.729
776.796
776.865
776.933
777.003
777.074
777.145
777.218
777.291
777.365
777.44
777.516
777.592
777.669
777.747
777.826
777.906
777.986
778.068
778.15
778.232
778.316
778.4
778.485
778.57
778.658
778.743
778.833
778.918
779.012
779.095
779.193
779.275
779.376
779.457
779.563
779.64
779.751
779.826
779.942
780.013
780.135
780.203
780.329
780.398
780.565
773.498
773.498
773.498
773.498
773.498
773.498
773.498
773.498
773.499
773.499
773.499
773.499
773.499
773.5
773.5
773.501
773.501
773.501
773.502
773.503
773.503
773.504
773.505
773.506
773.507
773.508
773.509
773.51
773.511
773.513
773.514
773.516
773.518
773.519
773.522
773.524
773.526
773.528
773.531
773.534
773.537
773.54
773.543
773.547
773.551
773.555
773.559
773.563
773.568
773.572
773.578
773.583
773.588
773.594
773.601
773.607
773.614
773.621
773.628
773.636
773.644
773.652
773.661
773.67
773.679
773.688
773.699
773.71
773.721
773.733
773.745
773.757
773.77
773.783
773.796
773.809
773.822
773.835
773.849
773.863
773.877
773.893
773.909
773.926
773.943
773.961
773.98
773.999
774.019
774.04
774.061
774.083
774.105
774.128
774.15
774.173
774.197
774.22
774.245
774.27
774.296
774.323
774.35
774.377
774.405
774.434
774.462
774.492
774.521
774.552
774.583
774.615
774.648
774.681
774.716
774.751
774.787
774.824
774.863
774.902
774.942
774.982
775.023
775.065
775.108
775.15
775.193
775.237
775.281
775.325
775.371
775.417
775.464
775.512
775.562
775.612
775.663
775.715
775.768
775.821
775.876
775.931
775.988
776.045
776.103
776.162
776.221
776.282
776.343
776.405
776.468
776.532
776.597
776.663
776.729
776.796
776.865
776.933
777.003
777.074
777.145
777.218
777.291
777.365
777.44
777.516
777.592
777.669
777.747
777.826
777.906
777.986
778.068
778.15
778.232
778.316
778.4
778.485
778.571
778.657
778.744
778.832
778.919
779.011
779.097
779.19
779.28
779.369
779.468
779.548
779.657
779.734
779.844
779.923
780.03
780.122
780.208
780.323
780.398
780.494
773.498
773.498
773.498
773.498
773.498
773.498
773.498
773.498
773.498
773.499
773.499
773.499
773.499
773.5
773.5
773.5
773.501
773.501
773.502
773.502
773.503
773.504
773.505
773.505
773.506
773.507
773.509
773.51
773.511
773.512
773.514
773.516
773.517
773.519
773.521
773.524
773.526
773.528
773.531
773.534
773.537
773.54
773.543
773.547
773.55
773.554
773.559
773.563
773.567
773.572
773.577
773.583
773.588
773.594
773.6
773.607
773.614
773.621
773.628
773.636
773.644
773.652
773.661
773.67
773.679
773.688
773.699
773.71
773.721
773.733
773.745
773.757
773.77
773.783
773.796
773.809
773.822
773.835
773.848
773.862
773.877
773.893
773.909
773.926
773.943
773.961
773.98
773.999
774.019
774.04
774.061
774.083
774.105
774.128
774.15
774.173
774.197
774.22
774.245
774.27
774.296
774.322
774.35
774.377
774.405
774.434
774.462
774.492
774.521
774.552
774.583
774.615
774.648
774.681
774.716
774.751
774.787
774.824
774.863
774.902
774.942
774.982
775.023
775.065
775.108
775.15
775.193
775.237
775.281
775.325
775.371
775.417
775.464
775.512
775.562
775.612
775.663
775.715
775.768
775.821
775.876
775.931
775.988
776.045
776.103
776.162
776.221
776.282
776.343
776.405
776.468
776.532
776.597
776.663
776.729
776.796
776.865
776.933
777.003
777.074
777.145
777.218
777.291
777.365
777.44
777.516
777.592
777.669
777.747
777.826
777.906
777.986
778.068
778.15
778.232
778.316
778.4
778.485
778.571
778.656
778.745
778.83
778.923
779.005
779.103
779.184
779.285
779.365
779.469
779.549
779.656
779.734
779.845
779.92
780.038
780.106
780.232
780.292
780.44
780.429
773.498
773.498
773.498
773.498
773.498
773.498
773.498
773.498
773.498
773.498
773.499
773.499
773.499
773.499
773.5
773.5
773.501
773.501
773.502
773.502
773.503
773.504
773.504
773.505
773.506
773.507
773.508
773.51
773.511
773.512
773.514
773.515
773.517
773.519
773.521
773.523
773.526
773.528
773.531
773.534
773.537
773.54
773.543
773.547
773.55
773.554
773.558
773.563
773.567
773.572
773.577
773.583
773.588
773.594
773.6
773.607
773.613
773.62
773.628
773.635
773.643
773.652
773.66
773.669
773.679
773.688
773.699
773.709
773.721
773.733
773.745
773.757
773.77
773.783
773.796
773.809
773.822
773.835
773.848
773.862
773.877
773.893
773.909
773.926
773.943
773.961
773.979
773.999
774.019
774.04
774.061
774.083
774.105
774.128
774.15
774.173
774.196
774.22
774.245
774.27
774.296
774.322
774.35
774.377
774.405
774.433
774.462
774.491
774.521
774.552
774.583
774.615
774.648
774.681
774.716
774.751
774.787
774.824
774.863
774.902
774.941
774.982
775.023
775.065
775.108
775.15
775.193
775.237
775.281
775.325
775.371
775.417
775.464
775.512
775.562
775.612
775.663
775.715
775.768
775.821
775.876
775.931
775.988
776.045
776.103
776.162
776.221
776.282
776.343
776.405
776.468
776.532
776.597
776.663
776.729
776.796
776.865
776.933
777.003
777.074
777.145
777.218
777.291
777.365
777.44
777.516
777.592
777.669
777.747
777.826
777.906
777.986
778.068
778.15
778.232
778.316
778.4
778.485
778.571
778.656
778.745
778.829
778.923
779.005
779.103
779.184
779.285
779.365
779.47
779.547
779.658
779.732
779.846
779.919
780.038
780.106
780.232
780.291
780.46
780.244
773.498
773.498
773.498
773.498
773.498
773.498
773.498
773.498
773.498
773.498
773.499
773.499
773.499
773.499
773.5
773.5
773.501
773.501
773.502
773.502
773.503
773.504
773.504
773.505
773.506
773.507
773.508
773.51
773.511
773.512
773.514
773.516
773.517
773.519
773.521
773.523
773.526
773.528
773.531
773.534
773.537
773.54
773.543
773.547
773.55
773.554
773.558
773.563
773.567
773.572
773.577
773.583
773.588
773.594
773.6
773.607
773.613
773.621
773.628
773.636
773.643
773.652
773.661
773.669
773.679
773.688
773.699
773.71
773.721
773.733
773.745
773.757
773.77
773.783
773.796
773.809
773.822
773.835
773.848
773.862
773.877
773.893
773.909
773.926
773.943
773.961
773.979
773.999
774.019
774.04
774.061
774.083
774.105
774.128
774.15
774.173
774.197
774.22
774.245
774.27
774.296
774.322
774.35
774.377
774.405
774.434
774.462
774.492
774.521
774.552
774.583
774.615
774.648
774.681
774.716
774.751
774.787
774.824
774.863
774.902
774.942
774.982
775.023
775.065
775.108
775.15
775.193
775.237
775.281
775.325
775.371
775.417
775.464
775.512
775.562
775.612
775.663
775.715
775.768
775.821
775.876
775.931
775.988
776.045
776.103
776.162
776.221
776.282
776.343
776.405
776.468
776.532
776.597
776.663
776.729
776.796
776.865
776.934
777.003
777.074
777.146
777.218
777.291
777.365
777.44
777.516
777.592
777.669
777.747
777.826
777.906
777.986
778.068
778.15
778.233
778.316
778.4
778.485
778.571
778.656
778.746
778.829
778.923
779.005
779.103
779.184
779.285
779.365
779.47
779.547
779.658
779.732
779.847
779.919
780.039
780.106
780.233
780.29
780.472
780.127
773.523
773.523
773.523
773.523
773.523
773.523
773.523
773.523
773.524
773.524
773.524
773.524
773.524
773.524
773.525
773.525
773.525
773.526
773.526
773.527
773.528
773.528
773.529
773.53
773.531
773.532
773.533
773.534
773.535
773.536
773.538
773.54
773.541
773.543
773.545
773.547
773.549
773.552
773.554
773.557
773.56
773.563
773.567
773.57
773.574
773.577
773.582
773.586
773.59
773.595
773.6
773.606
773.611
773.617
773.623
773.629
773.636
773.643
773.65
773.658
773.666
773.674
773.683
773.692
773.701
773.71
773.721
773.732
773.743
773.754
773.766
773.779
773.791
773.804
773.817
773.83
773.843
773.856
773.869
773.883
773.898
773.913
773.93
773.946
773.964
773.981
774
774.02
774.04
774.06
774.082
774.103
774.125
774.148
774.17
774.193
774.216
774.24
774.264
774.289
774.315
774.342
774.369
774.396
774.424
774.452
774.481
774.51
774.54
774.57
774.601
774.633
774.666
774.7
774.734
774.769
774.806
774.843
774.881
774.92
774.96
775
775.042
775.083
775.126
775.168
775.211
775.254
775.298
775.342
775.388
775.434
775.481
775.529
775.579
775.629
775.68
775.732
775.785
775.838
775.893
775.948
776.004
776.061
776.119
776.178
776.238
776.298
776.359
776.421
776.484
776.548
776.613
776.679
776.745
776.812
776.88
776.949
777.019
777.09
777.162
777.234
777.307
777.381
777.456
777.532
777.608
777.685
777.764
777.842
777.922
778.003
778.084
778.166
778.249
778.332
778.417
778.501
778.587
778.672
778.762
778.846
778.939
779.022
779.119
779.2
779.301
779.381
779.486
779.563
779.674
779.748
779.864
779.934
780.056
780.121
780.249
780.306
780.499
780.036
780.721
780.782
780.818
780.841
780.861
780.882
780.903
780.924
780.945
780.964
780.983
781
781.016
781.031
781.044
781.056
781.067
781.076
781.082
781.058
780.716
780.763
780.79
780.806
780.822
780.839
780.856
780.873
780.891
780.908
780.926
780.944
780.961
780.978
780.994
781.008
781.021
781.03
781.038
781.017
780.717
780.767
780.794
780.813
780.829
780.844
780.858
780.875
780.889
780.906
780.925
780.938
780.957
780.971
780.985
780.999
781.008
781.019
781.022
781.013
780.677
780.711
780.738
780.756
780.777
780.796
780.817
780.835
780.855
780.873
780.891
780.911
780.93
780.951
780.972
780.995
781.013
781.026
781.04
781.04
780.619
780.656
780.687
780.713
780.738
780.758
780.779
780.796
780.814
780.827
780.842
780.85
780.859
780.865
780.872
780.878
780.887
780.894
780.906
780.914
780.541
780.549
780.56
780.573
780.588
780.604
780.624
780.644
780.672
780.697
780.732
780.761
780.799
780.83
780.868
780.902
780.94
780.971
781.004
781.027
780.45
780.464
780.476
780.494
780.512
780.528
780.541
780.551
780.56
780.567
780.569
780.575
780.577
780.581
780.587
780.594
780.605
780.618
780.646
780.676
780.339
780.319
780.306
780.31
780.323
780.339
780.356
780.375
780.396
780.42
780.448
780.481
780.518
780.555
780.598
780.639
780.689
780.735
780.787
780.833
780.244
780.223
780.207
780.204
780.209
780.217
780.227
780.237
780.248
780.261
780.276
780.292
780.311
780.336
780.362
780.394
780.431
780.476
780.528
780.59
780.198
780.163
780.129
780.124
780.133
780.148
780.165
780.191
780.217
780.249
780.281
780.32
780.36
780.404
780.45
780.5
780.554
780.615
780.68
780.753
781.069
781.101
781.162
781.235
781.302
781.372
781.448
781.527
781.608
781.689
781.769
781.845
781.921
781.996
782.072
782.149
782.227
782.305
782.383
782.46
782.537
782.615
782.692
782.769
782.846
782.923
783
783.077
783.154
783.23
783.307
783.383
783.459
783.534
783.61
783.685
783.76
783.835
783.91
783.984
784.058
784.131
784.205
784.278
784.351
784.424
784.497
784.569
784.641
784.712
784.783
784.854
784.924
784.994
785.063
785.132
785.201
785.269
785.337
785.405
785.473
785.54
785.607
785.673
785.739
785.804
785.869
785.934
785.999
786.063
786.127
786.19
786.253
786.316
786.378
786.439
786.5
786.56
786.62
786.679
786.738
786.797
786.856
786.914
786.972
787.03
787.087
787.143
787.199
787.254
787.309
787.363
787.417
787.471
787.524
787.577
787.63
787.682
787.733
787.784
787.834
787.884
787.934
787.983
788.033
788.082
788.13
788.178
788.226
788.273
788.32
788.366
788.411
788.456
788.501
788.545
788.589
788.632
788.675
788.718
788.76
788.801
788.842
788.883
788.924
788.964
789.004
789.044
789.083
789.122
789.161
789.199
789.236
789.274
789.31
789.347
789.383
789.419
789.454
789.489
789.524
789.558
789.592
789.625
789.658
789.689
789.719
789.75
789.781
789.812
789.843
789.873
789.901
789.926
789.949
789.97
789.989
790.008
790.028
790.056
790.091
790.122
790.127
790.118
790.106
790.11
790.172
790.42
790.883
791.388
791.902
792.39
792.827
793.198
793.489
793.679
793.756
793.758
793.735
793.634
793.278
792.704
792.179
791.733
791.391
791.147
790.985
790.873
790.797
790.741
790.715
790.705
790.725
790.738
790.772
790.781
790.812
790.818
790.854
790.86
781.031
781.061
781.123
781.197
781.265
781.332
781.405
781.482
781.561
781.641
781.721
781.798
781.873
781.948
782.023
782.099
782.176
782.254
782.331
782.409
782.486
782.563
782.64
782.717
782.794
782.871
782.948
783.025
783.101
783.178
783.254
783.33
783.406
783.482
783.557
783.632
783.707
783.782
783.857
783.931
784.005
784.078
784.152
784.225
784.297
784.37
784.443
784.515
784.587
784.659
784.73
784.8
784.87
784.94
785.009
785.078
785.147
785.215
785.283
785.351
785.418
785.486
785.552
785.619
785.685
785.75
785.815
785.88
785.944
786.008
786.072
786.135
786.198
786.261
786.323
786.384
786.445
786.506
786.566
786.625
786.684
786.742
786.801
786.859
786.917
786.974
787.031
787.088
787.144
787.199
787.254
787.308
787.362
787.416
787.469
787.522
787.574
787.626
787.678
787.729
787.78
787.83
787.879
787.928
787.977
788.025
788.074
788.122
788.169
788.217
788.264
788.31
788.355
788.401
788.445
788.489
788.533
788.576
788.619
788.662
788.704
788.746
788.787
788.828
788.868
788.908
788.948
788.987
789.026
789.065
789.104
789.142
789.18
789.218
789.255
789.291
789.327
789.363
789.399
789.434
789.468
789.503
789.537
789.571
789.604
789.636
789.668
789.7
789.731
789.761
789.792
789.823
789.85
789.878
789.905
789.93
789.953
789.978
790.006
790.035
790.065
790.092
790.116
790.128
790.121
790.106
790.096
790.097
790.09
790.073
790.048
790.032
790.033
790.074
790.177
790.306
790.451
790.593
790.729
790.849
790.94
791.006
791.019
791.009
790.983
790.931
790.877
790.821
790.777
790.742
790.728
790.722
790.735
790.74
790.764
790.771
790.799
790.806
790.835
790.849
781.03
781.063
781.13
781.205
781.273
781.342
781.415
781.492
781.571
781.652
781.731
781.807
781.882
781.956
782.032
782.109
782.187
782.265
782.342
782.419
782.496
782.573
782.65
782.727
782.804
782.881
782.958
783.035
783.112
783.188
783.264
783.341
783.416
783.492
783.568
783.643
783.718
783.793
783.867
783.941
784.015
784.089
784.162
784.235
784.308
784.381
784.453
784.526
784.598
784.669
784.74
784.811
784.881
784.951
785.02
785.089
785.158
785.226
785.294
785.362
785.429
785.496
785.563
785.629
785.695
785.761
785.826
785.89
785.955
786.019
786.082
786.146
786.209
786.271
786.333
786.395
786.456
786.516
786.576
786.635
786.694
786.753
786.811
786.869
786.927
786.985
787.042
787.098
787.154
787.21
787.264
787.319
787.373
787.426
787.479
787.532
787.585
787.637
787.688
787.74
787.79
787.84
787.889
787.938
787.987
788.036
788.084
788.132
788.18
788.227
788.274
788.32
788.366
788.411
788.456
788.5
788.543
788.587
788.629
788.672
788.714
788.756
788.797
788.838
788.878
788.918
788.958
788.997
789.036
789.075
789.114
789.152
789.19
789.227
789.264
789.3
789.336
789.372
789.407
789.442
789.477
789.511
789.546
789.58
789.613
789.645
789.677
789.709
789.74
789.772
789.802
789.832
789.861
789.89
789.915
789.939
789.966
789.989
790.014
790.047
790.081
790.109
790.131
790.139
790.129
790.106
790.076
790.052
790.035
790.017
789.999
789.984
789.981
789.994
790.048
790.112
790.209
790.294
790.401
790.481
790.576
790.632
790.698
790.721
790.749
790.747
790.747
790.738
790.732
790.724
790.727
790.726
790.741
790.745
790.768
790.775
790.802
790.808
790.837
790.846
781.079
781.112
781.184
781.269
781.351
781.432
781.508
781.584
781.661
781.741
781.822
781.903
781.984
782.063
782.141
782.218
782.295
782.372
782.449
782.527
782.605
782.683
782.76
782.838
782.915
782.992
783.069
783.146
783.223
783.299
783.376
783.452
783.528
783.603
783.679
783.754
783.829
783.904
783.979
784.053
784.127
784.2
784.274
784.347
784.42
784.493
784.565
784.637
784.709
784.781
784.852
784.923
784.993
785.063
785.132
785.201
785.27
785.338
785.406
785.474
785.541
785.608
785.675
785.741
785.807
785.873
785.938
786.002
786.067
786.131
786.195
786.258
786.321
786.384
786.445
786.507
786.568
786.628
786.688
786.747
786.806
786.865
786.924
786.982
787.04
787.097
787.154
787.21
787.266
787.322
787.376
787.431
787.485
787.538
787.592
787.644
787.697
787.749
787.8
787.851
787.901
787.951
788.001
788.051
788.1
788.149
788.197
788.245
788.293
788.34
788.386
788.432
788.478
788.523
788.567
788.611
788.655
788.699
788.741
788.784
788.826
788.867
788.908
788.949
788.99
789.03
789.071
789.11
789.149
789.188
789.227
789.265
789.302
789.339
789.376
789.413
789.448
789.484
789.52
789.555
789.589
789.623
789.655
789.687
789.72
789.752
789.783
789.815
789.846
789.874
789.901
789.927
789.951
789.974
789.998
790.025
790.053
790.082
790.11
790.135
790.151
790.158
790.158
790.157
790.157
790.16
790.164
790.168
790.173
790.181
790.199
790.219
790.256
790.288
790.336
790.373
790.421
790.459
790.499
790.532
790.563
790.585
790.611
790.619
790.643
790.645
790.663
790.667
790.687
790.691
790.714
790.72
790.745
790.752
790.779
790.785
790.811
790.818
790.839
790.852
780.955
781.024
781.092
781.157
781.23
781.304
781.381
781.459
781.538
781.617
781.695
781.773
781.85
781.927
782.005
782.084
782.162
782.24
782.317
782.395
782.472
782.549
782.626
782.703
782.779
782.856
782.933
783.01
783.086
783.163
783.239
783.315
783.391
783.467
783.542
783.617
783.692
783.767
783.842
783.916
783.99
784.064
784.137
784.21
784.283
784.356
784.428
784.5
784.571
784.643
784.714
784.785
784.855
784.925
784.995
785.064
785.133
785.202
785.27
785.337
785.405
785.472
785.538
785.604
785.67
785.736
785.801
785.866
785.93
785.994
786.057
786.12
786.183
786.245
786.307
786.368
786.43
786.49
786.551
786.611
786.67
786.729
786.787
786.845
786.903
786.96
787.016
787.072
787.128
787.184
787.239
787.294
787.348
787.402
787.455
787.508
787.56
787.612
787.664
787.715
787.765
787.816
787.865
787.915
787.964
788.012
788.06
788.108
788.155
788.201
788.248
788.294
788.339
788.385
788.43
788.474
788.518
788.562
788.605
788.648
788.69
788.732
788.774
788.814
788.855
788.895
788.935
788.975
789.014
789.053
789.091
789.129
789.167
789.205
789.242
789.279
789.315
789.351
789.387
789.422
789.457
789.491
789.526
789.56
789.594
789.627
789.66
789.692
789.724
789.755
789.787
789.818
789.849
789.879
789.909
789.939
789.967
789.993
790.019
790.046
790.075
790.103
790.13
790.155
790.176
790.195
790.212
790.227
790.242
790.257
790.274
790.295
790.314
790.343
790.363
790.396
790.418
790.447
790.472
790.495
790.523
790.539
790.566
790.581
790.604
790.62
790.638
790.66
790.671
790.698
790.706
790.73
790.745
790.76
790.78
790.794
790.81
790.826
790.844
790.856
781.093
781.195
781.299
781.4
781.496
781.588
781.678
781.767
781.855
781.942
782.028
782.112
782.196
782.279
782.361
782.441
782.521
782.601
782.679
782.758
782.836
782.914
782.991
783.069
783.146
783.223
783.3
783.377
783.454
783.53
783.607
783.683
783.759
783.834
783.91
783.985
784.06
784.135
784.21
784.284
784.358
784.432
784.505
784.578
784.651
784.724
784.797
784.87
784.942
785.013
785.084
785.155
785.225
785.294
785.363
785.432
785.501
785.569
785.637
785.705
785.772
785.839
785.906
785.972
786.038
786.104
786.169
786.234
786.299
786.363
786.427
786.49
786.553
786.615
786.676
786.737
786.798
786.858
786.918
786.978
787.037
787.096
787.155
787.213
787.27
787.327
787.383
787.439
787.494
787.549
787.604
787.659
787.713
787.766
787.819
787.871
787.923
787.975
788.027
788.078
788.129
788.18
788.23
788.28
788.329
788.377
788.425
788.473
788.52
788.566
788.612
788.658
788.703
788.748
788.792
788.836
788.879
788.921
788.963
789.005
789.046
789.087
789.127
789.167
789.206
789.245
789.283
789.32
789.357
789.394
789.429
789.464
789.497
789.53
789.562
789.594
789.626
789.658
789.689
789.72
789.75
789.78
789.807
789.833
789.858
789.882
789.904
789.927
789.949
789.973
789.999
790.026
790.054
790.081
790.108
790.131
790.148
790.16
790.167
790.172
790.174
790.174
790.173
790.173
790.175
790.182
790.189
790.201
790.21
790.225
790.237
790.258
790.272
790.3
790.32
790.355
790.379
790.42
790.444
790.486
790.505
790.546
790.56
790.597
790.607
790.64
790.648
790.678
790.685
790.713
790.72
790.747
790.752
790.778
790.784
790.809
790.814
790.838
790.844
790.866
780.774
780.859
780.933
781.007
781.08
781.155
781.23
781.306
781.383
781.459
781.535
781.612
781.688
781.765
781.842
781.919
781.997
782.074
782.151
782.229
782.306
782.383
782.46
782.537
782.613
782.69
782.766
782.842
782.919
782.995
783.071
783.147
783.223
783.298
783.374
783.449
783.524
783.598
783.673
783.747
783.821
783.895
783.968
784.041
784.114
784.187
784.259
784.331
784.402
784.474
784.545
784.615
784.686
784.755
784.825
784.894
784.963
785.032
785.1
785.168
785.236
785.303
785.37
785.436
785.502
785.567
785.632
785.697
785.761
785.825
785.888
785.951
786.014
786.076
786.138
786.2
786.261
786.321
786.382
786.441
786.501
786.559
786.618
786.676
786.734
786.791
786.849
786.905
786.962
787.017
787.073
787.127
787.181
787.235
787.288
787.341
787.393
787.446
787.498
787.549
787.6
787.651
787.701
787.75
787.799
787.848
787.896
787.943
787.99
788.037
788.084
788.13
788.175
788.221
788.266
788.31
788.354
788.398
788.441
788.483
788.525
788.566
788.607
788.648
788.689
788.729
788.769
788.809
788.848
788.887
788.926
788.964
789.001
789.038
789.075
789.111
789.147
789.183
789.218
789.253
789.288
789.322
789.356
789.39
789.422
789.454
789.486
789.518
789.549
789.579
789.608
789.639
789.669
789.701
789.732
789.761
789.788
789.816
789.847
789.877
789.905
789.934
789.962
789.989
790.013
790.041
790.072
790.109
790.141
790.178
790.206
790.237
790.251
790.263
790.259
790.259
790.262
790.283
790.307
790.356
790.391
790.448
790.479
790.533
790.554
790.602
790.616
790.656
790.667
790.7
790.709
790.74
790.747
790.775
790.781
790.806
790.813
790.834
790.848
790.864
780.994
781.112
781.219
781.321
781.421
781.519
781.615
781.71
781.804
781.896
781.987
782.077
782.166
782.253
782.338
782.423
782.505
782.587
782.667
782.746
782.825
782.904
782.981
783.059
783.136
783.214
783.29
783.367
783.444
783.52
783.597
783.673
783.749
783.825
783.9
783.975
784.05
784.125
784.2
784.274
784.348
784.421
784.495
784.568
784.64
784.713
784.786
784.858
784.931
785.003
785.074
785.145
785.215
785.284
785.353
785.422
785.49
785.559
785.627
785.694
785.762
785.828
785.895
785.961
786.026
786.092
786.157
786.222
786.287
786.352
786.416
786.479
786.541
786.603
786.664
786.724
786.784
786.844
786.903
786.962
787.021
787.079
787.136
787.193
787.249
787.305
787.36
787.414
787.469
787.523
787.577
787.63
787.683
787.735
787.786
787.837
787.887
787.937
787.987
788.037