/*--------------------------------*- C++ -*----------------------------------*\
| =========                 |                                                 |
| \\      /  F ield         | OpenFOAM: The Open Source CFD Toolbox           |
|  \\    /   O peration     | Version:  3.0.x                                 |
|   \\  /    A nd           | Web:      www.OpenFOAM.org                      |
|    \\/     M anipulation  |                                                 |
\*---------------------------------------------------------------------------*/
FoamFile
{
    version     2.0;
    format      ascii;
    class       surfaceScalarField;
    location    "0.4";
    object      phi;
}
// * * * * * * * * * * * * * * * * * * * * * * * * * * * * * * * * * * * * * //

dimensions      [1 0 -1 0 0 0 0];

internalField   nonuniform List<scalar> 
12415
(
5.79707
0.000327729
5.79667
0.000234963
5.79628
0.000224786
5.7959
0.000226677
5.79553
0.000227119
5.79517
0.000226874
5.79483
0.000226895
5.7945
0.000226826
5.79419
0.000226848
5.7939
0.000226839
5.79363
0.000226828
5.79338
0.000226851
5.79315
0.000226791
5.79293
0.000226839
5.79272
0.000226852
5.79253
0.00022682
5.79235
0.000226832
5.79217
0.000226866
5.79199
0.000226871
5.79182
0.000226893
5.79164
0.000226919
5.79146
0.000226988
5.79127
0.000226988
5.79107
0.000227021
5.79086
0.000227239
5.79064
0.000227136
5.7904
0.000227277
5.79014
0.000227355
5.78986
0.000227444
5.78955
0.000227533
5.78921
0.000227624
5.78885
0.000227718
5.78847
0.000227815
5.78808
0.000227941
5.78767
0.000228159
5.78726
0.000227945
5.78685
0.000228222
5.78643
0.000228335
5.78602
0.000228443
5.78561
0.000228548
5.78521
0.000228647
5.78483
0.000228736
5.78445
0.000228806
5.78409
0.000228848
5.78375
0.000228847
5.78341
0.000228784
5.7831
0.000228637
5.78281
0.000228376
5.78254
0.000227963
5.78229
0.000227355
5.78207
0.000226491
5.78188
0.000225338
5.7817
0.000223786
5.78154
0.000221788
5.78138
0.000219262
5.78124
0.00021613
5.78109
0.000212322
5.78094
0.000207775
5.78079
0.000202438
5.78063
0.000196282
5.78046
0.0001893
5.78028
0.000181508
5.78009
0.000172951
5.77988
0.000163634
5.77966
0.00015389
5.77942
0.000143433
5.77917
0.000132756
5.77891
0.000121842
5.77863
0.000110877
5.77835
0.000100011
5.77805
8.93935e-05
5.77776
7.91562e-05
5.77746
6.94172e-05
5.77717
6.02744e-05
5.77689
5.18013e-05
5.77661
4.4048e-05
5.77636
3.70434e-05
5.77612
3.07926e-05
5.77591
2.52824e-05
5.77572
2.04835e-05
5.77557
1.63537e-05
5.77544
1.28407e-05
5.77534
9.89015e-06
5.77527
7.43295e-06
5.77523
5.41809e-06
5.77522
3.77466e-06
5.77523
2.46193e-06
5.77527
1.41028e-06
5.77532
5.8944e-07
5.77539
-4.96802e-08
5.77547
-5.40855e-07
5.77556
-9.09829e-07
5.77564
-1.18663e-06
5.77572
-1.38896e-06
5.77578
-1.53527e-06
5.77583
-1.63875e-06
5.77586
-1.70978e-06
5.77587
-1.75598e-06
5.77584
-1.78954e-06
5.77579
-1.80383e-06
5.7757
-1.81039e-06
5.77558
-1.81043e-06
5.77543
-1.8081e-06
5.77524
-1.80289e-06
5.77503
-1.79771e-06
5.77479
-1.79172e-06
5.77453
-1.78695e-06
5.77425
-1.78462e-06
5.77397
-1.7826e-06
5.77368
-1.7845e-06
5.77339
-1.78786e-06
5.77311
-1.79422e-06
5.77286
-1.80228e-06
5.77262
-1.81304e-06
5.77241
-1.82551e-06
5.77223
-1.83953e-06
5.77209
-1.85468e-06
5.77199
-1.86895e-06
5.77193
-1.88079e-06
5.7719
-1.90201e-06
5.77191
-1.91533e-06
5.77196
-1.93163e-06
5.77204
-1.94145e-06
5.77214
-1.95283e-06
5.77227
-1.95983e-06
5.77241
-1.96589e-06
5.77256
-1.96838e-06
5.77272
-1.96868e-06
5.77287
-1.96597e-06
5.773
-1.96059e-06
5.77312
-1.95192e-06
5.77322
-1.94165e-06
5.77328
-1.92814e-06
5.77331
-1.91247e-06
5.7733
-1.89519e-06
5.77324
-1.88007e-06
5.77313
-1.8744e-06
5.77298
-1.83237e-06
5.77278
-1.81912e-06
5.77253
-1.8017e-06
5.77225
-1.78611e-06
5.77192
-1.77219e-06
5.77157
-1.76074e-06
5.7712
-1.75384e-06
5.77082
-1.74918e-06
5.77044
-1.75056e-06
5.77008
-1.75444e-06
5.76973
-1.76359e-06
5.76942
-1.77595e-06
5.76915
-1.79159e-06
5.76893
-1.81049e-06
5.76876
-1.83069e-06
5.76865
-1.85304e-06
5.76859
-1.87303e-06
5.76859
-1.88535e-06
5.76864
-1.92376e-06
5.76874
-1.93485e-06
5.76889
-1.95514e-06
5.76907
-1.9701e-06
5.76928
-1.98066e-06
5.76952
-1.99152e-06
5.76978
-1.99627e-06
5.77004
-2.00018e-06
5.7703
-1.99927e-06
5.77056
-1.99625e-06
5.7708
-1.9892e-06
5.77101
-1.97856e-06
5.77118
-1.96514e-06
5.77131
-1.94694e-06
5.77138
-1.92578e-06
5.77139
-1.90126e-06
5.77133
-1.88662e-06
5.7712
-1.84339e-06
5.77099
-1.81827e-06
5.7707
-1.78549e-06
5.77033
-1.75408e-06
5.76989
-1.72718e-06
5.76939
-1.70107e-06
5.76884
-1.68516e-06
5.76825
-1.66598e-06
5.76765
-1.66356e-06
5.76705
-1.65837e-06
5.76647
-1.67028e-06
5.76593
-1.68128e-06
5.76546
-1.70644e-06
5.76505
-1.73031e-06
5.76474
-1.7666e-06
5.76451
-1.79615e-06
5.76436
-1.83642e-06
5.76429
-1.88617e-06
5.76429
-1.7565e-06
5.76434
-2.17313e-06
5.76442
-9.6835e-07
5.76452
2.83725e-06
5.7646
3.24233e-05
5.76448
0.000236505
5.76293
0.00166445
5.75144
0.011608
5.66104
0.0905291
0.447401
5.21376
11.5949
0.000260467
11.5946
0.000215472
11.5943
0.000189699
11.594
0.000194034
11.5938
0.000195318
11.5935
0.000194704
11.5933
0.000194575
11.5932
0.00019456
11.593
0.000194573
11.5929
0.000194569
11.5929
0.000194567
11.5929
0.000194594
11.5929
0.00019456
11.5929
0.000194602
11.593
0.000194612
11.5931
0.000194614
11.5932
0.000194614
11.5934
0.000194666
11.5935
0.000194679
11.5936
0.000194712
11.5938
0.000194743
11.5939
0.000194802
11.594
0.000194825
11.5941
0.000194875
11.5941
0.000195028
11.5942
0.000195007
11.5942
0.000195106
11.5942
0.000195193
11.5941
0.000195279
11.5939
0.000195366
11.5938
0.000195456
11.5935
0.000195548
11.5933
0.000195643
11.593
0.000195759
11.5926
0.000195916
11.5923
0.00019584
11.592
0.000196031
11.5916
0.000196146
11.5913
0.00019625
11.5909
0.000196352
11.5906
0.000196448
11.5904
0.000196536
11.5901
0.000196607
11.5899
0.000196654
11.5897
0.000196663
11.5895
0.000196619
11.5893
0.000196502
11.5892
0.000196285
11.5892
0.000195935
11.5892
0.000195419
11.5892
0.000194675
11.5893
0.000193683
11.5895
0.000192345
11.5896
0.000190618
11.5898
0.000188433
11.5899
0.000185723
11.5901
0.000182426
11.5902
0.00017849
11.5904
0.000173871
11.5905
0.000168544
11.5905
0.000162504
11.5906
0.000155766
11.5906
0.000148369
11.5905
0.000140337
11.5904
0.000131894
11.5902
0.000122901
11.59
0.000113691
11.5897
0.000104288
11.5894
9.48533e-05
11.589
8.55079e-05
11.5887
7.63852e-05
11.5882
6.75952e-05
11.5878
5.92406e-05
11.5873
5.14039e-05
11.5869
4.41478e-05
11.5864
3.75124e-05
11.586
3.15243e-05
11.5856
2.61845e-05
11.5852
2.14815e-05
11.5849
1.7389e-05
11.5846
1.38708e-05
11.5844
1.08793e-05
11.5842
8.36954e-06
11.5841
6.28279e-06
11.584
4.57081e-06
11.584
3.17797e-06
11.584
2.06459e-06
11.5841
1.17501e-06
11.5842
4.82897e-07
11.5844
-5.82256e-08
11.5845
-4.72975e-07
11.5847
-7.85637e-07
11.5848
-1.02036e-06
11.585
-1.19251e-06
11.5851
-1.31712e-06
11.5852
-1.40537e-06
11.5853
-1.46605e-06
11.5853
-1.50588e-06
11.5852
-1.53371e-06
11.5851
-1.54756e-06
11.5849
-1.55211e-06
11.5847
-1.55235e-06
11.5844
-1.55052e-06
11.584
-1.54608e-06
11.5836
-1.54162e-06
11.5831
-1.53654e-06
11.5826
-1.53252e-06
11.582
-1.53043e-06
11.5814
-1.52885e-06
11.5808
-1.53029e-06
11.5803
-1.53329e-06
11.5797
-1.53873e-06
11.5792
-1.5457e-06
11.5787
-1.55487e-06
11.5783
-1.56558e-06
11.5779
-1.57757e-06
11.5776
-1.59052e-06
11.5774
-1.60285e-06
11.5773
-1.61348e-06
11.5772
-1.63048e-06
11.5773
-1.64334e-06
11.5774
-1.65616e-06
11.5775
-1.66498e-06
11.5777
-1.6746e-06
11.578
-1.68086e-06
11.5782
-1.68581e-06
11.5785
-1.6882e-06
11.5788
-1.68821e-06
11.5791
-1.68611e-06
11.5794
-1.68127e-06
11.5796
-1.67413e-06
11.5798
-1.66491e-06
11.58
-1.65375e-06
11.58
-1.63999e-06
11.58
-1.6256e-06
11.5798
-1.61342e-06
11.5796
-1.60129e-06
11.5793
-1.57551e-06
11.5789
-1.56077e-06
11.5784
-1.54525e-06
11.5778
-1.53179e-06
11.5772
-1.51932e-06
11.5765
-1.51065e-06
11.5757
-1.50385e-06
11.575
-1.5003e-06
11.5742
-1.50125e-06
11.5735
-1.50468e-06
11.5728
-1.5124e-06
11.5722
-1.52314e-06
11.5716
-1.53636e-06
11.5712
-1.55294e-06
11.5708
-1.5697e-06
11.5706
-1.58957e-06
11.5705
-1.60443e-06
11.5705
-1.62792e-06
11.5706
-1.64344e-06
11.5708
-1.65668e-06
11.571
-1.67663e-06
11.5714
-1.68991e-06
11.5718
-1.69797e-06
11.5723
-1.70812e-06
11.5728
-1.71202e-06
11.5733
-1.71536e-06
11.5739
-1.71425e-06
11.5744
-1.71239e-06
11.5748
-1.70549e-06
11.5752
-1.69705e-06
11.5756
-1.68518e-06
11.5758
-1.66965e-06
11.576
-1.65148e-06
11.576
-1.63148e-06
11.5759
-1.61827e-06
11.5756
-1.56859e-06
11.5752
-1.56672e-06
11.5746
-1.53546e-06
11.5739
-1.50321e-06
11.573
-1.48256e-06
11.572
-1.45652e-06
11.5709
-1.44912e-06
11.5697
-1.42479e-06
11.5685
-1.43055e-06
11.5673
-1.41872e-06
11.5661
-1.43529e-06
11.565
-1.4392e-06
11.5641
-1.46582e-06
11.5633
-1.47881e-06
11.5626
-1.52098e-06
11.5622
-1.5346e-06
11.5619
-1.58621e-06
11.5617
-1.6625e-06
11.5617
-1.23396e-06
11.5618
-2.44049e-06
11.562
1.19201e-06
11.5622
1.24752e-05
11.5623
0.000100138
11.5621
0.000704809
11.559
0.0049341
11.5367
0.03423
11.3877
0.239788
1.12722
10.7081
139.139
-0.000260467
139.135
-0.000215472
139.131
-0.000189699
139.128
-0.000194034
139.125
-0.000195318
139.122
-0.000194704
139.12
-0.000194575
139.118
-0.00019456
139.116
-0.000194573
139.115
-0.000194569
139.115
-0.000194567
139.114
-0.000194594
139.114
-0.00019456
139.115
-0.000194602
139.116
-0.000194612
139.117
-0.000194614
139.119
-0.000194614
139.12
-0.000194666
139.122
-0.000194679
139.123
-0.000194712
139.125
-0.000194743
139.126
-0.000194802
139.128
-0.000194825
139.129
-0.000194875
139.129
-0.000195028
139.13
-0.000195007
139.13
-0.000195106
139.13
-0.000195193
139.129
-0.000195279
139.127
-0.000195366
139.125
-0.000195456
139.122
-0.000195548
139.119
-0.000195643
139.115
-0.000195759
139.112
-0.000195916
139.108
-0.00019584
139.103
-0.000196031
139.099
-0.000196146
139.095
-0.00019625
139.091
-0.000196352
139.088
-0.000196448
139.084
-0.000196536
139.081
-0.000196607
139.078
-0.000196654
139.076
-0.000196663
139.074
-0.000196619
139.072
-0.000196502
139.071
-0.000196285
139.07
-0.000195935
139.07
-0.000195419
139.071
-0.000194675
139.072
-0.000193683
139.074
-0.000192345
139.075
-0.000190618
139.077
-0.000188433
139.079
-0.000185723
139.081
-0.000182426
139.083
-0.00017849
139.085
-0.000173871
139.086
-0.000168544
139.087
-0.000162504
139.087
-0.000155766
139.087
-0.000148369
139.086
-0.000140337
139.085
-0.000131894
139.083
-0.000122901
139.08
-0.000113691
139.077
-0.000104288
139.073
-9.48533e-05
139.069
-8.55079e-05
139.064
-7.63852e-05
139.059
-6.75952e-05
139.054
-5.92406e-05
139.048
-5.14039e-05
139.043
-4.41478e-05
139.037
-3.75124e-05
139.032
-3.15243e-05
139.027
-2.61845e-05
139.023
-2.14815e-05
139.019
-1.7389e-05
139.015
-1.38708e-05
139.013
-1.08793e-05
139.011
-8.36953e-06
139.009
-6.28279e-06
139.008
-4.57081e-06
139.008
-3.17797e-06
139.008
-2.06459e-06
139.009
-1.17502e-06
139.011
-4.82899e-07
139.012
5.8224e-08
139.014
4.72978e-07
139.016
7.85641e-07
139.018
1.02036e-06
139.02
1.19251e-06
139.022
1.31712e-06
139.023
1.40537e-06
139.023
1.46605e-06
139.023
1.50588e-06
139.023
1.53371e-06
139.021
1.54756e-06
139.019
1.55211e-06
139.016
1.55235e-06
139.013
1.55052e-06
139.008
1.54608e-06
139.003
1.54163e-06
138.997
1.53654e-06
138.991
1.53251e-06
138.984
1.53043e-06
138.977
1.52885e-06
138.97
1.53029e-06
138.963
1.5333e-06
138.957
1.53873e-06
138.95
1.54571e-06
138.945
1.55487e-06
138.94
1.56558e-06
138.935
1.57757e-06
138.932
1.59051e-06
138.929
1.60284e-06
138.928
1.6135e-06
138.927
1.63044e-06
138.927
1.64335e-06
138.928
1.65617e-06
138.93
1.66498e-06
138.933
1.67462e-06
138.936
1.68084e-06
138.939
1.68585e-06
138.943
1.68814e-06
138.946
1.68832e-06
138.95
1.68596e-06
138.953
1.68145e-06
138.956
1.67389e-06
138.958
1.66517e-06
138.96
1.65351e-06
138.96
1.64026e-06
138.96
1.62512e-06
138.958
1.61152e-06
138.956
1.61381e-06
138.952
1.5692e-06
138.947
1.55681e-06
138.941
1.54554e-06
138.934
1.53073e-06
138.926
1.52409e-06
138.918
1.50637e-06
138.909
1.50429e-06
138.9
1.5002e-06
138.891
1.50108e-06
138.882
1.50474e-06
138.874
1.51273e-06
138.866
1.52254e-06
138.859
1.53735e-06
138.854
1.55158e-06
138.85
1.57172e-06
138.847
1.58618e-06
138.846
1.60727e-06
138.846
1.60824e-06
138.847
1.651e-06
138.849
1.66718e-06
138.853
1.67712e-06
138.857
1.68736e-06
138.862
1.70242e-06
138.868
1.70528e-06
138.874
1.71685e-06
138.88
1.71134e-06
138.886
1.71495e-06
138.892
1.71142e-06
138.898
1.70745e-06
138.903
1.6952e-06
138.907
1.68684e-06
138.91
1.66832e-06
138.912
1.65396e-06
138.912
1.62734e-06
138.911
1.60756e-06
138.907
1.62474e-06
138.902
1.53594e-06
138.895
1.52103e-06
138.886
1.50852e-06
138.876
1.47328e-06
138.864
1.47029e-06
138.85
1.42866e-06
138.836
1.44897e-06
138.822
1.40421e-06
138.807
1.44483e-06
138.793
1.40952e-06
138.78
1.46758e-06
138.769
1.43953e-06
138.759
1.50683e-06
138.752
1.48836e-06
138.746
1.57519e-06
138.742
1.53819e-06
138.741
1.69735e-06
138.741
2.18871e-06
138.742
1.42252e-06
138.744
5.2779e-06
138.746
2.02381e-05
138.749
0.000138364
138.751
0.000971001
138.752
0.00693703
138.739
0.0497454
138.592
0.390029
1.67562
138.047
11.5949
-0.000327729
11.5946
-0.000234963
11.5943
-0.000224786
11.594
-0.000226677
11.5938
-0.000227119
11.5935
-0.000226874
11.5933
-0.000226895
11.5932
-0.000226826
11.593
-0.000226848
11.5929
-0.000226839
11.5929
-0.000226828
11.5929
-0.000226851
11.5929
-0.000226791
11.5929
-0.000226839
11.593
-0.000226852
11.5931
-0.00022682
11.5932
-0.000226832
11.5934
-0.000226866
11.5935
-0.000226871
11.5936
-0.000226893
11.5938
-0.000226919
11.5939
-0.000226988
11.594
-0.000226988
11.5941
-0.000227021
11.5941
-0.000227239
11.5942
-0.000227136
11.5942
-0.000227277
11.5942
-0.000227355
11.5941
-0.000227444
11.5939
-0.000227533
11.5938
-0.000227624
11.5935
-0.000227718
11.5933
-0.000227815
11.593
-0.000227941
11.5926
-0.000228159
11.5923
-0.000227945
11.592
-0.000228222
11.5916
-0.000228335
11.5913
-0.000228443
11.5909
-0.000228548
11.5906
-0.000228647
11.5904
-0.000228736
11.5901
-0.000228806
11.5899
-0.000228848
11.5897
-0.000228847
11.5895
-0.000228784
11.5893
-0.000228637
11.5892
-0.000228376
11.5892
-0.000227963
11.5892
-0.000227355
11.5892
-0.000226491
11.5893
-0.000225338
11.5895
-0.000223786
11.5896
-0.000221788
11.5898
-0.000219262
11.5899
-0.00021613
11.5901
-0.000212322
11.5902
-0.000207775
11.5904
-0.000202438
11.5905
-0.000196282
11.5905
-0.0001893
11.5906
-0.000181508
11.5906
-0.000172951
11.5905
-0.000163634
11.5904
-0.00015389
11.5902
-0.000143433
11.59
-0.000132756
11.5897
-0.000121842
11.5894
-0.000110877
11.589
-0.000100011
11.5887
-8.93935e-05
11.5882
-7.91562e-05
11.5878
-6.94172e-05
11.5873
-6.02744e-05
11.5869
-5.18013e-05
11.5864
-4.4048e-05
11.586
-3.70434e-05
11.5856
-3.07926e-05
11.5852
-2.52824e-05
11.5849
-2.04835e-05
11.5846
-1.63537e-05
11.5844
-1.28407e-05
11.5842
-9.89015e-06
11.5841
-7.43295e-06
11.584
-5.41809e-06
11.584
-3.77466e-06
11.584
-2.46193e-06
11.5841
-1.41029e-06
11.5842
-5.89442e-07
11.5844
4.96784e-08
11.5845
5.40856e-07
11.5847
9.09833e-07
11.5848
1.18663e-06
11.585
1.38896e-06
11.5851
1.53527e-06
11.5852
1.63876e-06
11.5853
1.70978e-06
11.5853
1.75598e-06
11.5852
1.78954e-06
11.5851
1.80383e-06
11.5849
1.81038e-06
11.5847
1.81043e-06
11.5844
1.8081e-06
11.584
1.80289e-06
11.5836
1.79771e-06
11.5831
1.79172e-06
11.5826
1.78695e-06
11.582
1.78462e-06
11.5814
1.7826e-06
11.5808
1.7845e-06
11.5803
1.78786e-06
11.5797
1.79422e-06
11.5792
1.80229e-06
11.5787
1.81304e-06
11.5783
1.82551e-06
11.5779
1.83954e-06
11.5776
1.85468e-06
11.5774
1.86894e-06
11.5773
1.88082e-06
11.5772
1.90195e-06
11.5773
1.91536e-06
11.5774
1.93164e-06
11.5775
1.94145e-06
11.5777
1.95283e-06
11.578
1.95983e-06
11.5782
1.96591e-06
11.5785
1.96836e-06
11.5788
1.96872e-06
11.5791
1.96591e-06
11.5794
1.96066e-06
11.5796
1.95183e-06
11.5798
1.94175e-06
11.58
1.92805e-06
11.58
1.91256e-06
11.58
1.89504e-06
11.5798
1.88163e-06
11.5796
1.86914e-06
11.5793
1.83566e-06
11.5789
1.81964e-06
11.5784
1.80181e-06
11.5778
1.78571e-06
11.5772
1.77393e-06
11.5765
1.75917e-06
11.5757
1.754e-06
11.575
1.74914e-06
11.5742
1.75051e-06
11.5735
1.75446e-06
11.5728
1.76369e-06
11.5722
1.77574e-06
11.5716
1.79194e-06
11.5712
1.81003e-06
11.5708
1.83139e-06
11.5706
1.85187e-06
11.5705
1.87308e-06
11.5705
1.88332e-06
11.5706
1.92336e-06
11.5708
1.93767e-06
11.571
1.9553e-06
11.5714
1.96921e-06
11.5718
1.98218e-06
11.5723
1.99054e-06
11.5728
1.9979e-06
11.5733
1.99883e-06
11.5739
1.99952e-06
11.5744
1.9959e-06
11.5748
1.98987e-06
11.5752
1.97793e-06
11.5756
1.96573e-06
11.5758
1.94647e-06
11.576
1.9267e-06
11.576
1.89977e-06
11.5759
1.883e-06
11.5756
1.86238e-06
11.5752
1.80792e-06
11.5746
1.78054e-06
11.5739
1.7559e-06
11.573
1.72399e-06
11.572
1.70579e-06
11.5709
1.67816e-06
11.5697
1.67424e-06
11.5685
1.65457e-06
11.5673
1.6673e-06
11.5661
1.6615e-06
11.565
1.69092e-06
11.5641
1.69751e-06
11.5633
1.73974e-06
11.5626
1.75562e-06
11.5622
1.80992e-06
11.5619
1.82015e-06
11.5617
1.89716e-06
11.5617
2.08529e-06
11.5618
1.8317e-06
11.562
3.19337e-06
11.5622
8.25068e-06
11.5625
4.86825e-05
11.5634
0.000333235
11.5681
0.00239218
11.6003
0.0177977
11.8003
0.19036
0.723158
12.753
5.79707
5.79667
5.79628
5.7959
5.79553
5.79517
5.79483
5.7945
5.79419
5.7939
5.79363
5.79338
5.79315
5.79293
5.79272
5.79253
5.79235
5.79217
5.79199
5.79182
5.79164
5.79146
5.79127
5.79107
5.79086
5.79064
5.7904
5.79014
5.78986
5.78955
5.78921
5.78885
5.78847
5.78808
5.78767
5.78726
5.78685
5.78643
5.78602
5.78561
5.78521
5.78483
5.78445
5.78409
5.78375
5.78341
5.7831
5.78281
5.78254
5.78229
5.78207
5.78188
5.7817
5.78154
5.78138
5.78124
5.78109
5.78094
5.78079
5.78063
5.78046
5.78028
5.78009
5.77988
5.77966
5.77942
5.77917
5.77891
5.77863
5.77835
5.77805
5.77776
5.77746
5.77717
5.77689
5.77661
5.77636
5.77612
5.77591
5.77572
5.77557
5.77544
5.77534
5.77527
5.77523
5.77522
5.77523
5.77527
5.77532
5.77539
5.77547
5.77556
5.77564
5.77572
5.77578
5.77583
5.77586
5.77587
5.77584
5.77579
5.7757
5.77558
5.77543
5.77524
5.77503
5.77479
5.77453
5.77425
5.77397
5.77368
5.77339
5.77311
5.77286
5.77262
5.77241
5.77223
5.77209
5.77199
5.77193
5.7719
5.77191
5.77196
5.77204
5.77214
5.77227
5.77241
5.77256
5.77272
5.77287
5.773
5.77312
5.77322
5.77328
5.77331
5.7733
5.77324
5.77313
5.77298
5.77278
5.77253
5.77225
5.77192
5.77157
5.7712
5.77082
5.77044
5.77008
5.76973
5.76942
5.76915
5.76893
5.76876
5.76865
5.76859
5.76859
5.76864
5.76874
5.76889
5.76907
5.76928
5.76952
5.76978
5.77004
5.7703
5.77056
5.7708
5.77101
5.77118
5.77131
5.77138
5.77139
5.77133
5.7712
5.77099
5.7707
5.77033
5.76989
5.76939
5.76884
5.76825
5.76765
5.76705
5.76647
5.76593
5.76546
5.76505
5.76474
5.76451
5.76436
5.76429
5.76429
5.76434
5.76442
5.76453
5.76469
5.76514
5.76765
5.78557
5.97605
6.69933
5.08641
0.127377
5.09348
-0.00704084
5.08947
0.00405275
5.09323
-0.00371084
5.10639
-0.0130991
5.1278
-0.0213063
5.19438
-0.0664637
5.32071
-0.126368
5.44096
-0.120482
5.46074
-0.0201037
5.40172
0.0587543
5.29261
0.109003
5.16564
0.126741
5.13258
0.0325906
5.40591
-0.272162
5.95236
-0.545308
6.59016
-0.638177
7.0742
-0.486133
7.26311
-0.192224
-0.304942
7.56482
10.6543
0.181258
10.673
-0.0257754
10.7207
-0.0434922
10.7753
-0.0582726
10.8419
-0.0795237
10.9217
-0.1009
11.0955
-0.240093
11.3921
-0.423038
11.6922
-0.421042
11.8004
-0.128916
11.7509
0.107842
11.5829
0.276907
11.3208
0.388535
11.128
0.22448
11.4526
-0.594103
12.2937
-1.38462
13.4619
-1.80791
14.5765
-1.60578
15.1827
-0.805025
-0.769617
15.6416
138.103
0.125684
138.184
-0.107093
138.2
-0.0579742
138.049
0.0925617
137.741
0.230001
137.317
0.324019
136.702
0.376503
135.911
0.368204
135.094
0.398521
134.598
0.36725
134.347
0.359755
134.292
0.331623
134.377
0.303944
134.325
0.277806
133.475
0.253553
131.865
0.225859
129.876
0.184959
128.158
0.12138
127.334
0.0281117
-0.200299
126.773
12.6966
0.182028
12.5966
-0.00704744
12.5476
-0.00901152
12.6172
0.0228892
12.7906
0.0564287
13.0307
0.083572
13.305
0.101692
13.5702
0.10356
13.8563
0.112005
14.1192
0.104881
14.3787
0.100454
14.6195
0.0909715
14.8432
0.0804578
15.0507
0.0703726
15.2442
0.0601755
15.4233
0.0467078
15.584
0.0242326
15.7193
-0.0141115
15.8269
-0.0795975
-0.266627
15.8931
6.88137
6.87432
6.86529
6.88814
6.94449
7.02793
7.12943
7.23313
7.34506
7.45011
7.55069
7.64174
7.72226
7.79268
7.85289
7.89959
7.92378
7.90961
7.82995
7.56326
7.34029
0.223769
7.60263
-0.259954
7.9637
-0.362174
8.04941
-0.0873952
8.01165
0.0370845
7.98137
0.029737
7.9969
-0.0160945
8.0182
-0.0220596
8.023
-0.0055552
8.01982
0.00252497
8.01706
0.00204902
8.01766
-0.00135823
8.01907
-0.00218549
8.01801
0.000255985
8.01567
0.00153264
8.01274
0.00211009
8.00949
0.00242068
8.00603
0.00261846
8.00239
0.00280653
7.99862
0.00294989
7.9948
0.00299624
7.99108
0.00292004
7.98757
0.00272727
7.98435
0.00244625
7.98149
0.00211645
7.97898
0.0017805
7.9768
0.00147891
7.97486
0.00124599
7.97307
0.00110614
7.97132
0.00107188
7.9695
0.00114392
7.96751
0.00131289
7.96526
0.00156161
7.96269
0.00186744
7.95975
0.00220495
7.95643
0.00254841
7.95274
0.00287429
7.94872
0.00316284
7.9444
0.00339902
7.93984
0.00357282
7.93511
0.00367889
7.93027
0.0037163
7.92537
0.00368797
7.92048
0.00360003
7.91564
0.00346115
7.91089
0.0032819
7.90626
0.00307414
7.90177
0.00285043
7.89742
0.00262362
7.89321
0.00240596
7.88911
0.0022084
7.8851
0.00203997
7.88115
0.00190702
7.87722
0.00181474
7.87327
0.00176653
7.86926
0.00176464
7.86514
0.0018098
7.86089
0.00190131
7.85645
0.00203567
7.8518
0.00219176
7.847
0.00230376
7.84234
0.00213818
7.83892
0.000849782
7.84083
-0.00449178
7.85075
-0.0125346
7.86268
-0.0146196
7.86982
-0.00987775
7.86945
-0.00240566
7.86312
0.00356543
7.85531
0.00506243
7.84668
0.00585325
7.83743
0.00646303
7.82734
0.00728361
7.81602
0.00849023
7.80307
0.0101092
7.78808
0.0121295
7.77069
0.0145101
7.7506
0.017187
7.7276
0.0200812
7.70155
0.0231084
7.67239
0.0262093
7.64003
0.029377
7.60433
0.0326729
7.56498
0.0362426
7.5215
0.0403107
7.47313
0.045138
7.41888
0.0509806
7.35753
0.058027
7.28781
0.0663359
7.20845
0.0758477
7.1184
0.0862848
7.0172
0.0968919
6.90556
0.107298
6.78505
0.116372
6.65786
0.123205
6.52718
0.126724
6.39692
0.12665
6.27079
0.122697
6.15208
0.114859
6.04363
0.104241
5.94739
0.0917835
5.86421
0.0785871
5.79388
0.065589
5.73549
0.0534962
5.68772
0.0428088
5.64903
0.0336658
5.61786
0.0260868
5.59276
0.0199576
5.57246
0.0150995
5.55589
0.0113126
5.54218
0.00840164
5.53063
0.00619033
5.5207
0.0045277
5.51197
0.00328892
5.50412
0.00237349
5.4969
0.0017021
5.49013
0.00121318
5.48369
0.000859534
5.47747
0.000605395
5.4714
0.00042392
5.46543
0.00029514
5.45951
0.000204313
5.45364
0.000140645
5.44777
9.62849e-05
5.44191
6.55644e-05
5.43604
4.44184e-05
5.43014
2.99511e-05
5.42422
2.01134e-05
5.41826
1.34649e-05
5.41226
9.00022e-06
5.40622
6.02124e-06
5.40013
4.04721e-06
5.39398
2.74842e-06
5.38778
1.90075e-06
5.3815
1.35223e-06
5.37516
1.00147e-06
5.36874
7.80135e-07
5.36224
6.43537e-07
5.35565
5.61211e-07
5.34897
5.14172e-07
5.34219
4.89379e-07
5.33531
4.78964e-07
5.32833
4.77461e-07
5.32125
4.8121e-07
5.31406
4.87853e-07
5.30677
4.95995e-07
5.29936
5.04395e-07
5.29186
5.12706e-07
5.28425
5.2052e-07
5.27654
5.27993e-07
5.26873
5.34374e-07
5.26083
5.39521e-07
5.25285
5.42625e-07
5.24478
5.44189e-07
5.23663
5.44378e-07
5.2284
5.44103e-07
5.22011
5.42741e-07
5.21175
5.41488e-07
5.20333
5.38363e-07
5.19485
5.35452e-07
5.18632
5.30585e-07
5.17774
5.2709e-07
5.1691
5.22128e-07
5.16042
5.19802e-07
5.15168
5.15543e-07
5.1429
5.15063e-07
5.13407
5.1154e-07
5.1252
5.11822e-07
5.11627
5.1049e-07
5.10731
5.11121e-07
5.09829
5.10607e-07
5.08923
5.11081e-07
5.08013
5.08311e-07
5.07099
5.09539e-07
5.0618
5.03735e-07
5.05257
5.06028e-07
5.04331
4.98438e-07
5.034
5.01966e-07
5.02465
4.93163e-07
5.01525
4.98094e-07
5.00581
4.86245e-07
4.99632
4.95829e-07
4.98677
4.77545e-07
4.97716
5.00058e-07
4.96749
4.6296e-07
4.95774
5.20951e-07
4.94792
4.37562e-07
4.93801
5.63385e-07
4.92801
3.91738e-07
4.91791
5.92763e-07
4.90772
1.42101e-07
4.89742
-3.0027e-07
4.88702
-4.93149e-06
4.87654
-2.58482e-05
4.86606
-0.000135103
4.85602
-0.000689666
4.84873
-0.00354604
4.85671
-0.0189305
4.98685
-0.141205
-0.534975
5.51071
14.6908
1.1739
14.7187
-0.283491
15.2819
-0.927354
15.4926
-0.30139
15.4321
0.0960531
15.3471
0.113718
15.3519
-0.0221947
15.3893
-0.0609162
15.4043
-0.0220521
15.3995
0.00600805
15.3918
0.00829718
15.3913
-0.00231201
15.3954
-0.00784762
15.3964
-0.00233449
15.3946
0.0016899
15.3912
0.00391071
15.3868
0.00518012
15.3817
0.00602881
15.376
0.0068487
15.3697
0.0075796
15.363
0.00806394
15.3561
0.00819641
15.3493
0.00795846
15.3428
0.00740204
15.3368
0.00662122
15.3314
0.0057297
15.3266
0.00484561
15.3224
0.00407811
15.3186
0.00351479
15.3151
0.00321305
15.3117
0.00319777
15.3082
0.00346366
15.3044
0.0039796
15.3002
0.00469392
15.2954
0.00554166
15.29
0.00645213
15.2839
0.00735702
15.2771
0.00819615
15.2698
0.0089211
15.2619
0.00949715
15.2535
0.00990309
15.2449
0.0101312
15.2359
0.0101859
15.2269
0.0100825
15.2177
0.00984502
15.2086
0.0095049
15.1995
0.00909898
15.1904
0.00866781
15.1813
0.00825469
15.1722
0.0079029
15.1629
0.00765331
15.1535
0.00754293
15.1437
0.00760221
15.1334
0.00785983
15.1225
0.00834068
15.1106
0.00906807
15.0978
0.0100628
15.0836
0.0113435
15.0679
0.0129242
15.0504
0.0147692
15.031
0.0167144
15.0099
0.0180908
14.9892
0.0164556
14.9777
0.00177166
14.9864
-0.026417
15.0097
-0.0432917
15.0339
-0.0395415
15.0482
-0.0221682
15.0488
-0.00256435
15.0421
0.00634114
15.03
0.0124024
15.0136
0.0172339
14.9931
0.0222082
14.9679
0.0279804
14.9376
0.0347216
14.9015
0.0424552
14.8591
0.0510881
14.8101
0.0604362
14.7541
0.0702545
14.6911
0.0802683
14.6211
0.0902697
14.5442
0.1002
14.4605
0.110196
14.3699
0.120629
14.2718
0.132081
14.1654
0.145198
14.0493
0.160562
13.9222
0.178507
13.7826
0.198993
13.6293
0.221495
13.4624
0.244959
13.2832
0.267979
13.0939
0.288785
12.8974
0.305224
12.6976
0.31528
12.4997
0.31758
12.3082
0.311274
12.1271
0.296235
11.9601
0.2737
11.8099
0.24578
11.6779
0.214766
11.5643
0.182961
11.4681
0.152286
11.3876
0.124195
11.3211
0.0994887
11.2663
0.0784454
11.2212
0.0610097
11.184
0.0468848
11.1531
0.0356513
11.127
0.026855
11.1047
0.0200571
11.0854
0.0148628
11.0682
0.0109331
11.0526
0.00798665
11.0382
0.00579538
11.0247
0.00417812
11.0118
0.00299312
10.9994
0.00213086
10.9872
0.00150765
10.9753
0.00106018
10.9635
0.000740996
10.9518
0.000514775
10.9401
0.000355466
10.9284
0.000243993
10.9167
0.000166486
10.905
0.000112937
10.8932
7.61755e-05
10.8814
5.10982e-05
10.8695
3.41001e-05
10.8575
2.26524e-05
10.8454
1.49921e-05
10.8332
9.90021e-06
10.8209
6.53796e-06
10.8085
4.33329e-06
10.796
2.89714e-06
10.7833
1.96955e-06
10.7704
1.3748e-06
10.7574
9.98197e-07
10.7442
7.61675e-07
10.7309
6.16451e-07
10.7173
5.28777e-07
10.7036
4.78299e-07
10.6896
4.51164e-07
10.6755
4.38334e-07
10.6611
4.34062e-07
10.6465
4.35144e-07
10.6317
4.38548e-07
10.6167
4.43593e-07
10.6015
4.48837e-07
10.586
4.54588e-07
10.5704
4.59414e-07
10.5546
4.63823e-07
10.5387
4.66127e-07
10.5225
4.67392e-07
10.5062
4.67392e-07
10.4898
4.67622e-07
10.4732
4.65697e-07
10.4565
4.65545e-07
10.4396
4.61635e-07
10.4227
4.60539e-07
10.4056
4.55006e-07
10.3884
4.53558e-07
10.3712
4.47499e-07
10.3538
4.47727e-07
10.3363
4.41054e-07
10.3188
4.44306e-07
10.3011
4.37545e-07
10.2834
4.40941e-07
10.2655
4.37799e-07
10.2476
4.39504e-07
10.2296
4.37917e-07
10.2114
4.40428e-07
10.1932
4.34497e-07
10.175
4.41385e-07
10.1566
4.28308e-07
10.1381
4.39879e-07
10.1196
4.22443e-07
10.101
4.3736e-07
10.0823
4.17209e-07
10.0635
4.35235e-07
10.0446
4.08732e-07
10.0256
4.37808e-07
10.0065
3.94358e-07
9.98731
4.54642e-07
9.96797
3.55244e-07
9.94847
5.13186e-07
9.92883
2.7202e-07
9.90901
6.2469e-07
9.88901
1.28377e-07
9.86882
6.68569e-07
9.84843
-5.94359e-07
9.82783
-2.00901e-06
9.80704
-1.54606e-05
9.78607
-7.69232e-05
9.7651
-0.000396928
9.74497
-0.0020192
9.73005
-0.010298
9.74215
-0.0529291
9.87454
-0.295711
-1.18824
10.5055
127.894
0.0389386
127.54
0.0443619
126.553
0.0411245
126.214
0.0226695
126.291
0.00424517
126.386
0.0038585
126.342
0.00563636
126.261
0.00331072
126.222
0.000837824
126.211
0.000414001
126.201
0.000614159
126.18
0.00038275
126.155
-0.000893896
126.135
-0.00190191
126.12
-0.00226628
126.107
-0.00253589
126.095
-0.00287884
126.085
-0.00323039
126.075
-0.00350652
126.066
-0.00367734
126.059
-0.00377509
126.051
-0.00384683
126.044
-0.00393331
126.037
-0.00406138
126.03
-0.00424422
126.023
-0.00448371
126.016
-0.00477168
126.009
-0.00509226
126.002
-0.00542452
125.995
-0.00574692
125.989
-0.0060405
125.983
-0.00629109
125.977
-0.00649011
125.971
-0.00663436
125.966
-0.00672546
125.961
-0.00676784
125.955
-0.00676753
125.95
-0.00673134
125.943
-0.00666564
125.935
-0.00657555
125.926
-0.00646456
125.915
-0.00633475
125.902
-0.00618729
125.887
-0.00602258
125.87
-0.00584046
125.85
-0.00564028
125.827
-0.00542087
125.802
-0.00518057
125.773
-0.00491789
125.742
-0.00463542
125.709
-0.00434307
125.673
-0.0040585
125.635
-0.00378102
125.596
-0.00350117
125.555
-0.00320606
125.513
-0.00288454
125.47
-0.00252455
125.426
-0.00209355
125.382
-0.00156722
125.339
-0.00106741
125.295
-0.000495338
125.252
4.17852e-06
125.206
0.000290028
125.145
-0.000393187
125.059
-0.00428791
124.962
-0.0103048
124.874
-0.0155043
124.807
-0.0189696
124.764
-0.0210927
124.735
-0.0233897
124.716
-0.0271564
124.705
-0.0327145
124.706
-0.0404126
124.721
-0.0505522
124.754
-0.0634757
124.809
-0.0795466
124.892
-0.0990819
125.006
-0.122233
125.156
-0.148879
125.344
-0.178454
125.573
-0.209858
125.843
-0.241449
126.151
-0.271115
126.494
-0.296552
126.867
-0.315547
127.263
-0.326925
127.676
-0.330256
128.101
-0.326232
128.536
-0.316233
128.977
-0.301883
129.422
-0.28459
129.868
-0.264853
130.311
-0.243466
130.746
-0.220879
131.165
-0.197021
131.559
-0.172976
131.92
-0.1494
132.242
-0.12695
132.517
-0.106276
132.744
-0.0878435
132.921
-0.071855
133.051
-0.0583015
133.136
-0.046966
133.182
-0.0375868
133.194
-0.0298866
133.177
-0.0236059
133.135
-0.0185148
133.073
-0.0144153
132.995
-0.0111371
132.905
-0.00853619
132.804
-0.00648988
132.696
-0.00489388
132.581
-0.0036602
132.461
-0.00271517
132.337
-0.00199778
132.21
-0.00145809
132.081
-0.0010557
131.95
-0.000758299