/*--------------------------------*- C++ -*----------------------------------*\
| =========                 |                                                 |
| \\      /  F ield         | OpenFOAM: The Open Source CFD Toolbox           |
|  \\    /   O peration     | Version:  3.0.x                                 |
|   \\  /    A nd           | Web:      www.OpenFOAM.org                      |
|    \\/     M anipulation  |                                                 |
\*---------------------------------------------------------------------------*/
FoamFile
{
    version     2.0;
    format      ascii;
    class       surfaceScalarField;
    location    "0.2";
    object      phi;
}
// * * * * * * * * * * * * * * * * * * * * * * * * * * * * * * * * * * * * * //

dimensions      [1 0 -1 0 0 0 0];

internalField   nonuniform List<scalar> 
52430
(
3.90608
0.000243618
3.90595
0.000176123
3.90582
0.000169066
3.90568
0.000170242
3.90554
0.0001707
3.90541
0.000170617
3.90527
0.000170568
3.90514
0.000170561
3.90501
0.00017058
3.90489
0.000170591
3.90477
0.000170588
3.90465
0.000170594
3.90453
0.000170597
3.9044
0.000170582
3.90428
0.000170591
3.90415
0.000170658
3.90403
0.000170549
3.90391
0.000170587
3.90379
0.000170575
3.90367
0.000170584
3.90356
0.00017062
3.90346
0.000170583
3.90335
0.0001706
3.90325
0.000170608
3.90314
0.000170612
3.90304
0.000170617
3.90294
0.000170619
3.90284
0.000170593
3.90274
0.00017067
3.90264
0.000170597
3.90255
0.0001706
3.90246
0.000170627
3.90237
0.000170579
3.90229
0.000170642
3.9022
0.000170624
3.90212
0.000170536
3.90203
0.000170577
3.90195
0.000170569
3.90188
0.000170558
3.90181
0.000170543
3.90175
0.000170505
3.90169
0.000170521
3.90163
0.000170449
3.90158
0.000170399
3.90154
0.000170303
3.90149
0.000170168
3.90145
0.000169972
3.90142
0.000169693
3.90138
0.000169304
3.90135
0.000168755
3.90133
0.000168087
3.9013
0.000167123
3.90129
0.000165921
3.90127
0.000164392
3.90126
0.000162488
3.90126
0.000160156
3.90127
0.000157349
3.90128
0.000154027
3.9013
0.00015015
3.90132
0.000145706
3.90135
0.000140688
3.9014
0.000135105
3.90145
0.000128986
3.90151
0.000122379
3.90158
0.000115346
3.90166
0.000107966
3.90175
0.000100329
3.90185
9.2534e-05
3.90196
8.4685e-05
3.90208
7.68859e-05
3.90221
6.92375e-05
3.90235
6.18331e-05
3.90249
5.47554e-05
3.90265
4.80742e-05
3.90281
4.18447e-05
3.90298
3.61066e-05
3.90315
3.0884e-05
3.90333
2.61865e-05
3.90351
2.20102e-05
3.90369
1.83396e-05
3.90388
1.51499e-05
3.90407
1.24089e-05
3.90426
1.00791e-05
3.90445
8.12045e-06
3.90464
6.49125e-06
3.90483
5.15023e-06
3.90502
4.05804e-06
3.90521
3.17754e-06
3.90539
2.47463e-06
3.90558
1.91927e-06
3.90575
1.48464e-06
3.90593
1.1474e-06
3.9061
8.88509e-07
3.90627
6.91507e-07
3.90643
5.42581e-07
3.90659
4.31304e-07
3.90674
3.48718e-07
3.90688
2.87449e-07
3.90702
2.42573e-07
3.90716
2.09786e-07
3.90728
1.85426e-07
3.9074
1.6766e-07
3.90752
1.54661e-07
3.90762
1.44457e-07
3.90772
1.36866e-07
3.90781
1.31093e-07
3.90789
1.25718e-07
3.90797
1.2175e-07
3.90803
1.182e-07
3.90809
1.14496e-07
3.90813
1.11851e-07
3.90817
1.0857e-07
3.9082
1.05858e-07
3.90822
1.03291e-07
3.90823
1.00192e-07
3.90823
9.82491e-08
3.90822
9.47548e-08
3.9082
9.32505e-08
3.90817
8.96762e-08
3.90813
8.8341e-08
3.90809
8.49213e-08
3.90803
8.37863e-08
3.90796
7.91078e-08
3.90788
7.96044e-08
3.90779
7.65758e-08
3.90769
7.45422e-08
3.90757
7.26122e-08
3.90745
7.07805e-08
3.90732
6.90488e-08
3.90718
6.74227e-08
3.90703
6.5902e-08
3.90687
6.44923e-08
3.9067
6.31935e-08
3.90652
6.20257e-08
3.90633
6.09689e-08
3.90613
6.00376e-08
3.90592
5.92354e-08
3.9057
5.85678e-08
3.90548
5.80239e-08
3.90524
5.76092e-08
3.905
5.73291e-08
3.90474
5.71854e-08
3.90448
5.71745e-08
3.90421
5.72909e-08
3.90393
5.75365e-08
3.90365
5.79148e-08
3.90335
5.84205e-08
3.90305
5.90462e-08
3.90274
5.98011e-08
3.90243
6.06688e-08
3.90211
6.16619e-08
3.90178
6.27551e-08
3.90145
6.39502e-08
3.90111
6.52526e-08
3.90076
6.66532e-08
3.90041
6.81503e-08
3.90005
6.97255e-08
3.89969
7.13735e-08
3.89933
7.30979e-08
3.89896
7.48805e-08
3.89858
7.67286e-08
3.8982
7.86295e-08
3.89782
8.05485e-08
3.89744
8.25039e-08
3.89705
8.37317e-08
3.89666
8.56726e-08
3.89627
8.74188e-08
3.89588
9.03274e-08
3.89549
9.80326e-08
3.89509
9.50422e-08
3.8947
9.55552e-08
3.8943
9.76343e-08
3.89391
1.00086e-07
3.89351
1.02229e-07
3.89312
1.04113e-07
3.89273
1.05882e-07
3.89233
1.07564e-07
3.89195
1.09159e-07
3.89156
1.10667e-07
3.89118
1.12077e-07
3.8908
1.13387e-07
3.89042
1.14591e-07
3.89005
1.15686e-07
3.88968
1.16665e-07
3.88932
1.17521e-07
3.88896
1.18251e-07
3.88861
1.18851e-07
3.88827
1.19322e-07
3.88793
1.1966e-07
3.8876
1.19862e-07
3.88728
1.19928e-07
3.88697
1.19846e-07
3.88666
1.19628e-07
3.88637
1.19264e-07
3.88608
1.18762e-07
3.8858
1.18122e-07
3.88553
1.17343e-07
3.88528
1.16432e-07
3.88503
1.15386e-07
3.8848
1.14214e-07
3.88457
1.12921e-07
3.88436
1.11515e-07
3.88417
1.10005e-07
3.88398
1.08388e-07
3.88381
1.0668e-07
3.88365
1.04881e-07
3.8835
1.02997e-07
3.88337
1.01032e-07
3.88325
9.90021e-08
3.88315
9.6903e-08
3.88306
9.47584e-08
3.88299
9.25575e-08
3.88293
9.03256e-08
3.88288
8.80646e-08
3.88285
8.5789e-08
3.88284
8.35116e-08
3.88284
8.12433e-08
3.88285
7.88987e-08
3.88288
7.6765e-08
3.88293
7.45022e-08
3.88299
7.23194e-08
3.88306
7.01893e-08
3.88315
6.81102e-08
3.88326
6.60984e-08
3.88338
6.48561e-08
3.88351
6.13381e-08
3.88366
6.07852e-08
3.88382
5.88698e-08
3.884
5.75928e-08
3.88419
5.53719e-08
3.88439
5.43841e-08
3.88461
5.32036e-08
3.88483
5.22923e-08
3.88507
5.0637e-08
3.88532
5.00331e-08
3.88559
4.93692e-08
3.88586
4.88999e-08
3.88614
4.78885e-08
3.88644
4.76957e-08
3.88674
4.75484e-08
3.88705
4.76066e-08
3.88737
4.70336e-08
3.8877
4.74574e-08
3.88803
4.78558e-08
3.88838
4.79358e-08
3.88873
4.83469e-08
3.88908
4.92564e-08
3.88944
4.94329e-08
3.8898
5.06388e-08
3.89017
5.11391e-08
3.89055
5.22705e-08
3.89092
5.324e-08
3.8913
5.43441e-08
3.89168
5.55374e-08
3.89206
5.68652e-08
3.89244
5.80148e-08
3.89282
5.8335e-08
3.8932
5.89571e-08
3.89358
6.07743e-08
3.89396
6.24968e-08
3.89433
6.41867e-08
3.89471
6.58565e-08
3.89508
6.7339e-08
3.89545
6.85868e-08
3.89581
6.96818e-08
3.89617
7.07041e-08
3.89652
7.16827e-08
3.89687
7.26486e-08
3.89721
7.32016e-08
3.89755
7.5257e-08
3.89788
7.50133e-08
3.8982
7.61411e-08
3.89851
7.68559e-08
3.89882
7.74689e-08
3.89912
7.79764e-08
3.89941
7.83857e-08
3.89969
7.86858e-08
3.89997
7.8875e-08
3.90023
7.89569e-08
3.90048
7.89241e-08
3.90073
7.87622e-08
3.90096
7.8524e-08
3.90119
7.81474e-08
3.9014
7.76672e-08
3.9016
7.7076e-08
3.9018
7.6614e-08
3.90198
7.55408e-08
3.90215
7.4444e-08
3.90231
7.36145e-08
3.90246
7.24885e-08
3.9026
7.1248e-08
3.90272
6.99274e-08
3.90284
6.85068e-08
3.90294
6.70043e-08
3.90304
6.54272e-08
3.90312
6.37701e-08
3.90319
6.20548e-08
3.90325
6.02704e-08
3.9033
5.84423e-08
3.90334
5.65542e-08
3.90337
5.46333e-08
3.90338
5.2667e-08
3.90339
5.06825e-08
3.90339
4.87016e-08
3.90337
4.65916e-08
3.90335
4.46253e-08
3.90331
4.25698e-08
3.90327
4.05398e-08
3.90322
3.85226e-08
3.90316
3.65235e-08
3.90308
3.45462e-08
3.903
3.26017e-08
3.90292
3.06954e-08
3.90282
2.88346e-08
3.90271
2.70174e-08
3.9026
2.52639e-08
3.90248
2.3565e-08
3.90236
2.19261e-08
3.90222
2.03618e-08
3.90208
1.8872e-08
3.90193
1.74587e-08
3.90178
1.6129e-08
3.90162
1.48757e-08
3.90146
1.3717e-08
3.90129
1.26438e-08
3.90112
1.16615e-08
3.90094
1.07793e-08
3.90076
9.99535e-09
3.90057
9.31141e-09
3.90038
8.72024e-09
3.90019
8.23638e-09
3.89999
7.8544e-09
3.89979
7.57609e-09
3.89959
7.39419e-09
3.89939
7.31779e-09
3.89919
7.3378e-09
3.89898
7.46149e-09
3.89878
7.68341e-09
3.89857
7.9981e-09
3.89836
8.40919e-09
3.89815
8.91123e-09
3.89794
9.50786e-09
3.89773
1.019e-08
3.89753
1.09594e-08
3.89732
1.18143e-08
3.89711
1.27438e-08
3.89691
1.37552e-08
3.8967
1.48393e-08
3.8965
1.59962e-08
3.8963
1.72149e-08
3.8961
1.84973e-08
3.8959
1.9847e-08
3.89571
2.12476e-08
3.89552
2.27064e-08
3.89533
2.42126e-08
3.89514
2.57642e-08
3.89496
2.73576e-08
3.89478
2.89874e-08
3.8946
3.06572e-08
3.89442
3.23562e-08
3.89425
3.40824e-08
3.89408
3.58341e-08
3.89392
3.7604e-08
3.89376
3.93939e-08
3.8936
4.12001e-08
3.89344
4.30155e-08
3.89329
4.48399e-08
3.89315
4.66698e-08
3.893
4.84979e-08
3.89286
5.03351e-08
3.89273
5.21559e-08
3.8926
5.39876e-08
3.89247
5.58066e-08
3.89234
5.76383e-08
3.89222
5.9481e-08
3.89211
6.14145e-08
3.89199
6.35628e-08
3.89188
6.61785e-08
3.89178
7.00911e-08
3.89167
7.69669e-08
3.89158
9.10586e-08
3.89148
1.22445e-07
3.89139
1.95136e-07
3.8913
3.66877e-07
3.89121
7.75311e-07
3.89113
1.74997e-06
3.89105
4.07925e-06
3.89096
9.64806e-06
3.89087
2.29642e-05
3.89074
5.48051e-05
3.89055
0.000130931
3.89017
0.000312898
3.88936
0.00074735
3.88752
0.00178067
3.88325
0.00422137
3.87319
0.0100089
3.84944
0.0236924
3.79299
0.0564078
3.65225
0.140689
0.379861
3.27235
5.52444
0.000213021
5.5245
0.00017038
5.52456
0.000156182
5.52462
0.000158303
5.52468
0.000159405
5.52474
0.000159265
5.5248
0.000159175
5.52487
0.000159189
5.52494
0.000159223
5.52502
0.000159245
5.5251
0.000159255
5.52519
0.000159271
5.52526
0.000159285
5.52534
0.000159285
5.52542
0.000159304
5.52549
0.000159359
5.52556
0.000159296
5.52564
0.000159329
5.52573
0.000159331
5.52582
0.00015935
5.52591
0.000159388
5.52602
0.000159371
5.52612
0.000159394
5.52622
0.000159412
5.52633
0.000159427
5.52644
0.000159442
5.52654
0.000159454
5.52666
0.000159448
5.52677
0.000159511
5.52688
0.000159471
5.527
0.000159481
5.52713
0.000159509
5.52726
0.000159489
5.52739
0.000159539
5.52752
0.000159528
5.52765
0.000159488
5.52779
0.00015952
5.52793
0.000159522
5.52807
0.000159523
5.52823
0.000159519
5.52839
0.000159497
5.52855
0.000159513
5.52873
0.000159465
5.52891
0.000159422
5.5291
0.000159342
5.52929
0.000159227
5.52948
0.000159051
5.52968
0.000158797
5.52988
0.000158439
5.53009
0.000157936
5.5303
0.000157298
5.53051
0.00015641
5.53073
0.00015528
5.53096
0.000153845
5.53119
0.000152055
5.53142
0.000149862
5.53166
0.000147222
5.5319
0.000144096
5.53215
0.000140449
5.5324
0.000136269
5.53265
0.000131549
5.53291
0.0001263
5.53318
0.00012055
5.53344
0.000114343
5.53371
0.00010774
5.53399
0.000100814
5.53426
9.3651e-05
5.53454
8.63443e-05
5.53482
7.89911e-05
5.5351
7.16892e-05
5.53539
6.45326e-05
5.53568
5.76086e-05
5.53596
5.09942e-05
5.53625
4.47541e-05
5.53654
3.89393e-05
5.53683
3.35864e-05
5.53712
2.87172e-05
5.53741
2.434e-05
5.5377
2.04506e-05
5.53799
1.70339e-05
5.53828
1.40665e-05
5.53857
1.15176e-05
5.53885
9.35224e-06
5.53913
7.53258e-06
5.53941
6.01967e-06
5.53969
4.7749e-06
5.53996
3.76147e-06
5.54023
2.94478e-06
5.5405
2.29308e-06
5.54076
1.77829e-06
5.54101
1.37557e-06
5.54126
1.06321e-06
5.5415
8.23442e-07
5.54174
6.41052e-07
5.54197
5.0324e-07
5.54219
4.00247e-07
5.54241
3.23827e-07
5.54261
2.67174e-07
5.54281
2.25644e-07
5.543
1.95307e-07
5.54318
1.72806e-07
5.54335
1.56354e-07
5.54351
1.44305e-07
5.54366
1.34897e-07
5.54379
1.27841e-07
5.54392
1.22459e-07
5.54404
1.17539e-07
5.54414
1.13799e-07
5.54423
1.10501e-07
5.54431
1.07099e-07
5.54438
1.04562e-07
5.54443
1.01575e-07
5.54448
9.90067e-08
5.5445
9.66047e-08
5.54452
9.3768e-08
5.54452
9.18535e-08
5.5445
8.87258e-08
5.54448
8.71642e-08
5.54444
8.39955e-08
5.54438
8.26012e-08
5.54431
7.95244e-08
5.54423
7.82702e-08
5.54413
7.42775e-08
5.54401
7.43439e-08
5.54389
7.16918e-08
5.54374
6.97792e-08
5.54359
6.79756e-08
5.54342
6.62621e-08
5.54323
6.46432e-08
5.54303
6.31244e-08
5.54282
6.17047e-08
5.54259
6.03868e-08
5.54235
5.91754e-08
5.5421
5.80831e-08
5.54183
5.70981e-08
5.54154
5.62241e-08
5.54125
5.54719e-08
5.54094
5.48489e-08
5.54062
5.43423e-08
5.54029
5.39512e-08
5.53994
5.36893e-08
5.53958
5.35538e-08
5.53921
5.35438e-08
5.53883
5.36538e-08
5.53843
5.38821e-08
5.53803
5.42332e-08
5.53762
5.47061e-08
5.53719
5.52873e-08
5.53675
5.59885e-08
5.53631
5.68007e-08
5.53585
5.77247e-08
5.53539
5.87461e-08
5.53492
5.98602e-08
5.53444
6.10789e-08
5.53395
6.23877e-08
5.53345
6.37865e-08
5.53295
6.52581e-08
5.53243
6.67997e-08
5.53192
6.84122e-08
5.53139
7.00766e-08
5.53087
7.18064e-08
5.53033
7.35818e-08
5.52979
7.53735e-08
5.52925
7.71715e-08
5.5287
7.83803e-08
5.52815
8.01438e-08
5.5276
8.18718e-08
5.52705
8.46767e-08
5.52649
9.11732e-08
5.52593
8.92551e-08
5.52537
8.93724e-08
5.52481
9.13369e-08
5.52425
9.36216e-08
5.52369
9.56179e-08
5.52314
9.73796e-08
5.52258
9.90349e-08
5.52203
1.00601e-07
5.52148
1.02093e-07
5.52093
1.03497e-07
5.52039
1.04812e-07
5.51986
1.06038e-07
5.51932
1.07158e-07
5.5188
1.08179e-07
5.51828
1.09098e-07
5.51777
1.09898e-07
5.51726
1.10575e-07
5.51677
1.11133e-07
5.51628
1.11573e-07
5.5158
1.11888e-07
5.51534
1.12076e-07
5.51488
1.12137e-07
5.51444
1.12062e-07
5.51401
1.11857e-07
5.51359
1.11516e-07
5.51318
1.11044e-07
5.51279
1.10449e-07
5.51241
1.09722e-07
5.51205
1.0887e-07
5.5117
1.07898e-07
5.51137
1.06803e-07
5.51105
1.05597e-07
5.51076
1.04282e-07
5.51048
1.02875e-07
5.51021
1.01367e-07
5.50997
9.97725e-08
5.50974
9.80936e-08
5.50954
9.63346e-08
5.50935
9.45029e-08
5.50919
9.26057e-08
5.50904
9.06448e-08
5.50891
8.86421e-08
5.50881
8.65866e-08
5.50872
8.4503e-08
5.50866
8.23929e-08
5.50862
8.02702e-08
5.5086
7.81392e-08
5.5086
7.60192e-08
5.50862
7.38364e-08
5.50866
7.18273e-08
5.50872
6.97237e-08
5.50881
6.76819e-08
5.50892
6.56928e-08
5.50904
6.37492e-08
5.50919
6.18847e-08
5.50936
6.06096e-08
5.50955
5.75419e-08
5.50976
5.6848e-08
5.50999
5.51272e-08
5.51024
5.38939e-08
5.51051
5.18849e-08
5.51079
5.08844e-08
5.51109
4.9813e-08
5.51142
4.89181e-08
5.51175
4.74583e-08
5.51211
4.68262e-08
5.51248
4.62278e-08
5.51287
4.57539e-08
5.51327
4.48726e-08
5.51368
4.46462e-08
5.51411
4.45207e-08
5.51455
4.45389e-08
5.515
4.40723e-08
5.51547
4.44152e-08
5.51594
4.47808e-08
5.51643
4.4889e-08
5.51692
4.52637e-08
5.51742
4.60723e-08
5.51793
4.6316e-08
5.51845
4.73519e-08
5.51897
4.78967e-08
5.51949
4.89081e-08
5.52002
4.98358e-08
5.52056
5.08644e-08
5.52109
5.1984e-08
5.52163
5.32118e-08
5.52217
5.42659e-08
5.52271
5.46397e-08
5.52325
5.52081e-08
5.52378
5.67861e-08
5.52432
5.84714e-08
5.52485
6.00603e-08
5.52538
6.16019e-08
5.5259
6.29907e-08
5.52642
6.41685e-08
5.52693
6.52008e-08
5.52744
6.61676e-08
5.52794
6.70871e-08
5.52843
6.79765e-08
5.52892
6.85668e-08
5.52939
7.03367e-08
5.52986
7.02566e-08
5.53031
7.12498e-08
5.53076
7.19256e-08
5.53119
7.24922e-08
5.53162
7.29724e-08
5.53203
7.33544e-08
5.53243
7.36381e-08
5.53281
7.38091e-08
5.53318
7.38837e-08
5.53354
7.38555e-08
5.53389
7.37036e-08
5.53422
7.34872e-08
5.53454
7.31343e-08
5.53484
7.26914e-08
5.53513
7.21438e-08
5.5354
7.16782e-08
5.53566
7.07096e-08
5.5359
6.96991e-08
5.53613
6.89024e-08
5.53634
6.78574e-08
5.53653
6.66996e-08
5.53671
6.54627e-08
5.53687
6.41385e-08
5.53702
6.2736e-08
5.53715
6.12627e-08
5.53727
5.97111e-08
5.53737
5.81049e-08
5.53746
5.64387e-08
5.53753
5.47261e-08
5.53758
5.29681e-08
5.53762
5.11709e-08
5.53764
4.93337e-08
5.53765
4.74811e-08
5.53765
4.56221e-08
5.53763
4.36639e-08
5.53759
4.18149e-08
5.53754
3.99004e-08
5.53748
3.79996e-08
5.53741
3.61115e-08
5.53732
3.42452e-08
5.53722
3.2398e-08
5.5371
3.05836e-08
5.53698
2.88019e-08
5.53684
2.70566e-08
5.53669
2.53604e-08
5.53654
2.37242e-08
5.53637
2.21362e-08
5.53619
2.06037e-08
5.536
1.91421e-08
5.5358
1.77488e-08
5.53559
1.64282e-08
5.53537
1.51867e-08
5.53515
1.4018e-08
5.53492
1.29385e-08
5.53468
1.19471e-08
5.53443
1.10358e-08
5.53418
1.02127e-08
5.53392
9.48239e-09
5.53366
8.84393e-09
5.53339
8.29368e-09
5.53312
7.84257e-09
5.53284
7.49333e-09
5.53256
7.2323e-09
5.53228
7.06586e-09
5.53199
6.9922e-09
5.5317
7.01129e-09
5.53141
7.13226e-09
5.53112
7.34235e-09
5.53083
7.6343e-09
5.53053
8.01538e-09
5.53024
8.48377e-09
5.52994
9.04402e-09
5.52965
9.67884e-09
5.52935
1.03946e-08
5.52906
1.11959e-08
5.52877
1.20635e-08
5.52848
1.30067e-08
5.52819
1.4018e-08
5.5279
1.50967e-08
5.52762
1.62363e-08
5.52733
1.74305e-08
5.52706
1.8691e-08
5.52678
2.00007e-08
5.52651
2.13586e-08
5.52624
2.27683e-08
5.52598
2.42153e-08
5.52572
2.57005e-08
5.52546
2.72212e-08
5.52521
2.87828e-08
5.52496
3.0368e-08
5.52472
3.19751e-08
5.52448
3.36086e-08
5.52425
3.52657e-08
5.52402
3.69355e-08
5.52379
3.86208e-08
5.52358
4.03124e-08
5.52336
4.20177e-08
5.52315
4.37258e-08
5.52295
4.54274e-08
5.52275
4.715e-08
5.52256
4.88426e-08
5.52238
5.05688e-08
5.52219
5.22778e-08
5.52202
5.40358e-08
5.52185
5.5843e-08
5.52168
5.78821e-08
5.52152
6.04659e-08
5.52137
6.4203e-08
5.52122
7.1097e-08
5.52107
8.5156e-08
5.52093
1.16626e-07
5.52079
1.89762e-07
5.52066
3.6235e-07
5.52054
7.73411e-07
5.52042
1.75429e-06
5.5203
4.09817e-06
5.52018
9.70287e-06
5.52006
2.31056e-05
5.51993
5.51575e-05
5.51975
0.000131801
5.51947
0.000315047
5.51894
0.000753071
5.51781
0.0017989
5.51522
0.00428662
5.5092
0.0101633
5.49503
0.024101
5.46159
0.0570663
5.38207
0.135862
5.18516
0.337536
0.871019
4.69394
7.81273
0.0001761
7.81281
0.000158676
7.81291
0.000138954
7.81299
0.000141361
7.81307
0.000143222
7.81316
0.000143067
7.81325
0.000142924
7.81334
0.000142953
7.81344
0.000142998
7.81355
0.000143022
7.81367
0.000143034
7.81379
0.000143051
7.8139
0.000143066
7.81401
0.000143071
7.81412
0.000143088
7.81422
0.000143122
7.81433
0.000143095
7.81444
0.000143111
7.81456
0.000143118
7.81469
0.000143134
7.81482
0.000143161
7.81497
0.000143155
7.81511
0.000143171
7.81526
0.00014319
7.81541
0.000143203
7.81556
0.000143217
7.81572
0.000143227
7.81587
0.000143231
7.81603
0.000143267
7.8162
0.00014325
7.81637
0.000143257
7.81655
0.000143274
7.81673
0.000143271
7.81691
0.000143295
7.8171
0.000143281
7.81729
0.000143279
7.81748
0.00014329
7.81768
0.000143292
7.81788
0.000143292
7.8181
0.000143289
7.81833
0.000143274
7.81857
0.00014328
7.81881
0.000143246
7.81907
0.000143204
7.81934
0.000143135
7.81961
0.000143035
7.81988
0.00014288
7.82016
0.000142657
7.82045
0.000142342
7.82074
0.000141905
7.82104
0.000141328
7.82135
0.000140557
7.82166
0.000139556
7.82198
0.000138288
7.8223
0.000136705
7.82263
0.000134764
7.82297
0.000132424
7.82331
0.000129651
7.82366
0.000126413
7.82402
0.000122698
7.82438
0.000118499
7.82474
0.000113824
7.82512
0.000108698
7.82549
0.000103159
7.82587
9.72597e-05
7.82626
9.10661e-05
7.82665
8.46535e-05
7.82704
7.81051e-05
7.82744
7.15077e-05
7.82784
6.4949e-05
7.82824
5.85136e-05
7.82865
5.22802e-05
7.82905
4.63187e-05
7.82946
4.06879e-05
7.82987
3.54349e-05
7.83028
3.05932e-05
7.83069
2.61838e-05
7.8311
2.22152e-05
7.83151
1.86844e-05
7.83192
1.55791e-05
7.83233
1.28786e-05
7.83273
1.05561e-05
7.83313
8.58058e-06
7.83353
6.91832e-06
7.83393
5.5345e-06
7.83432
4.39447e-06
7.8347
3.46509e-06
7.83508
2.71515e-06
7.83546
2.11595e-06
7.83582
1.64197e-06
7.83618
1.27069e-06
7.83654
9.82377e-07
7.83688
7.60731e-07
7.83721
5.91913e-07
7.83754
4.64237e-07
7.83785
3.68647e-07
7.83816
2.97639e-07
7.83845
2.44992e-07
7.83873
2.06316e-07
7.83899
1.78044e-07
7.83925
1.57123e-07
7.83949
1.41785e-07
7.83971
1.30543e-07
7.83993
1.21858e-07
7.84012
1.15294e-07
7.8403
1.10284e-07
7.84047
1.05837e-07
7.84061
1.02352e-07
7.84074
9.93441e-08
7.84085
9.63041e-08
7.84095
9.39231e-08
7.84103
9.13033e-08
7.84108
8.8944e-08
7.84112
8.67713e-08
7.84114
8.42774e-08
7.84114
8.24516e-08
7.84112
7.97841e-08
7.84109
7.82125e-08
7.84103
7.55408e-08
7.84095
7.41315e-08
7.84085
7.14958e-08
7.84073
7.01602e-08
7.84059
6.69743e-08
7.84043
6.66128e-08
7.84025
6.44195e-08
7.84005
6.26815e-08
7.83983
6.10585e-08
7.83959
5.95219e-08
7.83933
5.80671e-08
7.83904
5.67034e-08
7.83874
5.54264e-08
7.83842
5.42436e-08
7.83808
5.31581e-08
7.83772
5.21736e-08
7.83734
5.12896e-08
7.83694
5.05042e-08
7.83652
4.98308e-08
7.83609
4.92687e-08
7.83563
4.88144e-08
7.83516
4.84638e-08
7.83467
4.82282e-08
7.83416
4.81054e-08
7.83364
4.80954e-08
7.8331
4.81932e-08
7.83254
4.84006e-08
7.83197
4.87139e-08
7.83138
4.91377e-08
7.83078
4.96598e-08
7.83016
5.02878e-08
7.82953
5.10195e-08
7.82889
5.1848e-08
7.82823
5.27648e-08
7.82757
5.3768e-08
7.82689
5.48612e-08
7.82619
5.60385e-08
7.82549
5.72927e-08
7.82478
5.86133e-08
7.82406
6.00007e-08
7.82332
6.14496e-08
7.82258
6.29466e-08
7.82184
6.44977e-08
7.82108
6.60907e-08
7.82032
6.76987e-08
7.81955
6.92858e-08
7.81878
7.04363e-08
7.818
7.19783e-08
7.81722
7.36345e-08
7.81643
7.62193e-08
7.81565
8.13175e-08
7.81486
8.05203e-08
7.81407
8.02734e-08
7.81328
8.20423e-08
7.81248
8.40982e-08
7.8117
8.58845e-08
7.81091
8.74684e-08
7.81012
8.89549e-08
7.80934
9.03624e-08
7.80856
9.17021e-08
7.80779
9.29645e-08
7.80703
9.41463e-08
7.80627
9.52459e-08
7.80551
9.62541e-08
7.80477
9.71722e-08
7.80404
9.79958e-08
7.80331
9.87147e-08
7.8026
9.93223e-08
7.8019
9.98234e-08
7.80121
1.00221e-07
7.80054
1.00501e-07
7.79988
1.00672e-07
7.79923
1.00725e-07
7.79861
1.00659e-07
7.79799
1.00475e-07
7.7974
1.00169e-07
7.79683
9.97456e-08
7.79627
9.92086e-08
7.79574
9.85578e-08
7.79522
9.77916e-08
7.79473
9.69176e-08
7.79426
9.59362e-08
7.79382
9.4853e-08
7.7934
9.36734e-08
7.793
9.24065e-08
7.79263
9.10536e-08
7.79229
8.96221e-08
7.79197
8.81128e-08
7.79168
8.65321e-08
7.79141
8.48863e-08
7.79118
8.31847e-08
7.79097
8.14257e-08
7.79079
7.96222e-08
7.79064
7.77768e-08
7.79052
7.59032e-08
7.79043
7.4012e-08
7.79037
7.21034e-08
7.79034
7.01893e-08
7.79034
6.82826e-08
7.79037
6.6334e-08
7.79043
6.4515e-08
7.79052
6.26337e-08
7.79065
6.07974e-08
7.7908
5.90098e-08
7.79098
5.72672e-08
7.79119
5.56083e-08
7.79143
5.43405e-08
7.79169
5.18239e-08
7.79199
5.10126e-08
7.79231
4.95393e-08
7.79266
4.83869e-08
7.79304
4.66557e-08
7.79345
4.56785e-08
7.79388
4.47503e-08
7.79433
4.39049e-08
7.79481
4.26826e-08
7.79531
4.20455e-08
7.79584
4.15321e-08
7.79638
4.10696e-08
7.79695
4.03497e-08
7.79754
4.00969e-08
7.79814
3.99973e-08
7.79877
3.99773e-08
7.79941
3.96376e-08
7.80006
3.98863e-08
7.80073
4.02051e-08
7.80142
4.03434e-08
7.80212
4.06676e-08
7.80282
4.13529e-08
7.80354
4.16549e-08
7.80427
4.24934e-08
7.80501
4.306e-08
7.80575
4.39195e-08
7.8065
4.47753e-08
7.80726
4.56967e-08
7.80801
4.67026e-08
7.80878
4.77821e-08
7.80954
4.87107e-08
7.8103
4.91259e-08
7.81106
4.96257e-08
7.81182
5.09385e-08
7.81258
5.25156e-08
7.81333
5.39289e-08
7.81408
5.52945e-08
7.81482
5.6576e-08
7.81555
5.76397e-08
7.81628
5.85974e-08
7.81699
5.94705e-08
7.8177
6.02827e-08
7.8184
6.10607e-08
7.81908
6.1661e-08
7.81975
6.30794e-08
7.82041
6.31703e-08
7.82106
6.39939e-08
7.82169
6.46091e-08
7.8223
6.5113e-08
7.8229
6.55486e-08
7.82348
6.58929e-08
7.82404
6.61489e-08
7.82459
6.63013e-08
7.82512
6.63649e-08
7.82562
6.63426e-08
7.82611
6.62026e-08
7.82658
6.60134e-08
7.82703
6.56933e-08
7.82746
6.53026e-08
7.82786
6.48133e-08
7.82825
6.43622e-08
7.82861
6.35227e-08
7.82896
6.2626e-08
7.82928
6.18866e-08
7.82957
6.09507e-08
7.82985
5.99125e-08
7.8301
5.87984e-08
7.83033
5.76119e-08
7.83054
5.63555e-08
7.83073
5.50331e-08
7.83089
5.36365e-08
7.83104
5.21932e-08
7.83116
5.06975e-08
7.83125
4.91573e-08
7.83133
4.75784e-08
7.83139
4.59609e-08
7.83142
4.43129e-08
7.83143
4.26508e-08
7.83143
4.09741e-08
7.8314
3.92306e-08
7.83135
3.7558e-08
7.83128
3.58405e-08
7.83119
3.41333e-08
7.83109
3.2438e-08
7.83096
3.07596e-08
7.83082
2.90997e-08
7.83066
2.74695e-08
7.83048
2.58688e-08
7.83029
2.43044e-08
7.83008
2.27801e-08
7.82985
2.13104e-08
7.82961
1.98806e-08
7.82936
1.85059e-08
7.82909
1.71904e-08
7.82881
1.59407e-08
7.82852
1.47547e-08
7.82821
1.36492e-08
7.82789
1.25865e-08
7.82757
1.1627e-08
7.82723
1.07443e-08
7.82688
9.9235e-09
7.82653
9.18044e-09
7.82616
8.52287e-09
7.82579
7.94807e-09
7.82541
7.45331e-09
7.82502
7.04767e-09
7.82463
6.73163e-09
7.82424
6.49425e-09
7.82383
6.34509e-09
7.82343
6.28006e-09
7.82302
6.29552e-09
7.82261
6.40557e-09
7.82219
6.59202e-09
7.82178
6.85714e-09
7.82136
7.19956e-09
7.82095
7.61929e-09
7.82053
8.12179e-09
7.82011
8.69113e-09
7.81969
9.33596e-09
7.81928
1.00563e-08
7.81887
1.08353e-08
7.81846
1.1682e-08
7.81805
1.2592e-08
7.81764
1.35578e-08
7.81724
1.45851e-08
7.81684
1.56551e-08
7.81645
1.67893e-08
7.81606
1.79671e-08
7.81568
1.91844e-08
7.8153
2.04518e-08
7.81492
2.17497e-08
7.81455
2.3088e-08
7.81419
2.44468e-08
7.81384
2.58538e-08
7.81349
2.72785e-08
7.81314
2.87191e-08
7.81281
3.01893e-08
7.81248
3.16763e-08
7.81215
3.31756e-08
7.81184
3.46918e-08
7.81153
3.62088e-08
7.81123
3.77408e-08
7.81093
3.92806e-08
7.81065
4.08031e-08
7.81037
4.23652e-08
7.81009
4.38718e-08
7.80983
4.54465e-08
7.80957
4.6995e-08
7.80932
4.86498e-08
7.80908
5.04083e-08
7.80885
5.25779e-08
7.80862
5.57666e-08
7.8084
6.10535e-08
7.80819
7.2047e-08
7.80798
9.60272e-08
7.80779
1.51506e-07
7.80759
2.82301e-07
7.80741
5.92894e-07
7.80723
1.33452e-06
7.80706
3.10615e-06
7.80689
7.34143e-06
7.80673
1.74706e-05
7.80656
4.16949e-05
7.80637
9.96278e-05
7.80612
0.000238162
7.80574
0.000569382
7.805
0.00136112
7.80343
0.00325157
7.79985
0.00774943
7.79153
0.0183764
7.77194
0.0435833
7.7257
0.103203
7.61605
0.245419
7.34826
0.605235
1.49951
6.71968
34.487
7.1566e-05
34.4874
8.15812e-05
34.4878
6.95556e-05
34.4882
6.97119e-05
34.4885
7.15633e-05
34.4889
7.17942e-05
34.4893
7.16155e-05
34.4897
7.15878e-05
34.4902
7.16039e-05
34.4906
7.16026e-05
34.4912
7.1594e-05
34.4917
7.15903e-05
34.4922
7.15887e-05
34.4927
7.15861e-05
34.4931
7.15859e-05
34.4936
7.1583e-05
34.4941
7.15878e-05
34.4946
7.15826e-05
34.4951
7.15843e-05
34.4956
7.1588e-05
34.4962
7.15935e-05
34.4969
7.15954e-05
34.4975
7.15988e-05
34.4982
7.16068e-05
34.4988
7.16123e-05
34.4995
7.16178e-05
34.5002
7.1622e-05
34.5009
7.16288e-05
34.5016
7.16295e-05
34.5023
7.16353e-05
34.5031
7.16369e-05
34.5039
7.16383e-05
34.5047
7.16453e-05
34.5055
7.16413e-05
34.5063
7.16321e-05
34.5071
7.16558e-05
34.508
7.16491e-05
34.5089
7.16489e-05
34.5098
7.16489e-05
34.5107
7.16476e-05
34.5117
7.16442e-05
34.5128
7.16407e-05
34.5139
7.16305e-05
34.515
7.16108e-05
34.5162
7.15783e-05
34.5174
7.15333e-05
34.5186
7.14622e-05
34.5198
7.13587e-05
34.5211
7.1212e-05
34.5224
7.10114e-05
34.5237
7.07291e-05
34.525
7.03705e-05
34.5264
6.98942e-05
34.5278
6.92884e-05
34.5293
6.85299e-05
34.5307
6.75963e-05
34.5322
6.6467e-05
34.5337
6.51236e-05
34.5353
6.35504e-05
34.5368
6.17392e-05
34.5384
5.96858e-05
34.5401
5.73929e-05
34.5417
5.48712e-05
34.5434
5.21384e-05
34.545
4.92199e-05
34.5468
4.61472e-05
34.5485
4.29572e-05
34.5502
3.96911e-05
34.552
3.6392e-05
34.5537
3.3104e-05
34.5555
2.98698e-05
34.5573
2.67294e-05
34.5591
2.37188e-05
34.5609
2.08686e-05
34.5627
1.82034e-05
34.5645
1.57414e-05
34.5663
1.34942e-05
34.5681
1.14672e-05
34.57
9.65998e-06
34.5718
8.06713e-06
34.5736
6.67909e-06
34.5753
5.48294e-06
34.5771
4.46342e-06
34.5789
3.60388e-06
34.5806
2.88694e-06
34.5823
2.2952e-06
34.584
1.81188e-06
34.5857
1.42117e-06
34.5874
1.10845e-06
34.589
8.60626e-07
34.5906
6.66175e-07
34.5921
5.14967e-07
34.5937
3.98498e-07
34.5951
3.09654e-07
34.5966
2.42401e-07
34.598
1.91938e-07
34.5993
1.54404e-07
34.6006
1.2659e-07
34.6018
1.06099e-07
34.603
9.11032e-08
34.6041
8.0056e-08
34.6052
7.1924e-08
34.6062
6.59591e-08
34.6071
6.14275e-08
34.608
5.79685e-08
34.6088
5.53239e-08
34.6095
5.30881e-08
34.6101
5.12532e-08
34.6107
4.97125e-08
34.6112
4.82196e-08
34.6116
4.69488e-08
34.612
4.56876e-08
34.6122
4.44775e-08
34.6124
4.33743e-08
34.6125
4.21785e-08
34.6125
4.11749e-08
34.6124
3.99623e-08
34.6122
3.90394e-08
34.612
3.78448e-08
34.6116
3.6998e-08
34.6112
3.57982e-08
34.6107
3.49601e-08
34.61
3.36991e-08
34.6093
3.31684e-08
34.6085
3.22132e-08
34.6077
3.13419e-08
34.6067
3.05281e-08
34.6056
2.97589e-08
34.6045
2.90313e-08
34.6032
2.83492e-08
34.6019
2.77112e-08
34.6005
2.71204e-08
34.599
2.65775e-08
34.5974
2.60859e-08
34.5957
2.5643e-08
34.5939
2.52523e-08
34.5921
2.4917e-08
34.5902
2.46364e-08
34.5881
2.44092e-08
34.5861
2.42346e-08
34.5839
2.41175e-08
34.5817
2.40566e-08
34.5793
2.40509e-08
34.577
2.41e-08
34.5745
2.42035e-08
34.572
2.43615e-08
34.5694
2.45732e-08
34.5667
2.48331e-08
34.564
2.51466e-08
34.5612
2.55118e-08
34.5584
2.59251e-08
34.5555
2.63826e-08
34.5525
2.68838e-08
34.5495
2.74297e-08
34.5465
2.80181e-08
34.5434
2.8645e-08
34.5402
2.93048e-08
34.5371
2.99979e-08
34.5338
3.07223e-08
34.5306
3.14703e-08
34.5273
3.2245e-08
34.5239
3.30404e-08
34.5206
3.38389e-08
34.5172
3.46092e-08
34.5138
3.52466e-08
34.5103
3.60101e-08
34.5069
3.69275e-08
34.5034
3.81995e-08
34.4999
4.01615e-08
34.4964
4.04675e-08
34.493
4.0226e-08
34.4895
4.10187e-08
34.486
4.20489e-08
34.4825
4.29382e-08
34.479
4.37296e-08
34.4755
4.44738e-08
34.4721
4.51798e-08
34.4687
4.5849e-08
34.4653
4.648e-08
34.4619
4.70702e-08
34.4585
4.76205e-08
34.4552
4.81248e-08
34.4519
4.85838e-08
34.4487
4.89945e-08
34.4455
4.93537e-08
34.4423
4.96577e-08
34.4393
4.99083e-08
34.4362
5.01066e-08
34.4332
5.0248e-08
34.4303
5.03328e-08
34.4275
5.03592e-08
34.4247
5.03262e-08
34.422
5.02346e-08
34.4194
5.00818e-08
34.4169
4.9871e-08
34.4144
4.96029e-08
34.4121
4.92769e-08
34.4098
4.88938e-08
34.4076
4.84567e-08
34.4055
4.79665e-08
34.4036
4.7424e-08
34.4017
4.68358e-08
34.4
4.62032e-08
34.3983
4.55266e-08
34.3968
4.48103e-08
34.3954
4.40555e-08
34.3941
4.32663e-08
34.393
4.24438e-08
34.3919
4.15932e-08
34.391
4.07142e-08
34.3902
3.98124e-08
34.3896
3.889e-08
34.389
3.79537e-08
34.3886
3.70076e-08
34.3884
3.60535e-08
34.3882
3.5096e-08
34.3882
3.41406e-08
34.3884
3.31775e-08
34.3886
3.22532e-08
34.389
3.13203e-08
34.3896
3.04033e-08
34.3902
2.95088e-08
34.391
2.86407e-08
34.392
2.78167e-08
34.393
2.70848e-08
34.3942
2.60379e-08
34.3955
2.54738e-08
34.3969
2.47849e-08
34.3985
2.41726e-08
34.4002
2.3382e-08
34.4019
2.28238e-08
34.4038
2.23747e-08
34.4058
2.19254e-08
34.408
2.13875e-08
34.4102
2.10196e-08
34.4125
2.07665e-08
34.4149
2.05125e-08
34.4174
2.0211e-08
34.42
2.00509e-08
34.4227
1.99991e-08
34.4254
1.99666e-08
34.4282
1.98625e-08
34.4311
1.99384e-08
34.4341
2.00844e-08
34.4371
2.01894e-08
34.4402
2.03449e-08
34.4433
2.06489e-08
34.4465
2.08615e-08
34.4497
2.1216e-08
34.453
2.15489e-08
34.4563
2.19486e-08
34.4596
2.23858e-08
34.4629
2.28454e-08
34.4662
2.33388e-08
34.4696
2.38558e-08
34.473
2.43169e-08
34.4763
2.46084e-08
34.4797
2.48913e-08
34.483
2.54806e-08
34.4864
2.63396e-08
34.4897
2.71516e-08
34.493
2.7806e-08
34.4963
2.83228e-08
34.4995
2.87796e-08
34.5027
2.92014e-08
34.5059
2.96325e-08
34.509
3.00686e-08
34.5121
3.04931e-08
34.5151
3.08764e-08
34.5181
3.1436e-08
34.521
3.1637e-08
34.5238
3.19963e-08
34.5266
3.22959e-08
34.5293
3.25583e-08
34.5319
3.27811e-08
34.5345