/*--------------------------------*- C++ -*----------------------------------*\
| =========                 |                                                 |
| \\      /  F ield         | OpenFOAM: The Open Source CFD Toolbox           |
|  \\    /   O peration     | Version:  3.0.x                                 |
|   \\  /    A nd           | Web:      www.OpenFOAM.org                      |
|    \\/     M anipulation  |                                                 |
\*---------------------------------------------------------------------------*/
FoamFile
{
    version     2.0;
    format      ascii;
    class       volVectorField;
    location    "0.2";
    object      U;
}
// * * * * * * * * * * * * * * * * * * * * * * * * * * * * * * * * * * * * * //

dimensions      [0 1 -1 0 0 0 0];

internalField   nonuniform List<vector> 
27600
(
(42.6983 0.00012971 0)
(42.6969 0.000119181 0)
(42.6955 0.000117647 0)
(42.6942 0.000120411 0)
(42.6928 0.000122841 0)
(42.6913 0.000124706 0)
(42.6899 0.000126289 0)
(42.6884 0.000127643 0)
(42.687 0.000128803 0)
(42.6856 0.000129793 0)
(42.6842 0.000130637 0)
(42.6828 0.000131364 0)
(42.6814 0.000131994 0)
(42.6801 0.000132532 0)
(42.6787 0.00013301 0)
(42.6774 0.000133454 0)
(42.676 0.000133773 0)
(42.6747 0.000134104 0)
(42.6734 0.00013438 0)
(42.6721 0.000134631 0)
(42.6708 0.000134866 0)
(42.6696 0.00013505 0)
(42.6683 0.000135224 0)
(42.6671 0.00013538 0)
(42.6659 0.000135518 0)
(42.6647 0.000135639 0)
(42.6635 0.000135745 0)
(42.6624 0.000135828 0)
(42.6613 0.000135942 0)
(42.6602 0.000135986 0)
(42.6591 0.000136048 0)
(42.6581 0.000136114 0)
(42.6571 0.000136144 0)
(42.6561 0.000136212 0)
(42.6551 0.00013624 0)
(42.6542 0.000136235 0)
(42.6533 0.00013628 0)
(42.6524 0.0001363 0)
(42.6516 0.000136314 0)
(42.6508 0.000136323 0)
(42.65 0.000136317 0)
(42.6493 0.000136325 0)
(42.6485 0.000136296 0)
(42.6479 0.000136264 0)
(42.6472 0.000136193 0)
(42.6466 0.000136094 0)
(42.6461 0.000135943 0)
(42.6455 0.000135725 0)
(42.6451 0.000135419 0)
(42.6446 0.000134991 0)
(42.6442 0.000134444 0)
(42.6439 0.00013369 0)
(42.6435 0.00013273 0)
(42.6433 0.000131512 0)
(42.6431 0.000129995 0)
(42.6429 0.000128137 0)
(42.6428 0.0001259 0)
(42.6428 0.00012325 0)
(42.6429 0.000120161 0)
(42.643 0.000116617 0)
(42.6432 0.000112614 0)
(42.6435 0.00010816 0)
(42.6439 0.000103278 0)
(42.6444 9.80045e-05 0)
(42.645 9.23896e-05 0)
(42.6458 8.64956e-05 0)
(42.6466 8.03944e-05 0)
(42.6475 7.41648e-05 0)
(42.6485 6.78895e-05 0)
(42.6497 6.16519e-05 0)
(42.6509 5.55323e-05 0)
(42.6522 4.96055e-05 0)
(42.6537 4.39379e-05 0)
(42.6552 3.85856e-05 0)
(42.6568 3.35929e-05 0)
(42.6584 2.89921e-05 0)
(42.6602 2.48028e-05 0)
(42.662 2.1033e-05 0)
(42.6638 1.768e-05 0)
(42.6657 1.47318e-05 0)
(42.6676 1.21686e-05 0)
(42.6695 9.96508e-06 0)
(42.6715 8.09135e-06 0)
(42.6734 6.51535e-06 0)
(42.6754 5.2039e-06 0)
(42.6774 4.12402e-06 0)
(42.6793 3.2441e-06 0)
(42.6812 2.53446e-06 0)
(42.6831 1.96784e-06 0)
(42.685 1.51994e-06 0)
(42.6869 1.16935e-06 0)
(42.6887 8.97408e-07 0)
(42.6905 6.88565e-07 0)
(42.6922 5.29704e-07 0)
(42.6939 4.09784e-07 0)
(42.6955 3.20191e-07 0)
(42.6971 2.53795e-07 0)
(42.6986 2.04717e-07 0)
(42.7001 1.68785e-07 0)
(42.7015 1.42582e-07 0)
(42.7028 1.23271e-07 0)
(42.7041 1.09178e-07 0)
(42.7053 9.88907e-08 0)
(42.7064 9.10056e-08 0)
(42.7074 8.51155e-08 0)
(42.7084 8.06812e-08 0)
(42.7092 7.67969e-08 0)
(42.71 7.38535e-08 0)
(42.7107 7.13378e-08 0)
(42.7113 6.88727e-08 0)
(42.7118 6.70037e-08 0)
(42.7123 6.49247e-08 0)
(42.7126 6.31429e-08 0)
(42.7128 6.15039e-08 0)
(42.7129 5.96373e-08 0)
(42.713 5.83436e-08 0)
(42.7129 5.6371e-08 0)
(42.7127 5.53259e-08 0)
(42.7125 5.33531e-08 0)
(42.7121 5.24348e-08 0)
(42.7116 5.06113e-08 0)
(42.711 4.97974e-08 0)
(42.7103 4.75716e-08 0)
(42.7095 4.74485e-08 0)
(42.7085 4.59456e-08 0)
(42.7075 4.48774e-08 0)
(42.7064 4.38848e-08 0)
(42.7051 4.29719e-08 0)
(42.7038 4.21362e-08 0)
(42.7023 4.1378e-08 0)
(42.7008 4.07043e-08 0)
(42.6991 4.01154e-08 0)
(42.6973 3.961e-08 0)
(42.6954 3.92068e-08 0)
(42.6935 3.88861e-08 0)
(42.6914 3.86567e-08 0)
(42.6892 3.85254e-08 0)
(42.6869 3.84908e-08 0)
(42.6845 3.85446e-08 0)
(42.682 3.86901e-08 0)
(42.6795 3.89338e-08 0)
(42.6768 3.92705e-08 0)
(42.674 3.96973e-08 0)
(42.6712 4.02117e-08 0)
(42.6682 4.08164e-08 0)
(42.6652 4.15092e-08 0)
(42.6621 4.22825e-08 0)
(42.6589 4.31339e-08 0)
(42.6556 4.40629e-08 0)
(42.6522 4.50592e-08 0)
(42.6488 4.61371e-08 0)
(42.6453 4.72676e-08 0)
(42.6417 4.84589e-08 0)
(42.638 4.97181e-08 0)
(42.6343 5.10269e-08 0)
(42.6306 5.23922e-08 0)
(42.6267 5.38059e-08 0)
(42.6228 5.52595e-08 0)
(42.6189 5.67543e-08 0)
(42.6149 5.82856e-08 0)
(42.6108 5.98497e-08 0)
(42.6067 6.14361e-08 0)
(42.6026 6.30381e-08 0)
(42.5984 6.46531e-08 0)
(42.5942 6.59783e-08 0)
(42.59 6.75581e-08 0)
(42.5857 6.89555e-08 0)
(42.5814 7.07917e-08 0)
(42.5771 7.49356e-08 0)
(42.5728 7.52096e-08 0)
(42.5684 7.57717e-08 0)
(42.5641 7.72065e-08 0)
(42.5597 7.89687e-08 0)
(42.5554 8.06343e-08 0)
(42.551 8.21606e-08 0)
(42.5467 8.35991e-08 0)
(42.5424 8.49783e-08 0)
(42.5381 8.63024e-08 0)
(42.5338 8.75727e-08 0)
(42.5295 8.87881e-08 0)
(42.5253 8.99636e-08 0)
(42.5211 9.10807e-08 0)
(42.5169 9.21536e-08 0)
(42.5128 9.31655e-08 0)
(42.5088 9.41248e-08 0)
(42.5048 9.50184e-08 0)
(42.5008 9.58444e-08 0)
(42.497 9.66019e-08 0)
(42.4932 9.72847e-08 0)
(42.4894 9.7895e-08 0)
(42.4858 9.84326e-08 0)
(42.4822 9.88782e-08 0)
(42.4788 9.92481e-08 0)
(42.4754 9.9522e-08 0)
(42.4721 9.97133e-08 0)
(42.469 9.98188e-08 0)
(42.4659 9.98294e-08 0)
(42.463 9.97552e-08 0)
(42.4601 9.95823e-08 0)
(42.4574 9.93149e-08 0)
(42.4549 9.89691e-08 0)
(42.4524 9.85305e-08 0)
(42.4501 9.8012e-08 0)
(42.4479 9.74042e-08 0)
(42.4459 9.67234e-08 0)
(42.444 9.5955e-08 0)
(42.4423 9.51084e-08 0)
(42.4407 9.41879e-08 0)
(42.4393 9.31908e-08 0)
(42.438 9.21207e-08 0)
(42.4369 9.09918e-08 0)
(42.436 8.9786e-08 0)
(42.4352 8.85353e-08 0)
(42.4346 8.72272e-08 0)
(42.4341 8.5875e-08 0)
(42.4339 8.44861e-08 0)
(42.4337 8.30629e-08 0)
(42.4338 8.15732e-08 0)
(42.434 8.0125e-08 0)
(42.4344 7.86256e-08 0)
(42.435 7.71218e-08 0)
(42.4357 7.56152e-08 0)
(42.4366 7.41111e-08 0)
(42.4377 7.26143e-08 0)
(42.4389 7.14106e-08 0)
(42.4403 6.92879e-08 0)
(42.4418 6.83466e-08 0)
(42.4435 6.68549e-08 0)
(42.4454 6.56581e-08 0)
(42.4474 6.3995e-08 0)
(42.4496 6.28476e-08 0)
(42.4519 6.16876e-08 0)
(42.4543 6.06615e-08 0)
(42.4569 5.92298e-08 0)
(42.4596 5.83044e-08 0)
(42.4624 5.739e-08 0)
(42.4654 5.6586e-08 0)
(42.4685 5.54658e-08 0)
(42.4717 5.47511e-08 0)
(42.4749 5.40995e-08 0)
(42.4783 5.35656e-08 0)
(42.4818 5.26508e-08 0)
(42.4854 5.22863e-08 0)
(42.4891 5.19136e-08 0)
(42.4928 5.13498e-08 0)
(42.4966 5.09218e-08 0)
(42.5005 5.08236e-08 0)
(42.5045 5.02741e-08 0)
(42.5084 5.02536e-08 0)
(42.5125 4.98691e-08 0)
(42.5166 4.97832e-08 0)
(42.5207 4.96096e-08 0)
(42.5248 4.94766e-08 0)
(42.529 4.93735e-08 0)
(42.5332 4.93419e-08 0)
(42.5373 4.92023e-08 0)
(42.5415 4.83996e-08 0)
(42.5457 4.72214e-08 0)
(42.5499 4.66291e-08 0)
(42.5541 4.64912e-08 0)
(42.5582 4.64405e-08 0)
(42.5623 4.61983e-08 0)
(42.5664 4.55932e-08 0)
(42.5704 4.4839e-08 0)
(42.5744 4.42283e-08 0)
(42.5784 4.38442e-08 0)
(42.5823 4.36526e-08 0)
(42.5861 4.35844e-08 0)
(42.5899 4.34054e-08 0)
(42.5936 4.38697e-08 0)
(42.5972 4.34169e-08 0)
(42.6008 4.35228e-08 0)
(42.6043 4.34926e-08 0)
(42.6077 4.33947e-08 0)
(42.611 4.32516e-08 0)
(42.6142 4.30834e-08 0)
(42.6173 4.28847e-08 0)
(42.6203 4.26353e-08 0)
(42.6233 4.23194e-08 0)
(42.6261 4.19462e-08 0)
(42.6288 4.15395e-08 0)
(42.6314 4.11216e-08 0)
(42.6339 4.06142e-08 0)
(42.6363 4.00599e-08 0)
(42.6386 3.94605e-08 0)
(42.6408 3.8919e-08 0)
(42.6428 3.81505e-08 0)
(42.6447 3.73624e-08 0)
(42.6466 3.66641e-08 0)
(42.6483 3.58512e-08 0)
(42.6498 3.49864e-08 0)
(42.6513 3.4083e-08 0)
(42.6526 3.31416e-08 0)
(42.6539 3.21721e-08 0)
(42.655 3.11864e-08 0)
(42.6559 3.0181e-08 0)
(42.6568 2.91553e-08 0)
(42.6576 2.81075e-08 0)
(42.6582 2.70476e-08 0)
(42.6587 2.59613e-08 0)
(42.6591 2.48562e-08 0)
(42.6594 2.37316e-08 0)
(42.6596 2.26078e-08 0)
(42.6596 2.14986e-08 0)
(42.6596 2.03681e-08 0)
(42.6595 1.92955e-08 0)
(42.6592 1.82016e-08 0)
(42.6589 1.71333e-08 0)
(42.6584 1.60816e-08 0)
(42.6579 1.50564e-08 0)
(42.6572 1.405e-08 0)
(42.6565 1.30576e-08 0)
(42.6556 1.20927e-08 0)
(42.6547 1.116e-08 0)
(42.6537 1.02656e-08 0)
(42.6526 9.40844e-09 0)
(42.6515 8.58873e-09 0)
(42.6502 7.80928e-09 0)
(42.6489 7.06993e-09 0)
(42.6475 6.36863e-09 0)
(42.6461 5.70249e-09 0)
(42.6446 5.06664e-09 0)
(42.643 4.49076e-09 0)
(42.6414 3.99133e-09 0)
(42.6397 3.59238e-09 0)
(42.638 3.32722e-09 0)
(42.6362 3.20893e-09 0)
(42.6344 3.24296e-09 0)
(42.6325 3.40881e-09 0)
(42.6306 3.69894e-09 0)
(42.6286 4.08537e-09 0)
(42.6267 4.53687e-09 0)
(42.6247 5.03159e-09 0)
(42.6226 5.54242e-09 0)
(42.6206 6.08636e-09 0)
(42.6185 6.66781e-09 0)
(42.6164 7.28993e-09 0)
(42.6143 7.96707e-09 0)
(42.6122 8.68938e-09 0)
(42.6101 9.46572e-09 0)
(42.608 1.02947e-08 0)
(42.6059 1.11729e-08 0)
(42.6038 1.21049e-08 0)
(42.6016 1.3081e-08 0)
(42.5995 1.4102e-08 0)
(42.5974 1.51656e-08 0)
(42.5953 1.6276e-08 0)
(42.5932 1.74262e-08 0)
(42.5912 1.86076e-08 0)
(42.5891 1.9821e-08 0)
(42.5871 2.10652e-08 0)
(42.5851 2.23421e-08 0)
(42.5831 2.36396e-08 0)
(42.5811 2.49629e-08 0)
(42.5792 2.62997e-08 0)
(42.5772 2.76504e-08 0)
(42.5754 2.90111e-08 0)
(42.5735 3.03854e-08 0)
(42.5717 3.17714e-08 0)
(42.5699 3.31605e-08 0)
(42.5681 3.45541e-08 0)
(42.5664 3.59507e-08 0)
(42.5647 3.73423e-08 0)
(42.563 3.87333e-08 0)
(42.5614 4.01208e-08 0)
(42.5598 4.14959e-08 0)
(42.5583 4.28697e-08 0)
(42.5567 4.42285e-08 0)
(42.5553 4.55785e-08 0)
(42.5538 4.69201e-08 0)
(42.5524 4.82335e-08 0)
(42.5511 4.95408e-08 0)
(42.5498 5.08245e-08 0)
(42.5485 5.21028e-08 0)
(42.5472 5.33702e-08 0)
(42.546 5.46602e-08 0)
(42.5448 5.60229e-08 0)
(42.5437 5.75679e-08 0)
(42.5426 5.9627e-08 0)
(42.5416 6.28929e-08 0)
(42.5405 6.90664e-08 0)
(42.5395 8.22018e-08 0)
(42.5386 1.11927e-07 0)
(42.5377 1.81451e-07 0)
(42.5368 3.46099e-07 0)
(42.5359 7.38354e-07 0)
(42.5351 1.67509e-06 0)
(42.5342 3.91382e-06 0)
(42.5333 9.26615e-06 0)
(42.5322 2.20634e-05 0)
(42.5306 5.26584e-05 0)
(42.5277 0.000125792 0)
(42.5217 0.000300411 0)
(42.5085 0.000715779 0)
(42.4778 0.00169723 0)
(42.4056 0.00402637 0)
(42.2357 0.00954371 0)
(41.8339 0.0227953 0)
(40.9369 0.0573297 0)
(37.3104 0.158767 0)
(42.7002 0.000208892 0)
(42.7007 0.000168665 0)
(42.7014 0.000152612 0)
(42.702 0.000150542 0)
(42.7025 0.000149141 0)
(42.703 0.000147396 0)
(42.7035 0.000145964 0)
(42.704 0.00014482 0)
(42.7046 0.00014387 0)
(42.7051 0.000143052 0)
(42.7057 0.000142336 0)
(42.7062 0.00014172 0)
(42.7068 0.000141185 0)
(42.7074 0.000140704 0)
(42.708 0.0001403 0)
(42.7086 0.000139986 0)
(42.7092 0.000139596 0)
(42.7098 0.000139338 0)
(42.7104 0.000139084 0)
(42.7111 0.000138873 0)
(42.7118 0.000138708 0)
(42.7125 0.000138515 0)
(42.7132 0.000138371 0)
(42.7139 0.000138246 0)
(42.7146 0.000138132 0)
(42.7154 0.000138031 0)
(42.7162 0.00013794 0)
(42.717 0.000137842 0)
(42.7178 0.000137822 0)
(42.7187 0.00013771 0)
(42.7196 0.000137653 0)
(42.7205 0.000137621 0)
(42.7214 0.000137548 0)
(42.7224 0.000137551 0)
(42.7234 0.000137501 0)
(42.7244 0.000137415 0)
(42.7254 0.000137416 0)
(42.7265 0.000137388 0)
(42.7276 0.000137361 0)
(42.7287 0.000137333 0)
(42.7299 0.000137291 0)
(42.7311 0.000137286 0)
(42.7324 0.000137227 0)
(42.7336 0.000137177 0)
(42.7349 0.000137089 0)
(42.7363 0.000136978 0)
(42.7377 0.000136815 0)
(42.7391 0.000136586 0)
(42.7405 0.000136269 0)
(42.742 0.000135825 0)
(42.7435 0.000135275 0)
(42.7451 0.0001345 0)
(42.7467 0.000133523 0)
(42.7483 0.000132283 0)
(42.75 0.000130739 0)
(42.7517 0.000128849 0)
(42.7534 0.000126574 0)
(42.7552 0.000123882 0)
(42.757 0.000120742 0)
(42.7588 0.000117144 0)
(42.7606 0.000113082 0)
(42.7625 0.000108565 0)
(42.7644 0.000103617 0)
(42.7664 9.82771e-05 0)
(42.7683 9.25963e-05 0)
(42.7703 8.66386e-05 0)
(42.7723 8.04773e-05 0)
(42.7743 7.41927e-05 0)
(42.7764 6.78686e-05 0)
(42.7784 6.15892e-05 0)
(42.7805 5.54353e-05 0)
(42.7826 4.94819e-05 0)
(42.7847 4.37955e-05 0)
(42.7868 3.84315e-05 0)
(42.7889 3.34338e-05 0)
(42.791 2.88338e-05 0)
(42.7931 2.46501e-05 0)
(42.7952 2.08898e-05 0)
(42.7974 1.75492e-05 0)
(42.7995 1.46153e-05 0)
(42.8016 1.20676e-05 0)
(42.8036 9.87992e-06 0)
(42.8057 8.02177e-06 0)
(42.8078 6.46069e-06 0)
(42.8098 5.16314e-06 0)
(42.8118 4.09587e-06 0)
(42.8138 3.22722e-06 0)
(42.8158 2.52744e-06 0)
(42.8177 1.96922e-06 0)
(42.8197 1.52844e-06 0)
(42.8215 1.18379e-06 0)
(42.8233 9.16593e-07 0)
(42.8251 7.11624e-07 0)
(42.8269 5.55883e-07 0)
(42.8286 4.38313e-07 0)
(42.8302 3.50578e-07 0)
(42.8318 2.85619e-07 0)
(42.8333 2.37518e-07 0)
(42.8348 2.0232e-07 0)
(42.8362 1.76673e-07 0)
(42.8375 1.57609e-07 0)
(42.8388 1.43666e-07 0)
(42.84 1.33456e-07 0)
(42.8411 1.2536e-07 0)
(42.8421 1.19242e-07 0)
(42.8431 1.14548e-07 0)
(42.8439 1.10085e-07 0)
(42.8447 1.06676e-07 0)
(42.8454 1.03609e-07 0)
(42.846 1.00342e-07 0)
(42.8465 9.79007e-08 0)
(42.847 9.49797e-08 0)
(42.8473 9.24449e-08 0)
(42.8475 9.00614e-08 0)
(42.8476 8.72171e-08 0)
(42.8477 8.52923e-08 0)
(42.8476 8.21649e-08 0)
(42.8474 8.05633e-08 0)
(42.8471 7.73676e-08 0)
(42.8468 7.59182e-08 0)
(42.8463 7.28532e-08 0)
(42.8457 7.15038e-08 0)
(42.845 6.76181e-08 0)
(42.8441 6.74462e-08 0)
(42.8432 6.47765e-08 0)
(42.8422 6.2814e-08 0)
(42.8411 6.09418e-08 0)
(42.8398 5.91537e-08 0)
(42.8385 5.74614e-08 0)
(42.837 5.58591e-08 0)
(42.8354 5.43577e-08 0)
(42.8338 5.29486e-08 0)
(42.832 5.16522e-08 0)
(42.8301 5.04651e-08 0)
(42.8281 4.93853e-08 0)
(42.8261 4.84215e-08 0)
(42.8239 4.75777e-08 0)
(42.8216 4.68614e-08 0)
(42.8192 4.62663e-08 0)
(42.8167 4.5791e-08 0)
(42.8141 4.54476e-08 0)
(42.8115 4.52293e-08 0)
(42.8087 4.51445e-08 0)
(42.8058 4.51805e-08 0)
(42.8029 4.53478e-08 0)
(42.7998 4.56407e-08 0)
(42.7967 4.60613e-08 0)
(42.7935 4.66039e-08 0)
(42.7902 4.72653e-08 0)
(42.7869 4.80525e-08 0)
(42.7834 4.89589e-08 0)
(42.7799 4.99754e-08 0)
(42.7764 5.10925e-08 0)
(42.7727 5.23183e-08 0)
(42.769 5.36427e-08 0)
(42.7652 5.50668e-08 0)
(42.7614 5.65735e-08 0)
(42.7575 5.81497e-08 0)
(42.7535 5.98008e-08 0)
(42.7495 6.15148e-08 0)
(42.7455 6.33003e-08 0)
(42.7414 6.51416e-08 0)
(42.7372 6.70049e-08 0)
(42.7331 6.89009e-08 0)
(42.7289 7.02722e-08 0)
(42.7246 7.21342e-08 0)
(42.7204 7.38018e-08 0)
(42.7161 7.6369e-08 0)
(42.7118 8.27311e-08 0)
(42.7074 8.17538e-08 0)
(42.7031 8.18776e-08 0)
(42.6987 8.3757e-08 0)
(42.6944 8.60883e-08 0)
(42.69 8.81835e-08 0)
(42.6857 9.00463e-08 0)
(42.6813 9.17951e-08 0)
(42.677 9.34632e-08 0)
(42.6727 9.50643e-08 0)
(42.6684 9.65772e-08 0)
(42.6641 9.80125e-08 0)
(42.6599 9.9362e-08 0)
(42.6557 1.00622e-07 0)
(42.6516 1.01785e-07 0)
(42.6475 1.02852e-07 0)
(42.6434 1.03812e-07 0)
(42.6394 1.04654e-07 0)
(42.6355 1.05378e-07 0)
(42.6316 1.05987e-07 0)
(42.6278 1.06476e-07 0)
(42.6241 1.06839e-07 0)
(42.6204 1.07075e-07 0)
(42.6169 1.07176e-07 0)
(42.6134 1.07142e-07 0)
(42.61 1.06978e-07 0)
(42.6068 1.06678e-07 0)
(42.6036 1.06235e-07 0)
(42.6005 1.05668e-07 0)
(42.5976 1.04961e-07 0)
(42.5948 1.04128e-07 0)
(42.5921 1.03166e-07 0)
(42.5895 1.02078e-07 0)
(42.587 1.00871e-07 0)
(42.5847 9.9551e-08 0)
(42.5826 9.81257e-08 0)
(42.5805 9.6589e-08 0)
(42.5786 9.49518e-08 0)
(42.5769 9.3221e-08 0)
(42.5753 9.13985e-08 0)
(42.5739 8.94981e-08 0)
(42.5726 8.75134e-08 0)
(42.5715 8.54665e-08 0)
(42.5706 8.33523e-08 0)
(42.5698 8.11896e-08 0)
(42.5692 7.89813e-08 0)
(42.5688 7.67434e-08 0)
(42.5685 7.44842e-08 0)
(42.5684 7.22191e-08 0)
(42.5684 6.98879e-08 0)
(42.5686 6.76971e-08 0)
(42.569 6.5419e-08 0)
(42.5696 6.31852e-08 0)
(42.5703 6.09941e-08 0)
(42.5712 5.88417e-08 0)
(42.5723 5.67594e-08 0)
(42.5735 5.52339e-08 0)
(42.5749 5.20931e-08 0)
(42.5765 5.11081e-08 0)
(42.5782 4.91842e-08 0)
(42.58 4.77788e-08 0)
(42.582 4.56131e-08 0)
(42.5842 4.44069e-08 0)
(42.5865 4.31758e-08 0)
(42.5889 4.21776e-08 0)
(42.5915 4.05634e-08 0)
(42.5942 3.98183e-08 0)
(42.597 3.91127e-08 0)
(42.6 3.85874e-08 0)
(42.6031 3.76047e-08 0)
(42.6063 3.73229e-08 0)
(42.6095 3.71524e-08 0)
(42.6129 3.71697e-08 0)
(42.6164 3.66333e-08 0)
(42.62 3.69758e-08 0)
(42.6237 3.73367e-08 0)
(42.6274 3.74213e-08 0)
(42.6312 3.77643e-08 0)
(42.6351 3.86087e-08 0)
(42.639 3.87839e-08 0)
(42.643 3.98168e-08 0)
(42.6471 4.0284e-08 0)
(42.6512 4.12269e-08 0)
(42.6553 4.20518e-08 0)
(42.6594 4.29457e-08 0)
(42.6636 4.38997e-08 0)
(42.6677 4.49352e-08 0)
(42.6719 4.57777e-08 0)
(42.6761 4.57663e-08 0)
(42.6803 4.57694e-08 0)
(42.6845 4.69565e-08 0)
(42.6886 4.85694e-08 0)
(42.6928 5.02452e-08 0)
(42.6969 5.20765e-08 0)
(42.701 5.41479e-08 0)
(42.705 5.6239e-08 0)
(42.709 5.80577e-08 0)
(42.713 5.9569e-08 0)
(42.7168 6.08533e-08 0)
(42.7207 6.20177e-08 0)
(42.7245 6.28675e-08 0)
(42.7282 6.47663e-08 0)
(42.7318 6.50101e-08 0)
(42.7354 6.62055e-08 0)
(42.7388 6.70897e-08 0)
(42.7422 6.78991e-08 0)
(42.7455 6.86103e-08 0)
(42.7488 6.92223e-08 0)
(42.7519 6.97188e-08 0)
(42.7549 7.01084e-08 0)
(42.7578 7.04127e-08 0)
(42.7607 7.0617e-08 0)
(42.7634 7.06772e-08 0)
(42.766 7.06752e-08 0)
(42.7685 7.05375e-08 0)
(42.7709 7.03206e-08 0)
(42.7732 6.9988e-08 0)
(42.7753 6.97103e-08 0)
(42.7774 6.89486e-08 0)
(42.7793 6.81464e-08 0)
(42.7811 6.75338e-08 0)
(42.7828 6.66804e-08 0)
(42.7844 6.5712e-08 0)
(42.7858 6.46649e-08 0)
(42.7872 6.35261e-08 0)
(42.7884 6.23081e-08 0)
(42.7895 6.1001e-08 0)
(42.7905 5.95979e-08 0)
(42.7914 5.81375e-08 0)
(42.7921 5.66064e-08 0)
(42.7927 5.50309e-08 0)
(42.7932 5.34084e-08 0)
(42.7937 5.17448e-08 0)
(42.7939 5.0044e-08 0)
(42.7941 4.83195e-08 0)
(42.7942 4.65795e-08 0)
(42.7941 4.47327e-08 0)
(42.794 4.29839e-08 0)
(42.7937 4.11637e-08 0)
(42.7934 3.93431e-08 0)
(42.7929 3.75344e-08 0)
(42.7924 3.57359e-08 0)
(42.7917 3.395e-08 0)
(42.791 3.21931e-08 0)
(42.7902 3.04663e-08 0)
(42.7893 2.87771e-08 0)
(42.7883 2.71253e-08 0)
(42.7872 2.55271e-08 0)
(42.786 2.39802e-08 0)
(42.7848 2.248e-08 0)
(42.7835 2.10502e-08 0)
(42.7821 1.96968e-08 0)
(42.7806 1.84203e-08 0)
(42.7791 1.72303e-08 0)
(42.7775 1.60984e-08 0)
(42.7759 1.50128e-08 0)
(42.7742 1.39505e-08 0)
(42.7725 1.29008e-08 0)
(42.7707 1.18974e-08 0)
(42.7689 1.09582e-08 0)
(42.767 1.01114e-08 0)
(42.7651 9.34242e-09 0)
(42.7632 8.65016e-09 0)
(42.7612 8.02958e-09 0)
(42.7592 7.48846e-09 0)
(42.7572 7.03685e-09 0)
(42.7551 6.68449e-09 0)
(42.753 6.43542e-09 0)
(42.7509 6.29149e-09 0)
(42.7489 6.24739e-09 0)
(42.7467 6.2998e-09 0)
(42.7446 6.4495e-09 0)
(42.7425 6.7021e-09 0)
(42.7404 7.05464e-09 0)
(42.7383 7.49613e-09 0)
(42.7361 8.03551e-09 0)
(42.734 8.66536e-09 0)
(42.7319 9.37685e-09 0)
(42.7298 1.0171e-08 0)
(42.7277 1.10408e-08 0)
(42.7257 1.19915e-08 0)
(42.7236 1.30072e-08 0)
(42.7216 1.40863e-08 0)
(42.7196 1.52337e-08 0)
(42.7176 1.6437e-08 0)
(42.7156 1.76939e-08 0)
(42.7137 1.90065e-08 0)
(42.7117 2.03631e-08 0)
(42.7098 2.17645e-08 0)
(42.708 2.32016e-08 0)
(42.7062 2.46758e-08 0)
(42.7044 2.61753e-08 0)
(42.7026 2.76965e-08 0)
(42.7009 2.92467e-08 0)
(42.6992 3.08176e-08 0)
(42.6975 3.23995e-08 0)
(42.6959 3.39942e-08 0)
(42.6943 3.55967e-08 0)
(42.6927 3.72054e-08 0)
(42.6912 3.88144e-08 0)
(42.6898 4.04171e-08 0)
(42.6883 4.20259e-08 0)
(42.6869 4.36198e-08 0)
(42.6855 4.52259e-08 0)
(42.6842 4.68181e-08 0)
(42.6829 4.84288e-08 0)
(42.6817 5.00647e-08 0)
(42.6805 5.18232e-08 0)
(42.6793 5.3877e-08 0)
(42.6782 5.65808e-08 0)
(42.6771 6.10642e-08 0)
(42.676 6.96159e-08 0)
(42.675 8.80962e-08 0)
(42.674 1.30286e-07 0)
(42.6731 2.28966e-07 0)
(42.6721 4.63063e-07 0)
(42.6713 1.02084e-06 0)
(42.6704 2.35304e-06 0)
(42.6696 5.53825e-06 0)
(42.6687 1.3155e-05 0)
(42.6678 3.13699e-05 0)
(42.6667 7.49263e-05 0)
(42.6651 0.000179064 0)
(42.6622 0.000427991 0)
(42.6562 0.00102233 0)
(42.6431 0.002436 0)
(42.6125 0.00577533 0)
(42.5407 0.0136945 0)
(42.3717 0.0324214 0)
(41.9722 0.0771815 0)
(41.0819 0.191934 0)
(37.6765 0.501829 0)
(42.7002 0.000149853 0)
(42.7007 0.000119671 0)
(42.7013 0.000105959 0)
(42.7019 0.000108284 0)
(42.7025 0.000110395 0)
(42.703 0.000110941 0)
(42.7035 0.000111315 0)
(42.704 0.000111729 0)
(42.7046 0.000112107 0)
(42.7051 0.000112425 0)
(42.7056 0.000112692 0)
(42.7062 0.000112933 0)
(42.7068 0.000113144 0)
(42.7074 0.000113321 0)
(42.708 0.000113491 0)
(42.7086 0.000113663 0)
(42.7092 0.000113749 0)
(42.7098 0.000113878 0)
(42.7104 0.000113978 0)
(42.7111 0.000114078 0)
(42.7118 0.00011418 0)
(42.7125 0.000114238 0)
(42.7132 0.000114316 0)
(42.7139 0.000114385 0)
(42.7146 0.000114445 0)
(42.7154 0.0001145 0)
(42.7162 0.000114548 0)
(42.717 0.000114583 0)
(42.7178 0.000114654 0)
(42.7187 0.000114659 0)
(42.7196 0.000114693 0)
(42.7205 0.000114734 0)
(42.7214 0.000114746 0)
(42.7224 0.000114794 0)
(42.7234 0.000114801 0)
(42.7244 0.0001148 0)
(42.7255 0.000114831 0)
(42.7265 0.000114845 0)
(42.7277 0.000114857 0)
(42.7288 0.000114864 0)
(42.73 0.000114859 0)
(42.7312 0.000114878 0)
(42.7324 0.000114852 0)
(42.7337 0.000114826 0)
(42.735 0.000114775 0)
(42.7364 0.000114699 0)
(42.7377 0.000114578 0)
(42.7392 0.0001144 0)
(42.7406 0.000114148 0)
(42.7421 0.000113793 0)
(42.7436 0.000113334 0)
(42.7452 0.000112705 0)
(42.7468 0.000111898 0)
(42.7484 0.000110871 0)
(42.7501 0.000109591 0)
(42.7518 0.000108021 0)
(42.7535 0.00010613 0)
(42.7553 0.000103889 0)
(42.7571 0.000101273 0)
(42.7589 9.8274e-05 0)
(42.7608 9.48864e-05 0)
(42.7626 9.11173e-05 0)
(42.7645 8.69869e-05 0)
(42.7665 8.25266e-05 0)
(42.7684 7.77797e-05 0)
(42.7704 7.27991e-05 0)
(42.7724 6.76459e-05 0)
(42.7744 6.23872e-05 0)
(42.7765 5.70928e-05 0)
(42.7785 5.1833e-05 0)
(42.7806 4.66758e-05 0)
(42.7827 4.16838e-05 0)
(42.7848 3.69128e-05 0)
(42.7869 3.24097e-05 0)
(42.789 2.82115e-05 0)
(42.7911 2.43446e-05 0)
(42.7932 2.08254e-05 0)
(42.7953 1.76601e-05 0)
(42.7974 1.48459e-05 0)
(42.7995 1.23724e-05 0)
(42.8016 1.02227e-05 0)
(42.8037 8.37519e-06 0)
(42.8058 6.80461e-06 0)
(42.8079 5.48394e-06 0)
(42.8099 4.38518e-06 0)
(42.8119 3.48052e-06 0)
(42.8139 2.74349e-06 0)
(42.8159 2.1491e-06 0)
(42.8178 1.67445e-06 0)
(42.8197 1.29923e-06 0)
(42.8216 1.00546e-06 0)
(42.8234 7.7743e-07 0)
(42.8252 6.02239e-07 0)
(42.8269 4.68844e-07 0)
(42.8286 3.67937e-07 0)
(42.8303 2.92409e-07 0)
(42.8318 2.36267e-07 0)
(42.8334 1.94562e-07 0)
(42.8348 1.63912e-07 0)
(42.8362 1.41461e-07 0)
(42.8376 1.24777e-07 0)
(42.8388 1.12559e-07 0)
(42.84 1.03598e-07 0)
(42.8411 9.66336e-08 0)
(42.8422 9.14312e-08 0)
(42.8431 8.74775e-08 0)
(42.844 8.39208e-08 0)
(42.8448 8.12372e-08 0)
(42.8455 7.88916e-08 0)
(42.8461 7.65073e-08 0)
(42.8466 7.47317e-08 0)
(42.847 7.26618e-08 0)
(42.8473 7.08765e-08 0)
(42.8476 6.9209e-08 0)
(42.8477 6.72431e-08 0)
(42.8477 6.59072e-08 0)
(42.8477 6.37369e-08 0)
(42.8475 6.26282e-08 0)
(42.8472 6.04235e-08 0)
(42.8468 5.94291e-08 0)
(42.8463 5.72589e-08 0)
(42.8457 5.63332e-08 0)
(42.845 5.35624e-08 0)
(42.8442 5.35405e-08 0)
(42.8433 5.16887e-08 0)
(42.8423 5.03093e-08 0)
(42.8411 4.90079e-08 0)
(42.8399 4.77753e-08 0)
(42.8385 4.66038e-08 0)
(42.8371 4.55049e-08 0)
(42.8355 4.44711e-08 0)
(42.8338 4.35099e-08 0)
(42.8321 4.2625e-08 0)
(42.8302 4.18212e-08 0)
(42.8282 4.10911e-08 0)
(42.8261 4.04429e-08 0)
(42.8239 3.98801e-08 0)
(42.8216 3.94032e-08 0)
(42.8193 3.90087e-08 0)
(42.8168 3.86893e-08 0)
(42.8142 3.84585e-08 0)
(42.8115 3.83133e-08 0)
(42.8087 3.82512e-08 0)
(42.8059 3.82676e-08 0)
(42.8029 3.8362e-08 0)
(42.7999 3.85348e-08 0)
(42.7968 3.87877e-08 0)
(42.7936 3.91065e-08 0)
(42.7903 3.95037e-08 0)
(42.7869 3.997e-08 0)
(42.7835 4.05078e-08 0)
(42.78 4.11065e-08 0)
(42.7764 4.17645e-08 0)
(42.7728 4.24877e-08 0)
(42.7691 4.32758e-08 0)
(42.7653 4.41188e-08 0)
(42.7614 4.50135e-08 0)
(42.7575 4.59631e-08 0)
(42.7536 4.69687e-08 0)
(42.7496 4.80143e-08 0)
(42.7455 4.9117e-08 0)
(42.7414 5.02551e-08 0)
(42.7373 5.1413e-08 0)
(42.7331 5.25773e-08 0)
(42.7289 5.33266e-08 0)
(42.7247 5.44563e-08 0)
(42.7204 5.56297e-08 0)
(42.7161 5.76365e-08 0)
(42.7118 6.20672e-08 0)
(42.7075 6.0637e-08 0)
(42.7031 6.04003e-08 0)
(42.6988 6.17305e-08 0)
(42.6944 6.32816e-08 0)
(42.6901 6.45786e-08 0)
(42.6857 6.57016e-08 0)
(42.6814 6.67482e-08 0)
(42.6771 6.77336e-08 0)
(42.6728 6.86603e-08 0)
(42.6685 6.95265e-08 0)
(42.6642 7.03232e-08 0)
(42.66 7.10493e-08 0)
(42.6558 7.16954e-08 0)
(42.6516 7.22666e-08 0)
(42.6475 7.27567e-08 0)
(42.6435 7.3155e-08 0)
(42.6395 7.34647e-08 0)
(42.6355 7.36851e-08 0)
(42.6317 7.38193e-08 0)
(42.6279 7.38573e-08 0)
(42.6241 7.38025e-08 0)
(42.6205 7.36591e-08 0)
(42.6169 7.34161e-08 0)
(42.6135 7.30808e-08 0)
(42.6101 7.265e-08 0)
(42.6068 7.21234e-08 0)
(42.6037 7.15125e-08 0)
(42.6006 7.08122e-08 0)
(42.5976 7.0026e-08 0)
(42.5948 6.91517e-08 0)
(42.5921 6.81987e-08 0)
(42.5895 6.71716e-08 0)
(42.5871 6.60724e-08 0)
(42.5848 6.49129e-08 0)
(42.5826 6.36879e-08 0)
(42.5806 6.24114e-08 0)
(42.5787 6.10818e-08 0)
(42.577 5.97021e-08 0)
(42.5754 5.82821e-08 0)
(42.574 5.68246e-08 0)
(42.5727 5.53291e-08 0)
(42.5716 5.38153e-08 0)
(42.5707 5.22753e-08 0)
(42.5699 5.07272e-08 0)
(42.5693 4.91721e-08 0)
(42.5688 4.76158e-08 0)
(42.5685 4.60671e-08 0)
(42.5684 4.4535e-08 0)
(42.5685 4.29711e-08 0)
(42.5687 4.15402e-08 0)
(42.5691 4.00551e-08 0)
(42.5697 3.86199e-08 0)
(42.5704 3.72382e-08 0)
(42.5713 3.59026e-08 0)
(42.5724 3.46427e-08 0)
(42.5736 3.37816e-08 0)
(42.575 3.17121e-08 0)
(42.5765 3.12831e-08 0)
(42.5782 3.01887e-08 0)
(42.5801 2.94233e-08 0)
(42.5821 2.81196e-08 0)
(42.5842 2.75413e-08 0)
(42.5865 2.6942e-08 0)
(42.589 2.64524e-08 0)
(42.5916 2.55931e-08 0)
(42.5943 2.53113e-08 0)
(42.5971 2.50792e-08 0)
(42.6001 2.49179e-08 0)
(42.6031 2.45e-08 0)
(42.6063 2.45344e-08 0)
(42.6096 2.4656e-08 0)
(42.613 2.4865e-08 0)
(42.6165 2.47664e-08 0)
(42.6201 2.52219e-08 0)
(42.6237 2.57019e-08 0)
(42.6275 2.60131e-08 0)
(42.6313 2.65202e-08 0)
(42.6352 2.73135e-08 0)
(42.6391 2.77539e-08 0)
(42.6431 2.87246e-08 0)
(42.6471 2.93888e-08 0)
(42.6512 3.03684e-08 0)
(42.6553 3.13098e-08 0)
(42.6595 3.23346e-08 0)
(42.6636 3.34352e-08 0)
(42.6678 3.46121e-08 0)
(42.672 3.56575e-08 0)
(42.6762 3.63384e-08 0)
(42.6804 3.7449e-08 0)
(42.6845 3.91806e-08 0)
(42.6887 4.07987e-08 0)
(42.6928 4.21795e-08 0)
(42.6969 4.34557e-08 0)
(42.701 4.45798e-08 0)
(42.7051 4.54676e-08 0)
(42.7091 4.62208e-08 0)
(42.713 4.69389e-08 0)
(42.7169 4.76335e-08 0)
(42.7207 4.8311e-08 0)
(42.7245 4.88227e-08 0)
(42.7282 5.0092e-08 0)
(42.7319 5.01247e-08 0)
(42.7354 5.08563e-08 0)
(42.7389 5.1327e-08 0)
(42.7423 5.17783e-08 0)
(42.7456 5.21511e-08 0)
(42.7488 5.24021e-08 0)
(42.7519 5.25463e-08 0)
(42.755 5.26488e-08 0)
(42.7579 5.2715e-08 0)
(42.7607 5.26907e-08 0)
(42.7634 5.25369e-08 0)
(42.766 5.23311e-08 0)
(42.7685 5.20138e-08 0)
(42.7709 5.16189e-08 0)
(42.7732 5.11746e-08 0)
(42.7754 5.07966e-08 0)
(42.7774 5.00565e-08 0)
(42.7794 4.92865e-08 0)
(42.7812 4.86686e-08 0)
(42.7829 4.78544e-08 0)
(42.7844 4.69602e-08 0)
(42.7859 4.60007e-08 0)
(42.7872 4.49788e-08 0)
(42.7885 4.38852e-08 0)
(42.7896 4.27458e-08 0)
(42.7906 4.15748e-08 0)
(42.7914 4.03761e-08 0)
(42.7922 3.91409e-08 0)
(42.7928 3.78603e-08 0)
(42.7933 3.65463e-08 0)
(42.7937 3.52143e-08 0)
(42.794 3.38507e-08 0)
(42.7942 3.24673e-08 0)
(42.7942 3.10709e-08 0)
(42.7942 2.95951e-08 0)
(42.7941 2.82115e-08 0)
(42.7938 2.68062e-08 0)
(42.7935 2.54133e-08 0)
(42.793 2.40273e-08 0)
(42.7925 2.26542e-08 0)
(42.7918 2.12998e-08 0)
(42.7911 1.99758e-08 0)
(42.7902 1.86749e-08 0)
(42.7893 1.74012e-08 0)
(42.7883 1.61577e-08 0)
(42.7872 1.49597e-08 0)
(42.7861 1.37928e-08 0)
(42.7848 1.26719e-08 0)
(42.7835 1.1595e-08 0)
(42.7821 1.05669e-08 0)
(42.7807 9.58472e-09 0)
(42.7792 8.66669e-09 0)
(42.7776 7.79904e-09 0)
(42.776 7.04085e-09 0)
(42.7743 6.39451e-09 0)
(42.7726 5.80794e-09 0)
(42.7708 5.26519e-09 0)
(42.7689 4.77832e-09 0)
(42.7671 4.344e-09 0)
(42.7652 3.96841e-09 0)
(42.7632 3.64525e-09 0)
(42.7612 3.38058e-09 0)
(42.7592 3.19274e-09 0)
(42.7572 3.09049e-09 0)
(42.7552 3.06225e-09 0)
(42.7531 3.09718e-09 0)
(42.751 3.2012e-09 0)
(42.7489 3.35915e-09 0)
(42.7468 3.56638e-09 0)
(42.7447 3.82599e-09 0)
(42.7426 4.13504e-09 0)
(42.7404 4.49868e-09 0)
(42.7383 4.9068e-09 0)
(42.7362 5.36289e-09 0)
(42.7341 5.87486e-09 0)
(42.732 6.42861e-09 0)
(42.7299 7.03551e-09 0)
(42.7278 7.69114e-09 0)
(42.7257 8.39128e-09 0)
(42.7237 9.13885e-09 0)
(42.7216 9.93119e-09 0)
(42.7196 1.07741e-08 0)
(42.7176 1.16532e-08 0)
(42.7157 1.25723e-08 0)
(42.7137 1.35336e-08 0)
(42.7118 1.45223e-08 0)
(42.7099 1.55485e-08 0)
(42.708 1.65971e-08 0)
(42.7062 1.76845e-08 0)
(42.7044 1.87935e-08 0)
(42.7027 1.99208e-08 0)
(42.7009 2.10737e-08 0)
(42.6992 2.22447e-08 0)
(42.6976 2.34277e-08 0)
(42.6959 2.46312e-08 0)
(42.6944 2.58354e-08 0)
(42.6928 2.70616e-08 0)
(42.6913 2.82861e-08 0)
(42.6898 2.9513e-08 0)
(42.6884 3.07593e-08 0)
(42.687 3.19794e-08 0)
(42.6856 3.32393e-08 0)
(42.6843 3.44753e-08 0)
(42.683 3.57892e-08 0)
(42.6818 3.71573e-08 0)
(42.6805 3.87922e-08 0)
(42.6794 4.10391e-08 0)
(42.6782 4.46282e-08 0)
(42.6771 5.1783e-08 0)
(42.6761 6.69884e-08 0)
(42.6751 1.01804e-07 0)
(42.6741 1.83591e-07 0)
(42.6731 3.77617e-07 0)
(42.6722 8.40571e-07 0)
(42.6713 1.94619e-06 0)
(42.6705 4.58887e-06 0)
(42.6696 1.09086e-05 0)
(42.6688 2.60218e-05 0)
(42.6679 6.21645e-05 0)
(42.6668 0.000148591 0)
(42.6652 0.000355227 0)
(42.6623 0.000849165 0)
(42.6565 0.00202854 0)
(42.6436 0.00483412 0)
(42.6138 0.011462 0)
(42.5436 0.0271816 0)
(42.3784 0.0643547 0)
(41.9888 0.153101 0)
(41.1249 0.37948 0)
(37.9625 0.95998 0)
(42.7002 9.72833e-05 0)
(42.7007 9.88052e-05 0)
(42.7013 9.45538e-05 0)
(42.7019 9.87113e-05 0)
(42.7024 0.000102558 0)
(42.7029 0.000104484 0)
(42.7034 0.000105783 0)
(42.704 0.000106931 0)
(42.7045 0.00010793 0)
(42.705 0.000108774 0)
(42.7056 0.000109492 0)
(42.7062 0.000110115 0)
(42.7067 0.000110657 0)
(42.7073 0.000111125 0)
(42.7079 0.000111538 0)
(42.7085 0.000111907 0)
(42.7091 0.000112213 0)
(42.7097 0.000112494 0)
(42.7104 0.000112741 0)
(42.711 0.000112966 0)
(42.7117 0.00011317 0)
(42.7124 0.000113337 0)
(42.7131 0.0001135 0)
(42.7138 0.000113645 0)
(42.7146 0.000113772 0)
(42.7154 0.000113887 0)
(42.7161 0.000113988 0)