/*--------------------------------*- C++ -*----------------------------------*\
| =========                 |                                                 |
| \\      /  F ield         | OpenFOAM: The Open Source CFD Toolbox           |
|  \\    /   O peration     | Version:  3.0.x                                 |
|   \\  /    A nd           | Web:      www.OpenFOAM.org                      |
|    \\/     M anipulation  |                                                 |
\*---------------------------------------------------------------------------*/
FoamFile
{
    version     2.0;
    format      ascii;
    class       surfaceScalarField;
    location    "0.36";
    object      phi;
}
// * * * * * * * * * * * * * * * * * * * * * * * * * * * * * * * * * * * * * //

dimensions      [1 0 -1 0 0 0 0];

internalField   nonuniform List<scalar> 
52430
(
3.90609
0.000243625
3.90592
0.000176135
3.90575
0.000169102
3.90557
0.000170335
3.9054
0.000170752
3.90523
0.000170696
3.90506
0.00017066
3.90489
0.000170663
3.90472
0.000170665
3.90454
0.000170663
3.90437
0.00017066
3.9042
0.000170656
3.90403
0.000170653
3.90386
0.000170649
3.90369
0.000170646
3.90351
0.000170642
3.90334
0.000170638
3.90317
0.000170633
3.903
0.000170628
3.90283
0.000170623
3.90266
0.000170625
3.90248
0.000170616
3.90231
0.000170611
3.90214
0.000170603
3.90197
0.000170595
3.9018
0.000170624
3.90163
0.00017057
3.90145
0.000170581
3.90128
0.000170575
3.90111
0.000170567
3.90094
0.000170559
3.90077
0.000170553
3.90059
0.00017054
3.90042
0.000170547
3.90025
0.00017052
3.90007
0.00017052
3.8999
0.000170513
3.89972
0.000170506
3.89955
0.0001705
3.89938
0.000170495
3.89921
0.000170473
3.89904
0.000170478
3.89887
0.000170545
3.8987
0.00017045
3.89853
0.00017048
3.89837
0.000170482
3.8982
0.000170481
3.89803
0.00017048
3.89786
0.000170479
3.89769
0.000170477
3.89752
0.000170474
3.89735
0.000170471
3.89718
0.000170468
3.89701
0.000170461
3.89683
0.000170461
3.89666
0.000170446
3.89649
0.000170456
3.89631
0.000170441
3.89614
0.000170433
3.89596
0.000170426
3.89579
0.000170419
3.89562
0.000170412
3.89545
0.000170384
3.89528
0.000170393
3.89511
0.000170506
3.89494
0.000170314
3.89477
0.000170386
3.8946
0.000170385
3.89443
0.000170375
3.89426
0.00017036
3.89409
0.000170405
3.89392
0.000170376
3.89375
0.000170356
3.89358
0.00017036
3.89341
0.000170356
3.89324
0.000170547
3.89307
0.000170239
3.8929
0.000170366
3.89274
0.000170367
3.89257
0.000170365
3.8924
0.000170362
3.89223
0.000170359
3.89206
0.000170353
3.89189
0.000170346
3.89172
0.000170335
3.89155
0.000170321
3.89138
0.000170313
3.89121
0.000170288
3.89104
0.000170206
3.89087
0.000170193
3.89069
0.000170123
3.89052
0.000170033
3.89035
0.000169919
3.89018
0.000169772
3.89001
0.000169583
3.88984
0.000169316
3.88967
0.000169021
3.8895
0.000168688
3.88934
0.000168226
3.88917
0.000167626
3.88901
0.000166936
3.88885
0.000166099
3.88868
0.0001651
3.88852
0.000163918
3.88836
0.000162532
3.8882
0.00016092
3.88804
0.000159063
3.88789
0.00015694
3.88773
0.000154535
3.88758
0.000151834
3.88743
0.000148826
3.88729
0.000145503
3.88714
0.000141863
3.88701
0.00013791
3.88687
0.00013365
3.88674
0.000129096
3.88662
0.000124268
3.8865
0.000119189
3.88639
0.000113888
3.88628
0.000108397
3.88618
0.000102755
3.88608
9.70005e-05
3.88599
9.11758e-05
3.8859
8.53242e-05
3.88582
7.9489e-05
3.88575
7.3713e-05
3.88568
6.80371e-05
3.88562
6.2501e-05
3.88556
5.7137e-05
3.88551
5.19759e-05
3.88546
4.70519e-05
3.88542
4.23804e-05
3.88538
3.79809e-05
3.88535
3.38659e-05
3.88532
3.00431e-05
3.88529
2.65159e-05
3.88527
2.3283e-05
3.88524
2.03396e-05
3.88523
1.76774e-05
3.88521
1.5285e-05
3.8852
1.31482e-05
3.88519
1.12565e-05
3.88518
9.58558e-06
3.88517
8.12327e-06
3.88516
6.85074e-06
3.88515
5.75015e-06
3.88515
4.80418e-06
3.88514
3.99611e-06
3.88514
3.31003e-06
3.88514
2.73105e-06
3.88513
2.2454e-06
3.88513
1.84045e-06
3.88513
1.5048e-06
3.88513
1.22823e-06
3.88513
1.00166e-06
3.88512
8.17137e-07
3.88512
6.67722e-07
3.88512
5.47423e-07
3.88512
4.51124e-07
3.88512
3.74466e-07
3.88512
3.13788e-07
3.88512
2.66031e-07
3.88512
2.28645e-07
3.88512
1.99541e-07
3.88512
1.77015e-07
3.88511
1.59667e-07
3.88511
1.46383e-07
3.88511
1.36268e-07
3.88511
1.28604e-07
3.88511
1.22802e-07
3.88511
1.18536e-07
3.88511
1.15286e-07
3.88511
1.12897e-07
3.88511
1.11137e-07
3.88511
1.09849e-07
3.88511
1.08901e-07
3.8851
1.08239e-07
3.8851
1.07721e-07
3.8851
1.07397e-07
3.8851
1.07164e-07
3.8851
1.07073e-07
3.8851
1.06844e-07
3.8851
1.06702e-07
3.8851
1.06756e-07
3.8851
1.06664e-07
3.8851
1.06736e-07
3.88509
1.06653e-07
3.88509
1.06587e-07
3.88509
1.06633e-07
3.88509
1.06631e-07
3.88509
1.06627e-07
3.88509
1.06626e-07
3.88509
1.06631e-07
3.88509
1.06618e-07
3.88509
1.06624e-07
3.88509
1.06618e-07
3.88509
1.06615e-07
3.88508
1.06613e-07
3.88508
1.06604e-07
3.88508
1.06606e-07
3.88508
1.06595e-07
3.88508
1.06584e-07
3.88508
1.06527e-07
3.88508
1.06738e-07
3.88508
1.06518e-07
3.88508
1.06269e-07
3.88508
1.06651e-07
3.88508
1.06826e-07
3.88508
1.06358e-07
3.88508
1.06551e-07
3.88508
1.06609e-07
3.88507
1.06407e-07
3.88507
1.06522e-07
3.88507
1.06371e-07
3.88507
1.06753e-07
3.88507
1.065e-07
3.88507
1.0636e-07
3.88507
1.06458e-07
3.88507
1.06447e-07
3.88507
1.06433e-07
3.88507
1.06415e-07
3.88507
1.06395e-07
3.88507
1.0638e-07
3.88507
1.06364e-07
3.88507
1.06415e-07
3.88507
1.06176e-07
3.88507
1.06464e-07
3.88507
1.06376e-07
3.88507
1.06205e-07
3.88506
1.063e-07
3.88506
1.06302e-07
3.88506
1.06305e-07
3.88506
1.06309e-07
3.88506
1.06311e-07
3.88506
1.06311e-07
3.88506
1.06313e-07
3.88506
1.06313e-07
3.88506
1.06313e-07
3.88506
1.06318e-07
3.88506
1.06325e-07
3.88506
1.06333e-07
3.88506
1.06336e-07
3.88506
1.06425e-07
3.88506
1.0626e-07
3.88506
1.0656e-07
3.88506
1.06143e-07
3.88506
1.06353e-07
3.88506
1.06369e-07
3.88506
1.06376e-07
3.88505
1.06385e-07
3.88505
1.06396e-07
3.88505
1.06407e-07
3.88505
1.06438e-07
3.88505
1.06413e-07
3.88505
1.06422e-07
3.88505
1.06391e-07
3.88505
1.06535e-07
3.88505
1.06498e-07
3.88505
1.06493e-07
3.88505
1.06511e-07
3.88505
1.0652e-07
3.88505
1.06536e-07
3.88505
1.06509e-07
3.88504
1.06587e-07
3.88504
1.06582e-07
3.88504
1.06571e-07
3.88504
1.06691e-07
3.88504
1.0664e-07
3.88504
1.06655e-07
3.88504
1.06673e-07
3.88504
1.06686e-07
3.88504
1.06704e-07
3.88504
1.06727e-07
3.88504
1.06738e-07
3.88504
1.06751e-07
3.88503
1.06766e-07
3.88503
1.06778e-07
3.88503
1.06793e-07
3.88503
1.06809e-07
3.88503
1.06826e-07
3.88503
1.06837e-07
3.88503
1.06849e-07
3.88503
1.06862e-07
3.88503
1.06869e-07
3.88503
1.06855e-07
3.88502
1.06922e-07
3.88502
1.06898e-07
3.88502
1.06909e-07
3.88502
1.06913e-07
3.88502
1.06922e-07
3.88502
1.06929e-07
3.88502
1.06933e-07
3.88502
1.06938e-07
3.88502
1.06944e-07
3.88502
1.06949e-07
3.88501
1.06955e-07
3.88501
1.07006e-07
3.88501
1.06898e-07
3.88501
1.06402e-07
3.88501
1.07475e-07
3.88501
1.06929e-07
3.88501
1.06922e-07
3.88501
1.0692e-07
3.88501
1.06926e-07
3.88501
1.07044e-07
3.88501
1.06635e-07
3.88501
1.06489e-07
3.88501
1.07402e-07
3.885
1.06824e-07
3.885
1.06949e-07
3.885
1.06873e-07
3.885
1.06869e-07
3.885
1.06866e-07
3.885
1.06862e-07
3.885
1.06864e-07
3.885
1.06875e-07
3.885
1.06904e-07
3.885
1.06991e-07
3.885
1.06498e-07
3.885
1.07248e-07
3.885
1.06575e-07
3.885
1.07048e-07
3.885
1.06222e-07
3.885
1.06831e-07
3.885
1.06706e-07
3.885
1.06767e-07
3.885
1.06647e-07
3.885
1.06955e-07
3.885
1.06749e-07
3.885
1.06738e-07
3.885
1.06558e-07
3.885
1.06755e-07
3.885
1.06689e-07
3.885
1.06664e-07
3.885
1.06658e-07
3.885
1.06653e-07
3.885
1.0668e-07
3.885
1.0674e-07
3.885
1.07457e-07
3.885
1.05912e-07
3.88501
1.07006e-07
3.88501
1.05505e-07
3.88501
1.07766e-07
3.88501
1.05334e-07
3.88501
1.06982e-07
3.88501
1.06405e-07
3.88501
1.06664e-07
3.88501
1.06906e-07
3.88501
1.06787e-07
3.88501
1.0668e-07
3.88502
1.06023e-07
3.88502
1.0726e-07
3.88502
1.07757e-07
3.88502
1.05805e-07
3.88502
1.06933e-07
3.88502
1.06244e-07
3.88502
1.06755e-07
3.88503
1.06447e-07
3.88503
1.07024e-07
3.88503
1.06596e-07
3.88503
1.06775e-07
3.88503
1.06971e-07
3.88503
1.06773e-07
3.88504
1.06795e-07
3.88504
1.06911e-07
3.88504
1.06937e-07
3.88504
1.06889e-07
3.88504
1.06877e-07
3.88505
1.06851e-07
3.88505
1.06838e-07
3.88505
1.07628e-07
3.88505
1.06767e-07
3.88505
1.07319e-07
3.88506
1.06667e-07
3.88506
1.07195e-07
3.88506
1.07484e-07
3.88506
1.08013e-07
3.88507
1.08375e-07
3.88507
1.10862e-07
3.88507
1.16315e-07
3.88507
1.28479e-07
3.88508
1.59154e-07
3.88508
2.31115e-07
3.88508
4.02659e-07
3.88508
8.14105e-07
3.88508
1.79684e-06
3.88508
4.14748e-06
3.88507
9.7674e-06
3.88505
2.31968e-05
3.885
5.52757e-05
3.88487
0.000131862
3.88456
0.000314658
3.88381
0.000750114
3.88203
0.00178601
3.87779
0.00424486
3.86773
0.0100634
3.84392
0.0238123
3.78724
0.0566796
3.6459
0.141351
0.381236
3.26466
5.52447
0.000213026
5.52447
0.000170389
5.52448
0.000156212
5.52449
0.000158431
5.5245
0.00015943
5.52451
0.000159329
5.52452
0.000159262
5.52453
0.000159283
5.52454
0.000159304
5.52455
0.000159314
5.52456
0.000159322
5.52457
0.000159331
5.52458
0.000159339
5.52459
0.000159345
5.5246
0.000159353
5.52461
0.00015936
5.52461
0.000159367
5.52462
0.000159375
5.52463
0.000159381
5.52464
0.000159381
5.52465
0.000159399
5.52466
0.000159401
5.52467
0.000159406
5.52468
0.000159409
5.52469
0.000159413
5.5247
0.000159446
5.52471
0.000159412
5.52472
0.000159429
5.52473
0.000159435
5.52474
0.000159438
5.52475
0.000159441
5.52476
0.000159446
5.52476
0.000159446
5.52477
0.000159456
5.52477
0.00015945
5.52478
0.000159456
5.52478
0.00015946
5.52479
0.000159464
5.5248
0.000159469
5.52481
0.000159474
5.52482
0.000159468
5.52483
0.000159482
5.52484
0.000159544
5.52485
0.000159481
5.52487
0.000159511
5.52488
0.000159525
5.5249
0.000159534
5.52491
0.000159544
5.52492
0.000159553
5.52493
0.000159562
5.52494
0.00015957
5.52495
0.000159577
5.52496
0.000159585
5.52497
0.00015959
5.52498
0.000159599
5.52499
0.000159596
5.525
0.000159611
5.525
0.000159612
5.525
0.000159614
5.52501
0.000159618
5.52502
0.000159622
5.52503
0.000159625
5.52504
0.000159613
5.52505
0.000159631
5.52506
0.000159729
5.52507
0.000159587
5.52508
0.000159652
5.52509
0.000159662
5.5251
0.000159666
5.52511
0.000159662
5.52512
0.000159708
5.52513
0.000159697
5.52514
0.00015969
5.52515
0.000159703
5.52516
0.000159713
5.52518
0.000159869
5.52519
0.000159644
5.52521
0.000159747
5.52522
0.00015976
5.52523
0.000159768
5.52525
0.000159776
5.52526
0.000159783
5.52527
0.000159788
5.52529
0.000159791
5.5253
0.000159791
5.52531
0.000159787
5.52532
0.000159789
5.52533
0.000159773
5.52533
0.000159708
5.52534
0.000159694
5.52534
0.000159643
5.52535
0.00015956
5.52536
0.000159459
5.52536
0.000159323
5.52537
0.000159145
5.52538
0.000158896
5.52539
0.000158612
5.52541
0.000158287
5.52542
0.000157842
5.52544
0.00015726
5.52545
0.000156594
5.52546
0.00015578
5.52548
0.00015481
5.52549
0.000153661
5.5255
0.000152315
5.52551
0.00015075
5.52552
0.000148948
5.52554
0.000146892
5.52555
0.000144565
5.52556
0.000141954
5.52557
0.000139051
5.52558
0.00013585
5.52558
0.000132349
5.52559
0.000128552
5.5256
0.000124469
5.52561
0.000120112
5.52562
0.000115501
5.52563
0.00011066
5.52564
0.000105617
5.52564
0.000100405
5.52565
9.50599e-05
5.52566
8.96195e-05
5.52567
8.41245e-05
5.52567
7.86157e-05
5.52568
7.31342e-05
5.52568
6.772e-05
5.52569
6.24113e-05
5.52569
5.72445e-05
5.5257
5.22494e-05
5.5257
4.7454e-05
5.52571
4.28885e-05
5.52571
3.8567e-05
5.52571
3.45059e-05
5.52571
3.07158e-05
5.52572
2.72026e-05
5.52572
2.3968e-05
5.52572
2.10099e-05
5.52572
1.83224e-05
5.52572
1.58969e-05
5.52572
1.37219e-05
5.52572
1.17836e-05
5.52572
1.0071e-05
5.52573
8.5617e-06
5.52573
7.24341e-06
5.52573
6.09871e-06
5.52573
5.11074e-06
5.52572
4.26336e-06
5.52572
3.54093e-06
5.52572
2.92884e-06
5.52572
2.41336e-06
5.52572
1.98184e-06
5.52572
1.62276e-06
5.52572
1.32572e-06
5.52572
1.08145e-06
5.52572
8.81751e-07
5.52572
7.19427e-07
5.52572
5.88247e-07
5.52572
4.82839e-07
5.52572
3.98623e-07
5.52571
3.3172e-07
5.52571
2.78866e-07
5.52571
2.37343e-07
5.52571
2.04903e-07
5.52571
1.79698e-07
5.52571
1.60229e-07
5.52571
1.45261e-07
5.52571
1.33824e-07
5.5257
1.2513e-07
5.5257
1.18558e-07
5.5257
1.13596e-07
5.5257
1.09945e-07
5.5257
1.07179e-07
5.5257
1.05142e-07
5.5257
1.0365e-07
5.52569
1.02559e-07
5.52569
1.01754e-07
5.52569
1.01191e-07
5.52569
1.00757e-07
5.52569
1.00486e-07
5.52569
1.00295e-07
5.52569
1.00215e-07
5.52568
1.00026e-07
5.52568
9.99007e-08
5.52568
9.99426e-08
5.52568
9.98716e-08
5.52568
9.99307e-08
5.52568
9.98589e-08
5.52568
9.98034e-08
5.52568
9.98389e-08
5.52567
9.98398e-08
5.52567
9.98325e-08
5.52567
9.98334e-08
5.52567
9.98352e-08
5.52567
9.98252e-08
5.52567
9.9827e-08
5.52567
9.98234e-08
5.52566
9.98161e-08
5.52566
9.9817e-08
5.52566
9.98079e-08
5.52566
9.9807e-08
5.52566
9.97952e-08
5.52566
9.97825e-08
5.52566
9.97416e-08
5.52566
9.99089e-08
5.52566
9.9727e-08
5.52565
9.95133e-08
5.52565
9.98389e-08
5.52565
9.99826e-08
5.52565
9.96024e-08
5.52565
9.97479e-08
5.52565
9.98007e-08
5.52565
9.96342e-08
5.52565
9.97206e-08
5.52565
9.96142e-08
5.52564
9.99153e-08
5.52564
9.97234e-08
5.52564
9.95924e-08
5.52564
9.96743e-08
5.52564
9.96679e-08
5.52564
9.96542e-08
5.52564
9.96397e-08
5.52564
9.96242e-08
5.52564
9.96124e-08
5.52564
9.95988e-08
5.52564
9.96361e-08
5.52564
9.94487e-08
5.52564
9.96843e-08
5.52563
9.96151e-08
5.52563
9.94714e-08
5.52563
9.95487e-08
5.52563
9.9556e-08
5.52563
9.95624e-08
5.52563
9.95688e-08
5.52563
9.95733e-08
5.52563
9.95751e-08
5.52563
9.95742e-08
5.52563
9.95742e-08
5.52563
9.95742e-08
5.52563
9.95769e-08
5.52563
9.95869e-08
5.52562
9.95906e-08
5.52562
9.95979e-08
5.52562
9.96697e-08
5.52562
9.95424e-08
5.52562
9.97725e-08
5.52562
9.94387e-08
5.52562
9.9607e-08
5.52562
9.96224e-08
5.52562
9.96297e-08
5.52562
9.96361e-08
5.52562
9.9647e-08
5.52562
9.96552e-08
5.52561
9.96788e-08
5.52561
9.96579e-08
5.52561
9.96633e-08
5.52561
9.96379e-08
5.52561
9.97652e-08
5.52561
9.97325e-08
5.52561
9.97252e-08
5.52561
9.97416e-08
5.52561
9.97507e-08
5.52561
9.97607e-08
5.5256
9.97406e-08
5.5256
9.9807e-08
5.5256
9.97952e-08
5.5256
9.97979e-08
5.5256
9.98944e-08
5.5256
9.98525e-08
5.5256
9.98634e-08
5.5256
9.98753e-08
5.52559
9.9888e-08
5.52559
9.99053e-08
5.52559
9.99225e-08
5.52559
9.99316e-08
5.52559
9.99407e-08
5.52559
9.99535e-08
5.52559
9.99617e-08
5.52558
9.99744e-08
5.52558
9.99871e-08
5.52558
1.00003e-07
5.52558
1.00013e-07
5.52558
1.00021e-07
5.52558
1.00033e-07
5.52558
1.00039e-07
5.52557
1.00026e-07
5.52557
1.00088e-07
5.52557
1.00067e-07
5.52557
1.00075e-07
5.52557
1.00081e-07
5.52557
1.00091e-07
5.52557
1.001e-07
5.52556
1.00104e-07
5.52556
1.00106e-07
5.52556
1.00116e-07
5.52556
1.00125e-07
5.52556
1.00145e-07
5.52556
1.00191e-07
5.52556
1.0008e-07
5.52555
9.97006e-08
5.52555
1.00512e-07
5.52555
1.00097e-07
5.52555
1.00091e-07
5.52555
1.00099e-07
5.52555
1.00123e-07
5.52555
1.00206e-07
5.52555
9.96606e-08
5.52555
9.97316e-08
5.52554
1.00693e-07
5.52554
9.99271e-08
5.52554
1.00249e-07
5.52554
1.00073e-07
5.52554
1.0007e-07
5.52554
1.00071e-07
5.52554
1.00074e-07
5.52554
1.00083e-07
5.52554
1.00121e-07
5.52554
1.002e-07
5.52554
1.00266e-07
5.52554
9.93923e-08
5.52554
1.01194e-07
5.52554
9.93223e-08
5.52554
1.00555e-07
5.52554
9.86993e-08
5.52554
1.00144e-07
5.52554
9.98498e-08
5.52553
1.00018e-07
5.52554
9.97616e-08
5.52554
1.0054e-07
5.52554
1.00149e-07
5.52554
9.99153e-08
5.52554
9.9607e-08
5.52554
1.00109e-07
5.52554
9.99535e-08
5.52554
9.99044e-08
5.52554
9.98953e-08
5.52554
9.98971e-08
5.52554
9.9968e-08
5.52554
1.00117e-07
5.52554
1.01852e-07
5.52554
9.81217e-08
5.52554
1.00661e-07
5.52554
9.72459e-08
5.52554
1.02542e-07
5.52555
9.68066e-08
5.52555
1.00739e-07
5.52555
9.92959e-08
5.52555
9.99335e-08
5.52555
1.00506e-07
5.52555
1.00211e-07
5.52555
9.99471e-08
5.52556
9.83209e-08
5.52556
1.01326e-07
5.52556
1.02341e-07
5.52556
9.79244e-08
5.52556
1.00427e-07
5.52557
9.88648e-08
5.52557
9.9265e-08
5.52557
1.00019e-07
5.52557
1.00392e-07
5.52557
9.98025e-08
5.52558
9.9968e-08
5.52558
1.00428e-07
5.52558
9.99107e-08
5.52558
9.99426e-08
5.52559
1.00192e-07
5.52559
1.00216e-07
5.52559
1.00071e-07
5.52559
1.00014e-07
5.5256
9.99125e-08
5.5256
9.98443e-08
5.5256
1.01924e-07
5.52561
9.94114e-08
5.52561
1.00765e-07
5.52561
9.9426e-08
5.52562
1.00635e-07
5.52562
1.01083e-07
5.52562
1.02453e-07
5.52563
1.0322e-07
5.52563
1.09237e-07
5.52563
1.22268e-07
5.52564
1.51498e-07
5.52564
2.25413e-07
5.52564
3.98635e-07
5.52565
8.11546e-07
5.52565
1.80229e-06
5.52565
4.16844e-06
5.52565
9.82843e-06
5.52564
2.33604e-05
5.52561
5.56965e-05
5.52554
0.000132938
5.52535
0.000317349
5.52492
0.000757505
5.52386
0.00180609
5.52135
0.00430068
5.51538
0.0102226
5.50121
0.024239
5.46765
0.0573715
5.38777
0.136565
5.18992
0.339206
0.873905
4.69726
7.81277
0.000176103
7.81278
0.000158686
7.81279
0.000138966
7.81281
0.00014152
7.81282
0.000143224
7.81283
0.000143112
7.81285
0.000143003
7.81286
0.000143037
7.81288
0.00014307
7.81289
0.000143085
7.8129
0.000143096
7.81292
0.000143106
7.81293
0.000143116
7.81294
0.000143123
7.81296
0.000143129
7.81297
0.000143139
7.81298
0.000143146
7.813
0.000143155
7.81301
0.000143161
7.81303
0.000143157
7.81304
0.000143178
7.81305
0.00014318
7.81307
0.000143184
7.81308
0.000143188
7.81309
0.000143193
7.81311
0.000143217
7.81312
0.000143194
7.81313
0.000143205
7.81315
0.000143212
7.81316
0.000143215
7.81318
0.000143218
7.81319
0.000143222
7.8132
0.000143223
7.81321
0.000143227
7.81322
0.000143229
7.81322
0.000143232
7.81323
0.000143236
7.81324
0.000143239
7.81325
0.000143244
7.81326
0.000143248
7.81328
0.000143245
7.81329
0.000143258
7.81331
0.000143301
7.81334
0.000143261
7.81336
0.00014328
7.81338
0.000143295
7.8134
0.000143302
7.81342
0.000143311
7.81344
0.000143319
7.81345
0.000143327
7.81347
0.000143335
7.81348
0.000143341
7.8135
0.000143348
7.81351
0.000143355
7.81353
0.000143361
7.81354
0.000143359
7.81355
0.000143369
7.81355
0.000143374
7.81356
0.000143374
7.81357
0.000143378
7.81358
0.000143382
7.8136
0.000143384
7.81361
0.000143377
7.81363
0.000143393
7.81364
0.000143462
7.81366
0.000143364
7.81368
0.000143407
7.81369
0.000143418
7.81371
0.000143423
7.81372
0.000143421
7.81374
0.000143454
7.81375
0.000143449
7.81377
0.000143445
7.81379
0.000143455
7.8138
0.000143468
7.81382
0.000143574
7.81385
0.000143427
7.81387
0.000143493
7.81389
0.000143506
7.81391
0.000143514
7.81393
0.000143521
7.81395
0.000143527
7.81397
0.000143531
7.81399
0.000143534
7.814
0.000143534
7.81402
0.000143532
7.81404
0.000143534
7.81405
0.00014352
7.81406
0.000143465
7.81407
0.000143444
7.81408
0.000143408
7.81409
0.000143331
7.8141
0.000143242
7.81411
0.000143123
7.81413
0.000142964
7.81414
0.000142747
7.81416
0.000142495
7.81418
0.000142205
7.8142
0.000141812
7.81422
0.000141293
7.81424
0.000140706
7.81426
0.000139983
7.81428
0.000139122
7.8143
0.000138102
7.81432
0.000136906
7.81434
0.000135515
7.81435
0.000133913
7.81437
0.000132083
7.81439
0.000130011
7.8144
0.000127687
7.81441
0.0001251
7.81443
0.000122246
7.81444
0.000119123
7.81445
0.000115735
7.81447
0.000112089
7.81448
0.000108197
7.81449
0.000104075
7.8145
9.97454e-05
7.81451
9.52327e-05
7.81452
9.0566e-05
7.81453
8.5777e-05
7.81454
8.09002e-05
7.81454
7.59714e-05
7.81455
7.10273e-05
7.81456
6.61047e-05
7.81456
6.12395e-05
7.81457
5.64661e-05
7.81457
5.18173e-05
7.81458
4.73201e-05
7.81458
4.30001e-05
7.81458
3.8884e-05
7.81459
3.49856e-05
7.81459
3.13195e-05
7.81459
2.78957e-05
7.81459
2.47199e-05
7.81459
2.17938e-05
7.8146
1.91158e-05
7.8146
1.66812e-05
7.8146
1.44822e-05
7.8146
1.25089e-05
7.8146
1.07492e-05
7.8146
9.19262e-06
7.8146
7.82053e-06
7.8146
6.62067e-06
7.8146
5.57815e-06
7.81459
4.67763e-06
7.81459
3.90463e-06
7.81459
3.24509e-06
7.81459
2.68582e-06
7.81459
2.21443e-06
7.81459
1.8195e-06
7.81459
1.49058e-06
7.81459
1.21826e-06
7.81459
9.94129e-07
7.81458
8.10727e-07
7.81458
6.61524e-07
7.81458
5.40841e-07
7.81458
4.43782e-07
7.81458
3.66163e-07
7.81458
3.04447e-07
7.81458
2.55642e-07
7.81457
2.17268e-07
7.81457
1.87257e-07
7.81457
1.63923e-07
7.81457
1.45875e-07
7.81457
1.31989e-07
7.81456
1.21368e-07
7.81456
1.13285e-07
7.81456
1.07171e-07
7.81456
1.02555e-07
7.81456
9.91404e-08
7.81456
9.65647e-08
7.81455
9.46602e-08
7.81455
9.32641e-08
7.81455
9.22405e-08
7.81455
9.14879e-08
7.81455
9.09549e-08
7.81454
9.05543e-08
7.81454
9.02974e-08
7.81454
9.01141e-08
7.81454
9.00291e-08
7.81454
8.98631e-08
7.81453
8.97521e-08
7.81453
8.97739e-08
7.81453
8.97203e-08
7.81453
8.9758e-08
7.81453
8.97007e-08
7.81452
8.96584e-08
7.81452
8.96798e-08
7.81452
8.96807e-08
7.81452
8.96757e-08
7.81452
8.96762e-08
7.81451
8.96785e-08
7.81451
8.96689e-08
7.81451
8.96707e-08
7.81451
8.96671e-08
7.81451
8.96616e-08
7.81451
8.96603e-08
7.8145
8.96534e-08
7.8145
8.96512e-08
7.8145
8.9643e-08
7.8145
8.9628e-08
7.8145
8.96052e-08
7.81449
8.97239e-08
7.81449
8.9582e-08
7.81449
8.9417e-08
7.81449
8.96734e-08
7.81449
8.97794e-08
7.81449
8.9497e-08
7.81449
8.95952e-08
7.81448
8.96362e-08
7.81448
8.95097e-08
7.81448
8.95648e-08
7.81448
8.95038e-08
7.81448
8.9718e-08
7.81448
8.9588e-08
7.81448
8.94697e-08
7.81448
8.95266e-08
7.81447
8.95302e-08
7.81447
8.95152e-08
7.81447
8.95016e-08
7.81447
8.94875e-08
7.81447
8.94779e-08
7.81447
8.94684e-08
7.81447
8.94893e-08
7.81447
8.93519e-08
7.81447
8.95243e-08
7.81446
8.94802e-08
7.81446
8.93642e-08
7.81446
8.94161e-08
7.81446
8.94297e-08
7.81446
8.94352e-08
7.81446
8.94397e-08
7.81446
8.9442e-08
7.81446
8.94461e-08
7.81446
8.94438e-08
7.81446
8.94415e-08
7.81445
8.9442e-08
7.81445
8.94461e-08
7.81445
8.94547e-08
7.81445
8.94584e-08
7.81445
8.94665e-08
7.81445
8.95179e-08
7.81445
8.9432e-08
7.81445
8.95861e-08
7.81445
8.93501e-08
7.81444
8.94656e-08
7.81444
8.94852e-08
7.81444
8.94911e-08
7.81444
8.94984e-08
7.81444
8.95056e-08
7.81444
8.9517e-08
7.81444
8.95357e-08
7.81444
8.95193e-08
7.81443
8.95207e-08
7.81443
8.95011e-08
7.81443
8.96102e-08
7.81443
8.95866e-08
7.81443
8.95766e-08
7.81443
8.95943e-08
7.81442
8.96002e-08
7.81442
8.96084e-08
7.81442
8.95971e-08
7.81442
8.96539e-08
7.81442
8.96375e-08
7.81442
8.96498e-08
7.81441
8.97217e-08
7.81441
8.96976e-08
7.81441
8.97026e-08
7.81441
8.97135e-08
7.81441
8.97235e-08
7.81441
8.97412e-08
7.8144
8.97576e-08
7.8144
8.97649e-08
7.8144
8.97699e-08
7.8144
8.97826e-08
7.8144
8.97899e-08
7.81439
8.9804e-08
7.81439
8.9814e-08
7.81439
8.9829e-08
7.81439
8.98367e-08
7.81439
8.98435e-08
7.81438
8.98558e-08
7.81438
8.98622e-08
7.81438
8.98485e-08
7.81438
8.9904e-08
7.81437
8.98849e-08
7.81437
8.98908e-08
7.81437
8.98926e-08
7.81437
8.99072e-08
7.81437
8.99181e-08
7.81436
8.99167e-08
7.81436
8.99231e-08
7.81436
8.99363e-08
7.81436
8.99486e-08
7.81436
8.99813e-08
7.81435
9.00318e-08
7.81435
8.99072e-08
7.81435
8.96725e-08
7.81435
9.01409e-08
7.81435
8.98863e-08
7.81435
8.9889e-08
7.81434
8.99086e-08
7.81434
8.9954e-08
7.81434
9.00218e-08
7.81434
8.92146e-08
7.81434
8.98444e-08
7.81434
9.04515e-08
7.81434
8.95911e-08
7.81433
9.02237e-08
7.81433
8.98913e-08
7.81433
8.98895e-08
7.81433
8.98935e-08
7.81433
8.99036e-08
7.81433
8.99217e-08
7.81433
8.99945e-08
7.81433
9.01455e-08
7.81433
9.02828e-08
7.81433
8.86234e-08
7.81433
9.21714e-08
7.81432
8.8367e-08
7.81432
9.07744e-08
7.81432
8.74711e-08
7.81432
9.01373e-08
7.81432
8.95452e-08
7.81432
8.98826e-08
7.81432
8.94006e-08
7.81432
9.0889e-08
7.81432
9.02523e-08
7.81432
8.96148e-08
7.81432
8.91473e-08
7.81433
9.01191e-08
7.81433
8.98235e-08
7.81433
8.97367e-08
7.81433
8.97276e-08
7.81433
8.97435e-08
7.81433
8.98699e-08
7.81433
9.0115e-08
7.81433
9.33633e-08
7.81433
8.64316e-08
7.81433
9.10586e-08
7.81434
8.49409e-08
7.81434
9.43023e-08
7.81434
8.44279e-08
7.81434
9.14488e-08
7.81434
8.85866e-08
7.81435
8.98353e-08
7.81435
9.0879e-08
7.81435
9.03146e-08
7.81435
8.98708e-08
7.81435
8.74279e-08
7.81436
9.17275e-08
7.81436
9.41304e-08
7.81436
8.61296e-08
7.81436
9.05916e-08
7.81437
8.79772e-08
7.81437
8.80577e-08
7.81437
9.04583e-08
7.81438
8.99108e-08
7.81438
9.01964e-08
7.81438
8.97726e-08
7.81439
9.06621e-08
7.81439
8.9653e-08
7.81439
8.97194e-08
7.8144
9.01618e-08
7.8144
9.01919e-08
7.8144
8.9899e-08
7.81441
8.97844e-08
7.81441
8.9578e-08
7.81442
8.94024e-08
7.81442
9.36147e-08
7.81442
8.82155e-08
7.81443
9.0834e-08
7.81443
8.8799e-08
7.81444
9.10704e-08
7.81444
9.12955e-08
7.81445
9.40399e-08
7.81445
9.53278e-08
7.81446
1.06293e-07
7.81446
1.29675e-07
7.81447
1.82363e-07
7.81447
3.15918e-07
7.81448
6.28617e-07
7.81448
1.37377e-06
7.81448
3.1623e-06
7.81449
7.43373e-06
7.81448
1.7651e-05
7.81447
4.20791e-05
7.81443
0.000100454
7.81433
0.000239895
7.81408
0.000572809
7.81348
0.00136742
7.81203
0.00326059
7.80857
0.0077649
7.80034
0.0184595
7.78081
0.0437772
7.73456
0.103623
7.62476
0.246374
7.35654
0.607433
1.50335
6.7271
34.4872
7.15679e-05
34.4872
8.15922e-05
34.4873
6.9528e-05
34.4874
6.98107e-05
34.4874
7.15898e-05
34.4875
7.18017e-05
34.4875
7.16522e-05
34.4876
7.16303e-05
34.4876
7.16418e-05
34.4877
7.16364e-05
34.4878
7.16259e-05
34.4878
7.16185e-05
34.4879
7.16137e-05
34.4879
7.16094e-05
34.488
7.16059e-05
34.4881
7.16047e-05
34.4881
7.1604e-05
34.4882
7.16045e-05
34.4882
7.16076e-05
34.4883
7.16e-05
34.4884
7.16016e-05
34.4884
7.16059e-05
34.4885
7.16058e-05
34.4886
7.16065e-05
34.4886
7.16094e-05
34.4887
7.16145e-05
34.4887
7.16085e-05
34.4888
7.16096e-05
34.4889
7.1613e-05
34.4889
7.16138e-05
34.489
7.16145e-05
34.489
7.16157e-05
34.4891
7.16166e-05
34.4891
7.16136e-05
34.4892
7.16204e-05
34.4892
7.16193e-05
34.4892
7.16202e-05
34.4893
7.16217e-05
34.4893
7.16236e-05
34.4894
7.16253e-05
34.4894
7.16265e-05
34.4895
7.16318e-05
34.4896
7.16425e-05
34.4897
7.16369e-05
34.4898
7.16397e-05
34.4899
7.1648e-05
34.49
7.1652e-05
34.49
7.16562e-05
34.4901
7.16604e-05
34.4902
7.16643e-05
34.4903
7.1668e-05
34.4903
7.16714e-05
34.4904
7.16749e-05
34.4905
7.168e-05
34.4905
7.16813e-05
34.4906
7.16802e-05
34.4906
7.16814e-05
34.4906
7.16876e-05
34.4907
7.16871e-05
34.4907
7.16891e-05
34.4908
7.16909e-05
34.4908
7.16919e-05
34.4909
7.16915e-05
34.491
7.16979e-05
34.491
7.17155e-05
34.4911
7.1693e-05
34.4912
7.17031e-05
34.4913
7.17085e-05
34.4913
7.17128e-05
34.4914
7.17126e-05
34.4915
7.17218e-05
34.4915
7.17244e-05
34.4916
7.1724e-05
34.4917
7.17279e-05
34.4917
7.17358e-05
34.4918
7.17595e-05
34.4919
7.17355e-05
34.492
7.17472e-05
34.4921
7.17527e-05
34.4922
7.17566e-05
34.4923
7.17603e-05
34.4924
7.17635e-05
34.4925
7.17659e-05
34.4926
7.17675e-05
34.4926
7.1768e-05
34.4927
7.17677e-05
34.4928
7.17691e-05
34.4928
7.17618e-05
34.4929
7.17389e-05
34.4929
7.17207e-05
34.493
7.17107e-05
34.493
7.16726e-05
34.4931
7.16306e-05
34.4931
7.15738e-05
34.4932
7.1498e-05
34.4932
7.13971e-05
34.4933
7.12756e-05
34.4934
7.1133e-05
34.4935
7.09454e-05
34.4936
7.06948e-05
34.4937
7.04136e-05
34.4938
7.00643e-05
34.4939
6.96468e-05
34.494
6.91527e-05
34.494
6.85719e-05
34.4941
6.78956e-05
34.4942
6.71151e-05
34.4943
6.62224e-05
34.4943
6.52102e-05
34.4944
6.40724e-05
34.4945
6.28045e-05
34.4945
6.14035e-05
34.4946
5.98683e-05
34.4946
5.82001e-05
34.4947
5.6402e-05
34.4947
5.44797e-05
34.4948
5.24411e-05
34.4948
5.02963e-05
34.4949
4.80576e-05
34.4949
4.57389e-05
34.495
4.3356e-05
34.495
4.09258e-05
34.495
3.84661e-05
34.4951
3.59951e-05
34.4951
3.35313e-05
34.4951
3.10927e-05
34.4952
2.86966e-05
34.4952
2.63595e-05
34.4952
2.40956e-05
34.4952
2.1918e-05
34.4952
1.98398e-05
34.4952
1.7869e-05
34.4953
1.6013e-05
34.4953
1.42772e-05
34.4953
1.26649e-05
34.4953
1.11774e-05
34.4953
9.81411e-06
34.4953
8.57303e-06
34.4953
7.45059e-06
34.4953
6.44201e-06
34.4953
5.54157e-06
34.4953
4.74358e-06
34.4953
4.03969e-06
34.4953
3.42331e-06
34.4953
2.88691e-06
34.4953
2.4231e-06
34.4953
2.02445e-06
34.4953
1.6839e-06
34.4953
1.39477e-06
34.4953
1.15079e-06
34.4953
9.46128e-07
34.4953
7.75482e-07
34.4953
6.34036e-07
34.4953
5.17487e-07
34.4952
4.22012e-07
34.4952
3.44252e-07
34.4952
2.81288e-07
34.4952
2.30596e-07
34.4952
1.90013e-07
34.4952
1.57711e-07
34.4952
1.32141e-07
34.4952
1.12016e-07
34.4952
9.62607e-08
34.4952
8.39996e-08
34.4952
7.45058e-08
34.4952
6.71953e-08
34.4952
6.15973e-08
34.4951
5.73339e-08
34.4951
5.41052e-08
34.4951
5.16691e-08
34.4951
4.98565e-08
34.4951
4.84984e-08
34.4951
4.74886e-08
34.4951
4.67487e-08
34.4951
4.62041e-08
34.4951
4.5806e-08
34.4951
4.55204e-08
34.4951
4.53113e-08
34.4951
4.51723e-08
34.495
4.50736e-08
34.495
4.50173e-08
34.495
4.49425e-08
34.495
4.48897e-08
34.495
4.48858e-08
34.495
4.48679e-08
34.495
4.48736e-08
34.495
4.48522e-08
34.495
4.48367e-08
34.495
4.48392e-08
34.495
4.4841e-08
34.495
4.48383e-08
34.4949
4.4839e-08
34.4949
4.48379e-08
34.4949
4.48342e-08
34.4949
4.48347e-08
34.4949
4.48333e-08
34.4949
4.48301e-08
34.4949
4.48299e-08
34.4949
4.48263e-08
34.4949
4.48244e-08
34.4949
4.48219e-08
34.4949
4.48147e-08
34.4949
4.48103e-08
34.4948
4.4841e-08
34.4948
4.47933e-08
34.4948
4.47387e-08
34.4948
4.48258e-08
34.4948
4.48604e-08
34.4948
4.47753e-08
34.4948
4.47947e-08
34.4948
4.48072e-08
34.4948
4.47662e-08
34.4948
4.47776e-08
34.4948
4.47724e-08
34.4948
4.48308e-08
34.4948
4.4801e-08
34.4948
4.47458e-08
34.4948
4.4759e-08
34.4948
4.47653e-08
34.4948
4.47581e-08
34.4947
4.47515e-08
34.4947
4.47451e-08
34.4947
4.47394e-08
34.4947
4.47351e-08
34.4947
4.4736e-08
34.4947
4.46964e-08
34.4947
4.47451e-08
34.4947
4.47376e-08
34.4947
4.46937e-08
34.4947
4.47035e-08
34.4947
4.47149e-08
34.4947
4.47183e-08
34.4947
4.47192e-08
34.4947
4.47212e-08
34.4947
4.47224e-08
34.4947
4.47221e-08
34.4947
4.47208e-08
34.4947
4.47201e-08
34.4947
4.47228e-08
34.4947
4.47269e-08
34.4947
4.47296e-08
34.4947
4.47333e-08
34.4946
4.47499e-08
34.4946
4.47299e-08
34.4946
4.47621e-08
34.4946
4.47005e-08
34.4946
4.4731e-08
34.4946
4.47421e-08
34.4946
4.47455e-08
34.4946
4.4749e-08
34.4946
4.47528e-08
34.4946
4.47585e-08
34.4946
4.47658e-08
34.4946
4.47628e-08
34.4946
4.47615e-08
34.4946
4.47558e-08
34.4946
4.47997e-08
34.4946
4.47942e-08
34.4946
4.47869e-08
34.4945
4.47983e-08
34.4945
4.48008e-08
34.4945
4.48035e-08
34.4945
4.4804e-08
34.4945
4.48244e-08
34.4945
4.48176e-08
34.4945
4.48272e-08
34.4945
4.48547e-08
34.4945
4.48513e-08
34.4945
4.48526e-08
34.4945
4.48558e-08
34.4945
4.48613e-08
34.4945
4.48697e-08
34.4944
4.48777e-08
34.4944
4.48824e-08
34.4944
4.48847e-08
34.4944
4.48904e-08
34.4944
4.48954e-08
34.4944