/*--------------------------------*- C++ -*----------------------------------*\
| =========                 |                                                 |
| \\      /  F ield         | OpenFOAM: The Open Source CFD Toolbox           |
|  \\    /   O peration     | Version:  3.0.x                                 |
|   \\  /    A nd           | Web:      www.OpenFOAM.org                      |
|    \\/     M anipulation  |                                                 |
\*---------------------------------------------------------------------------*/
FoamFile
{
    version     2.0;
    format      ascii;
    class       surfaceScalarField;
    location    "0.29";
    object      phi;
}
// * * * * * * * * * * * * * * * * * * * * * * * * * * * * * * * * * * * * * //

dimensions      [1 0 -1 0 0 0 0];

internalField   nonuniform List<scalar> 
12415
(
5.79675
0.000327733
5.79658
0.000234946
5.79642
0.000224859
5.79626
0.000226773
5.79608
0.000227307
5.79591
0.000227176
5.79574
0.000227166
5.79555
0.0002273
5.79536
0.000227403
5.79515
0.000227495
5.79493
0.00022758
5.79468
0.000227664
5.79442
0.000227731
5.79414
0.000227812
5.79385
0.000227893
5.79356
0.000227966
5.79326
0.000228205
5.79296
0.000228081
5.79266
0.000228307
5.79235
0.000228437
5.79205
0.00022857
5.79175
0.000228705
5.79145
0.000228839
5.79116
0.000228968
5.79087
0.000229088
5.79058
0.000229195
5.7903
0.000229283
5.79002
0.000229341
5.78975
0.000229355
5.78949
0.000229305
5.78925
0.000229149
5.78902
0.000228888
5.78881
0.000228395
5.78861
0.000227651
5.78843
0.000226551
5.78825
0.000224985
5.78808
0.00022283
5.78792
0.000219975
5.78775
0.000216284
5.78759
0.000211636
5.78742
0.000205934
5.78726
0.000199109
5.78709
0.000191133
5.78691
0.000182022
5.78674
0.000171845
5.78655
0.000160727
5.78636
0.000148813
5.78616
0.00013634
5.78595
0.000123526
5.78574
0.00011062
5.78551
9.78718e-05
5.78527
8.55156e-05
5.78502
7.37598e-05
5.78476
6.27767e-05
5.78448
5.26969e-05
5.7842
4.36064e-05
5.7839
3.55476e-05
5.7836
2.85227e-05
5.78328
2.24993e-05
5.78296
1.74178e-05
5.78263
1.31984e-05
5.7823
9.74921e-06
5.78196
6.97229e-06
5.78161
4.76985e-06
5.78127
3.04852e-06
5.78092
1.72207e-06
5.78058
7.14947e-07
5.78023
-3.99687e-08
5.77988
-5.9772e-07
5.77953
-1.00361e-06
5.77918
-1.29572e-06
5.77882
-1.50353e-06
5.77846
-1.64982e-06
5.77809
-1.75179e-06
5.77771
-1.82221e-06
5.77732
-1.87042e-06
5.77691
-1.9031e-06
5.77648
-1.92502e-06
5.77604
-1.9395e-06
5.77557
-1.94883e-06
5.77508
-1.9546e-06
5.77456
-1.95787e-06
5.774
-1.95937e-06
5.77342
-1.95943e-06
5.77281
-1.9584e-06
5.77216
-1.95671e-06
5.77148
-1.95476e-06
5.77077
-1.95271e-06
5.77003
-1.95072e-06
5.76925
-1.94892e-06
5.76845
-1.94751e-06
5.76762
-1.94662e-06
5.76677
-1.94638e-06
5.76591
-1.94694e-06
5.76502
-1.94826e-06
5.76413
-1.95021e-06
5.76323
-1.95259e-06
5.76233
-1.9553e-06
5.76143
-1.95828e-06
5.76053
-1.96159e-06
5.75964
-1.96534e-06
5.75876
-1.96946e-06
5.75789
-1.97382e-06
5.75704
-1.97812e-06
5.7562
-1.98238e-06
5.75537
-1.9867e-06
5.75455
-1.99091e-06
5.75375
-1.99473e-06
5.75296
-1.99791e-06
5.75217
-2.00037e-06
5.75139
-2.00197e-06
5.75061
-2.00267e-06
5.74983
-2.00243e-06
5.74904
-2.00127e-06
5.74824
-1.99927e-06
5.74743
-1.9965e-06
5.7466
-1.99302e-06
5.74575
-1.98886e-06
5.74488
-1.98415e-06
5.74397
-1.97917e-06
5.74304
-1.97347e-06
5.74207
-1.96721e-06
5.74106
-1.96031e-06
5.74002
-1.95355e-06
5.73895
-1.94744e-06
5.73784
-1.94198e-06
5.73669
-1.93712e-06
5.73552
-1.93299e-06
5.73432
-1.92992e-06
5.7331
-1.92816e-06
5.73186
-1.92775e-06
5.73062
-1.92859e-06
5.72937
-1.93059e-06
5.72812
-1.93373e-06
5.72688
-1.93796e-06
5.72565
-1.94322e-06
5.72444
-1.94927e-06
5.72325
-1.95642e-06
5.72209
-1.96296e-06
5.72096
-1.96888e-06
5.71985
-1.9742e-06
5.71877
-1.97903e-06
5.71771
-1.98338e-06
5.71669
-1.98659e-06
5.71568
-1.98826e-06
5.7147
-1.98842e-06
5.71373
-1.98681e-06
5.71278
-1.98397e-06
5.71185
-1.97936e-06
5.71093
-1.97392e-06
5.71001
-1.9666e-06
5.70911
-1.95789e-06
5.7082
-1.94707e-06
5.7073
-1.93485e-06
5.70639
-1.92237e-06
5.70548
-1.90769e-06
5.70456
-1.88995e-06
5.70362
-1.87114e-06
5.70268
-1.85538e-06
5.70171
-1.83621e-06
5.70073
-1.81946e-06
5.69974
-1.79995e-06
5.69874
-1.78305e-06
5.69773
-1.76522e-06
5.69673
-1.75113e-06
5.69573
-1.73831e-06
5.69476
-1.72839e-06
5.69381
-1.72136e-06
5.6929
-1.71819e-06
5.69204
-1.71671e-06
5.69125
-1.72203e-06
5.69053
-1.72957e-06
5.68988
-1.73962e-06
5.68931
-1.72681e-06
5.68882
-1.75429e-06
5.68842
-1.74873e-06
5.68808
-1.77008e-06
5.68781
-1.76669e-06
5.6876
-1.77865e-06
5.68743
-1.77105e-06
5.6873
-1.78263e-06
5.6872
-1.76659e-06
5.68712
-1.77653e-06
5.68706
-1.75834e-06
5.68702
-1.76589e-06
5.687
-1.74731e-06
5.68699
-1.75437e-06
5.68699
-1.73897e-06
5.68701
-1.73916e-06
5.68702
-1.72388e-06
5.68702
-1.70977e-06
5.687
-1.59578e-06
5.68695
-1.02013e-06
5.68685
3.1413e-06
5.68667
3.20986e-05
5.68623
0.000233982
5.68432
0.00164396
5.67259
0.0114121
5.5834
0.0888082
0.438031
5.14493
11.5943
0.00026046
11.5944
0.000215385
11.5946
0.000189844
11.5947
0.00019411
11.5949
0.000195484
11.595
0.000194947
11.5951
0.000194834
11.5953
0.000194947
11.5954
0.000195045
11.5954
0.000195127
11.5955
0.000195208
11.5955
0.000195287
11.5954
0.000195355
11.5954
0.000195433
11.5953
0.000195512
11.5952
0.000195594
11.5951
0.000195764
11.5949
0.000195739
11.5948
0.000195904
11.5947
0.000196032
11.5946
0.000196156
11.5945
0.000196283
11.5944
0.000196409
11.5943
0.000196531
11.5942
0.000196646
11.5941
0.000196749
11.594
0.000196837
11.594
0.000196899
11.5939
0.000196923
11.5939
0.000196892
11.5939
0.000196771
11.5939
0.000196554
11.594
0.000196152
11.5941
0.000195519
11.5942
0.000194588
11.5943
0.000193253
11.5945
0.000191413
11.5946
0.000188968
11.5947
0.000185804
11.5949
0.000181815
11.595
0.000176918
11.5951
0.000171054
11.5951
0.000164198
11.5952
0.000156365
11.5952
0.000147614
11.5952
0.000138053
11.5951
0.000127809
11.595
0.000117082
11.5948
0.000106065
11.5946
9.49692e-05
11.5944
8.40113e-05
11.5941
7.33926e-05
11.5938
6.32919e-05
11.5934
5.38573e-05
11.5929
4.52006e-05
11.5925
3.73956e-05
11.5919
3.04781e-05
11.5914
2.44497e-05
11.5908
1.92821e-05
11.5902
1.49238e-05
11.5896
1.13059e-05
11.5889
8.34925e-06
11.5883
5.96947e-06
11.5876
4.08263e-06
11.5869
2.6087e-06
11.5862
1.47301e-06
11.5855
6.13324e-07
11.5848
-3.2016e-08
11.5841
-5.09826e-07
11.5834
-8.57453e-07
11.5827
-1.10811e-06
11.582
-1.28672e-06
11.5813
-1.41263e-06
11.5805
-1.5005e-06
11.5798
-1.56126e-06
11.579
-1.6029e-06
11.5781
-1.63115e-06
11.5773
-1.65011e-06
11.5764
-1.66264e-06
11.5755
-1.67073e-06
11.5745
-1.67572e-06
11.5734
-1.67857e-06
11.5723
-1.67987e-06
11.5711
-1.67995e-06
11.5699
-1.67908e-06
11.5686
-1.67765e-06
11.5673
-1.67597e-06
11.5658
-1.67422e-06
11.5643
-1.67251e-06
11.5628
-1.67098e-06
11.5612
-1.66976e-06
11.5595
-1.669e-06
11.5578
-1.66881e-06
11.5561
-1.66928e-06
11.5543
-1.67041e-06
11.5525
-1.67208e-06
11.5507
-1.67413e-06
11.5489
-1.67646e-06
11.5471
-1.67902e-06
11.5453
-1.68185e-06
11.5435
-1.68506e-06
11.5417
-1.6886e-06
11.54
-1.69232e-06
11.5383
-1.69602e-06
11.5366
-1.69968e-06
11.5349
-1.70338e-06
11.5333
-1.70699e-06
11.5317
-1.71026e-06
11.5301
-1.713e-06
11.5285
-1.7151e-06
11.527
-1.71647e-06
11.5254
-1.71707e-06
11.5238
-1.71687e-06
11.5222
-1.71588e-06
11.5206
-1.71416e-06
11.519
-1.71179e-06
11.5174
-1.7088e-06
11.5156
-1.70524e-06
11.5139
-1.70121e-06
11.5121
-1.69689e-06
11.5102
-1.69208e-06
11.5083
-1.68664e-06
11.5062
-1.68078e-06
11.5042
-1.67498e-06
11.502
-1.66973e-06
11.4998
-1.66505e-06
11.4975
-1.66088e-06
11.4951
-1.65736e-06
11.4927
-1.65472e-06
11.4903
-1.65321e-06
11.4878
-1.65286e-06
11.4853
-1.65359e-06
11.4828
-1.65531e-06
11.4803
-1.658e-06
11.4778
-1.66164e-06
11.4754
-1.66614e-06
11.4729
-1.67136e-06
11.4706
-1.67737e-06
11.4682
-1.68313e-06
11.466
-1.68814e-06
11.4637
-1.69269e-06
11.4616
-1.69686e-06
11.4595
-1.70056e-06
11.4574
-1.70331e-06
11.4554
-1.70473e-06
11.4534
-1.70488e-06
11.4515
-1.70354e-06
11.4496
-1.70104e-06
11.4477
-1.69719e-06
11.4458
-1.69238e-06
11.444
-1.68632e-06
11.4422
-1.67853e-06
11.4404
-1.66966e-06
11.4386
-1.65871e-06
11.4368
-1.64876e-06
11.4349
-1.63392e-06
11.4331
-1.62303e-06
11.4312
-1.60257e-06
11.4293
-1.59247e-06
11.4274
-1.5722e-06
11.4254
-1.56168e-06
11.4234
-1.54216e-06
11.4214
-1.53012e-06
11.4194
-1.51246e-06
11.4174
-1.50188e-06
11.4154
-1.49056e-06
11.4134
-1.48178e-06
11.4115
-1.47592e-06
11.4097
-1.47403e-06
11.408
-1.47023e-06
11.4064
-1.47937e-06
11.405
-1.4772e-06
11.4037
-1.50213e-06
11.4025
-1.46501e-06
11.4015
-1.52158e-06
11.4007
-1.48388e-06
11.4
-1.53023e-06
11.3995
-1.50611e-06
11.3991
-1.53343e-06
11.3987
-1.50689e-06
11.3985
-1.54199e-06
11.3983
-1.49973e-06
11.3981
-1.53755e-06
11.398
-1.4936e-06
11.3979
-1.52823e-06
11.3978
-1.48513e-06
11.3978
-1.51334e-06
11.3978
-1.48434e-06
11.3978
-1.49699e-06
11.3979
-1.46801e-06
11.3979
-1.44662e-06
11.3978
-1.13671e-06
11.3977
5.37937e-07
11.3975
1.28138e-05
11.3971
9.85137e-05
11.3963
0.000696276
11.3925
0.00487015
11.3697
0.0336244
11.2228
0.23488
1.10203
10.558
139.131
-0.00026046
139.133
-0.000215385
139.135
-0.000189844
139.137
-0.00019411
139.138
-0.000195484
139.14
-0.000194947
139.142
-0.000194834
139.143
-0.000194947
139.144
-0.000195045
139.145
-0.000195127
139.145
-0.000195208
139.145
-0.000195287
139.145
-0.000195355
139.144
-0.000195433
139.143
-0.000195512
139.142
-0.000195594
139.141
-0.000195764
139.139
-0.000195739
139.138
-0.000195904
139.136
-0.000196032
139.135
-0.000196156
139.134
-0.000196283
139.132
-0.000196409
139.131
-0.000196531
139.13
-0.000196646
139.129
-0.000196749
139.128
-0.000196837
139.128
-0.000196899
139.127
-0.000196923
139.127
-0.000196892
139.127
-0.000196771
139.127
-0.000196554
139.128
-0.000196152
139.129
-0.000195519
139.13
-0.000194588
139.132
-0.000193253
139.134
-0.000191413
139.135
-0.000188968
139.137
-0.000185804
139.138
-0.000181815
139.14
-0.000176918
139.141
-0.000171054
139.142
-0.000164198
139.142
-0.000156365
139.142
-0.000147614
139.142
-0.000138053
139.141
-0.000127809
139.14
-0.000117082
139.138
-0.000106065
139.136
-9.49692e-05
139.133
-8.40113e-05
139.129
-7.33926e-05
139.125
-6.32919e-05
139.12
-5.38573e-05
139.115
-4.52006e-05
139.11
-3.73956e-05
139.103
-3.04781e-05
139.097
-2.44497e-05
139.09
-1.92821e-05
139.082
-1.49238e-05
139.075
-1.13059e-05
139.067
-8.34925e-06
139.059
-5.96947e-06
139.051
-4.08262e-06
139.043
-2.6087e-06
139.035
-1.47301e-06
139.026
-6.13325e-07
139.018
3.20135e-08
139.01
5.09829e-07
139.001
8.57451e-07
138.993
1.10811e-06
138.984
1.28672e-06
138.975
1.41263e-06
138.966
1.5005e-06
138.957
1.56126e-06
138.948
1.60289e-06
138.938
1.63115e-06
138.928
1.65011e-06
138.917
1.66264e-06
138.906
1.67072e-06
138.894
1.67572e-06
138.881
1.67858e-06
138.868
1.67987e-06
138.854
1.67995e-06
138.839
1.67908e-06
138.823
1.67765e-06
138.807
1.67597e-06
138.79
1.67422e-06
138.772
1.67251e-06
138.753
1.67098e-06
138.734
1.66976e-06
138.714
1.669e-06
138.694
1.66881e-06
138.673
1.66928e-06
138.652
1.67041e-06
138.63
1.67208e-06
138.608
1.67413e-06
138.587
1.67646e-06
138.565
1.67902e-06
138.543
1.68185e-06
138.522
1.68506e-06
138.501
1.68861e-06
138.48
1.69233e-06
138.459
1.69603e-06
138.439
1.69968e-06
138.419
1.70338e-06
138.4
1.70699e-06
138.38
1.71026e-06
138.361
1.713e-06
138.342
1.7151e-06
138.324
1.71648e-06
138.305
1.71707e-06
138.286
1.71687e-06
138.267
1.71588e-06
138.248
1.71416e-06
138.228
1.71178e-06
138.208
1.7088e-06
138.188
1.70524e-06
138.167
1.70121e-06
138.145
1.69689e-06
138.122
1.69207e-06
138.099
1.68665e-06
138.075
1.68078e-06
138.05
1.67498e-06
138.024
1.66973e-06
137.997
1.66505e-06
137.97
1.66088e-06
137.942
1.65736e-06
137.913
1.65472e-06
137.883
1.65321e-06
137.854
1.65286e-06
137.824
1.65359e-06
137.794
1.65531e-06
137.764
1.658e-06
137.734
1.66164e-06
137.704
1.66614e-06
137.675
1.67136e-06
137.647
1.67737e-06
137.619
1.68313e-06
137.592
1.68814e-06
137.565
1.6927e-06
137.539
1.69685e-06
137.514
1.70057e-06
137.489
1.7033e-06
137.465
1.70476e-06
137.441
1.70484e-06
137.418
1.70358e-06
137.395
1.70098e-06
137.372
1.69725e-06
137.35
1.69233e-06
137.328
1.68629e-06
137.306
1.67856e-06
137.285
1.6696e-06
137.263
1.65915e-06
137.241
1.64733e-06
137.219
1.6388e-06
137.197
1.61451e-06
137.175
1.6119e-06
137.152
1.58212e-06
137.129
1.58563e-06
137.105
1.54933e-06
137.081
1.55253e-06
137.057
1.51994e-06
137.033
1.51981e-06
137.009
1.49797e-06
136.985
1.49175e-06
136.961
1.48192e-06
136.938
1.47767e-06
136.917
1.46904e-06
136.896
1.48142e-06
136.877
1.46256e-06
136.859
1.50476e-06
136.844
1.43564e-06
136.83
1.56715e-06
136.818
1.41679e-06
136.809
1.59358e-06
136.801
1.41973e-06
136.794
1.60038e-06
136.789
1.43234e-06
136.785
1.6282e-06
136.782
1.41814e-06
136.779
1.62009e-06
136.777
1.4208e-06
136.776
1.61199e-06
136.775
1.40096e-06
136.774
1.61687e-06
136.774
1.40626e-06
136.774
1.58207e-06
136.774
1.38536e-06
136.774
1.59469e-06
136.774
1.41434e-06
136.774
1.9313e-06
136.773
3.96939e-06
136.77
2.02023e-05
136.767
0.000135286
136.761
0.000947242
136.753
0.0067784
136.73
0.0486077
136.575
0.38145
1.63519
136.031
11.5943
-0.000327733
11.5944
-0.000234946
11.5946
-0.000224859
11.5947
-0.000226773
11.5949
-0.000227307
11.595
-0.000227176
11.5951
-0.000227166
11.5953
-0.0002273
11.5954
-0.000227403
11.5954
-0.000227495
11.5955
-0.00022758
11.5955
-0.000227664
11.5954
-0.000227731
11.5954
-0.000227812
11.5953
-0.000227893
11.5952
-0.000227966
11.5951
-0.000228205
11.5949
-0.000228081
11.5948
-0.000228307
11.5947
-0.000228437
11.5946
-0.00022857
11.5945
-0.000228705
11.5944
-0.000228839
11.5943
-0.000228968
11.5942
-0.000229088
11.5941
-0.000229195
11.594
-0.000229283
11.594
-0.000229341
11.5939
-0.000229355
11.5939
-0.000229305
11.5939
-0.000229149
11.5939
-0.000228888
11.594
-0.000228395
11.5941
-0.000227651
11.5942
-0.000226551
11.5943
-0.000224985
11.5945
-0.00022283
11.5946
-0.000219975
11.5947
-0.000216284
11.5949
-0.000211636
11.595
-0.000205934
11.5951
-0.000199109
11.5951
-0.000191133
11.5952
-0.000182022
11.5952
-0.000171845
11.5952
-0.000160727
11.5951
-0.000148813
11.595
-0.00013634
11.5948
-0.000123526
11.5946
-0.00011062
11.5944
-9.78718e-05
11.5941
-8.55156e-05
11.5938
-7.37598e-05
11.5934
-6.27767e-05
11.5929
-5.26969e-05
11.5925
-4.36064e-05
11.5919
-3.55476e-05
11.5914
-2.85227e-05
11.5908
-2.24993e-05
11.5902
-1.74178e-05
11.5896
-1.31984e-05
11.5889
-9.74921e-06
11.5883
-6.97229e-06
11.5876
-4.76984e-06
11.5869
-3.04852e-06
11.5862
-1.72207e-06
11.5855
-7.14947e-07
11.5848
3.99687e-08
11.5841
5.97724e-07
11.5834
1.00361e-06
11.5827
1.29572e-06
11.582
1.50353e-06
11.5813
1.64982e-06
11.5805
1.75179e-06
11.5798
1.82221e-06
11.579
1.87042e-06
11.5781
1.9031e-06
11.5773
1.92502e-06
11.5764
1.9395e-06
11.5755
1.94883e-06
11.5745
1.9546e-06
11.5734
1.95787e-06
11.5723
1.95937e-06
11.5711
1.95943e-06
11.5699
1.9584e-06
11.5686
1.95672e-06
11.5673
1.95475e-06
11.5658
1.95271e-06
11.5643
1.95072e-06
11.5628
1.94892e-06
11.5612
1.9475e-06
11.5595
1.94662e-06
11.5578
1.94639e-06
11.5561
1.94694e-06
11.5543
1.94826e-06
11.5525
1.95021e-06
11.5507
1.95259e-06
11.5489
1.9553e-06
11.5471
1.95828e-06
11.5453
1.96159e-06
11.5435
1.96534e-06
11.5417
1.96946e-06
11.54
1.97383e-06
11.5383
1.97812e-06
11.5366
1.98238e-06
11.5349
1.9867e-06
11.5333
1.99091e-06
11.5317
1.99473e-06
11.5301
1.99791e-06
11.5285
2.00037e-06
11.527
2.00197e-06
11.5254
2.00267e-06
11.5238
2.00243e-06
11.5222
2.00128e-06
11.5206
1.99927e-06
11.519
1.9965e-06
11.5174
1.99302e-06
11.5156
1.98887e-06
11.5139
1.98415e-06
11.5121
1.97917e-06
11.5102
1.97347e-06
11.5083
1.96721e-06
11.5062
1.96031e-06
11.5042
1.95355e-06
11.502
1.94744e-06
11.4998
1.94198e-06
11.4975
1.93712e-06
11.4951
1.93299e-06
11.4927
1.92992e-06
11.4903
1.92816e-06
11.4878
1.92775e-06
11.4853
1.92859e-06
11.4828
1.93059e-06
11.4803
1.93373e-06
11.4778
1.93797e-06
11.4754
1.94322e-06
11.4729
1.94927e-06
11.4706
1.95643e-06
11.4682
1.96296e-06
11.466
1.96888e-06
11.4637
1.97421e-06
11.4616
1.97902e-06
11.4595
1.9834e-06
11.4574
1.98657e-06
11.4554
1.98829e-06
11.4534
1.98837e-06
11.4515
1.98689e-06
11.4496
1.98387e-06
11.4477
1.97948e-06
11.4458
1.9738e-06
11.444
1.96669e-06
11.4422
1.95776e-06
11.4404
1.94716e-06
11.4386
1.93499e-06
11.4368
1.92188e-06
11.4349
1.90937e-06
11.4331
1.887e-06
11.4312
1.87433e-06
11.4293
1.85188e-06
11.4274
1.84072e-06
11.4254
1.81532e-06
11.4234
1.80345e-06
11.4214
1.77959e-06
11.4194
1.76773e-06
11.4174
1.74979e-06
11.4154
1.73873e-06
11.4134
1.72843e-06
11.4115
1.72194e-06
11.4097
1.7165e-06
11.408
1.72052e-06
11.4064
1.71632e-06
11.405
1.73891e-06
11.4037
1.71714e-06
11.4025
1.76141e-06
11.4015
1.71868e-06
11.4007
1.78605e-06
11.4
1.73251e-06
11.3995
1.79869e-06
11.3991
1.74449e-06
11.3987
1.81198e-06
11.3985
1.74078e-06
11.3983
1.80729e-06
11.3981
1.73707e-06
11.398
1.79837e-06
11.3979
1.72282e-06
11.3978
1.79188e-06
11.3978
1.7182e-06
11.3978
1.77196e-06
11.3978
1.70151e-06
11.3979
1.76666e-06
11.3979
1.69925e-06
11.3978
1.86574e-06
11.3977
2.55147e-06
11.3975
8.06438e-06
11.3973
4.73061e-05
11.3975
0.00032389
11.4015
0.00233009
11.4321
0.0173302
11.6266
0.1862
0.706877
12.554
5.79675
5.79658
5.79642
5.79626
5.79608
5.79591
5.79574
5.79555
5.79536
5.79515
5.79493
5.79468
5.79442
5.79414
5.79385
5.79356
5.79326
5.79296
5.79266
5.79235
5.79205
5.79175
5.79145
5.79116
5.79087
5.79058
5.7903
5.79002
5.78975
5.78949
5.78925
5.78902
5.78881
5.78861
5.78843
5.78825
5.78808
5.78792
5.78775
5.78759
5.78742
5.78726
5.78709
5.78691
5.78674
5.78655
5.78636
5.78616
5.78595
5.78574
5.78551
5.78527
5.78502
5.78476
5.78448
5.7842
5.7839
5.7836
5.78328
5.78296
5.78263
5.7823
5.78196
5.78161
5.78127
5.78092
5.78058
5.78023
5.77988
5.77953
5.77918
5.77882
5.77846
5.77809
5.77771
5.77732
5.77691
5.77648
5.77604
5.77557
5.77508
5.77456
5.774
5.77342
5.77281
5.77216
5.77148
5.77077
5.77003
5.76925
5.76845
5.76762
5.76677
5.76591
5.76502
5.76413
5.76323
5.76233
5.76143
5.76053
5.75964
5.75876
5.75789
5.75704
5.7562
5.75537
5.75455
5.75375
5.75296
5.75217
5.75139
5.75061
5.74983
5.74904
5.74824
5.74743
5.7466
5.74575
5.74488
5.74397
5.74304
5.74207
5.74106
5.74002
5.73895
5.73784
5.73669
5.73552
5.73432
5.7331
5.73186
5.73062
5.72937
5.72812
5.72688
5.72565
5.72444
5.72325
5.72209
5.72096
5.71985
5.71877
5.71771
5.71669
5.71568
5.7147
5.71373
5.71278
5.71185
5.71093
5.71001
5.70911
5.7082
5.7073
5.70639
5.70548
5.70456
5.70362
5.70268
5.70171
5.70073
5.69974
5.69874
5.69773
5.69673
5.69573
5.69476
5.69381
5.6929
5.69204
5.69125
5.69053
5.68988
5.68931
5.68882
5.68842
5.68808
5.68781
5.6876
5.68743
5.6873
5.6872
5.68712
5.68706
5.68702
5.687
5.68699
5.68699
5.68701
5.68702
5.68702
5.687
5.68695
5.68686
5.68676
5.68688
5.68894
5.70595
5.89177
6.59822
5.02009
0.124726
5.02834
-0.00836948
5.02666
0.00156373
5.03416
-0.00762259
5.05134
-0.0172818
5.06575
-0.0145045
5.06057
0.00516401
5.04874
0.0119404
5.12548
-0.0763817
5.33868
-0.213163
5.61271
-0.274462
5.79383
-0.181988
5.78251
0.0104775
5.67901
0.103081
5.5228
0.155969
5.34127
0.181469
5.2114
0.130484
5.30926
-0.0957055
5.83556
-0.523795
-1.27106
7.10733
10.5064
0.176066
10.5274
-0.029645
10.5788
-0.0499949
10.6401
-0.069174
10.7149
-0.0922785
10.7865
-0.0863581
10.8206
-0.0288996
10.8292
0.00349834
10.996
-0.242372
11.4221
-0.639255
12.0052
-0.858582
12.4622
-0.640816
12.5656
-0.0942868
12.466
0.202128
12.2121
0.409546
11.8215
0.572157
11.3995
0.553818
11.2684
0.0396253
11.8415
-1.09201
-3.14496
13.7163
136.082
0.122862
136.155
-0.104745
136.157
-0.0547283
135.993
0.0935068
135.67
0.227912
135.264
0.317533
134.864
0.369644
134.503
0.360243
133.866
0.392949
132.858
0.364912
131.635
0.363267
130.659
0.33445
130.263
0.300849
130.196
0.265865
130.371
0.23071
130.743
0.194909
131.134
0.156571
131.053
0.11061
129.911
0.0421321
-0.152317
126.914
12.4977
0.179072
12.3996
-0.00681607
12.3529
-0.00822066
12.4229
0.0232394
12.5946
0.055903
12.8299
0.0818249
13.0992
0.0995525
13.3587
0.10119
13.6403
0.110624
13.9004
0.105156
14.1606
0.102898
14.402
0.0929513
14.6232
0.0795409
14.8242
0.0646678
15.0056
0.0491932
15.1676
0.0328765
15.3105
0.0135906
15.436
-0.0148912
15.5483
-0.0702155
-0.245968
15.6419
6.77722
6.77033
6.76202
6.78514
6.8409
6.92252
7.02179
7.12303
7.23346
7.33866
7.44152
7.5344
7.61388
7.67849
7.72764
7.76049
7.77406
7.75915
7.68893
7.44296
7.83524
-0.733372
7.66278
0.170464
7.6643
0.000367621
7.80954
-0.143952
7.89859
-0.0889984
7.91043
-0.0116758
7.89344
0.0174229
7.88243
0.0113431
7.88307
-0.000372693
7.88447
-0.00117156
7.88262
0.00205646
7.87846
0.00431441
7.87363
0.0049109
7.86914
0.00449264
7.86511
0.00398455
7.86138
0.00364484
7.85786
0.00338601
7.85459
0.00309037
7.85166
0.00270939
7.84916
0.00225947
7.84711
0.00178368
7.8455
0.0013281
7.84427
0.000935564
7.84332
0.000642538
7.84253
0.000479685
7.84174
0.000461708
7.84084
0.000577834
7.83975
0.000753085
7.83873
0.000694665
7.83895
-0.000543353
7.84284
-0.0042071
7.84849
-0.00599095
7.85246
-0.00431675
7.85324
-0.00111269
7.8515
0.0014295
7.84925
0.0019699
7.84687
0.00211706
7.84466
0.00196969
7.84278
0.001675
7.84129
0.00132204
7.8402
0.000963868
7.83945
0.000660562
7.83892
0.000475039
7.83846
0.000437103
7.83793
0.000547459
7.83719
0.00079111
7.83614
0.00113155
7.83473
0.0015377
7.83274
0.00215706
7.82981
0.00311741
7.8254
0.00462455
7.81874
0.00689557
7.80889
0.0100778
7.79488
0.0142182
7.77581
0.0192547
7.75091
0.0250819
7.71951
0.0315684
7.68101
0.0386576
7.63477
0.0463864
7.57998
0.0548971
7.51566
0.0643828
7.44068
0.0749737
7.35382
0.0866942
7.25371
0.0993827
7.14025
0.111688
7.01505
0.123907
6.88037
0.134023
6.73927
0.140763
6.59645
0.143163
6.45651
0.141173
6.32361
0.133463
6.20175
0.121817
6.09401
0.107303
6.00195
0.0914111
5.92566
0.0755489
5.86407
0.0607263
5.8155
0.047705
5.77794
0.0367068
5.74933
0.0277498
5.72781
0.0206619
5.71177
0.0151824
5.69989
0.0110267
5.69112
0.00792536
5.68464
0.0056412
5.67984
0.00398172
5.67626
0.0027857
5.67355
0.0019334
5.67147
0.00133139
5.66985
0.00090973
5.66854
0.000616825
5.66748
0.000414988
5.66659
0.000276998
5.66583
0.000183395
5.66517
0.000120393
5.66458
7.83157e-05
5.66407
5.04314e-05
5.6636
3.20958e-05
5.66318
2.01328e-05
5.66279
1.23884e-05
5.66243
7.4141e-06
5.6621
4.24403e-06
5.66178
2.23966e-06
5.66147
9.82689e-07
5.66117
2.00856e-07
5.66087
-2.81167e-07
5.66056
-5.74826e-07
5.66023
-7.5227e-07
5.65989
-8.57803e-07
5.65951
-9.19659e-07
5.65911
-9.54942e-07
5.65867
-9.74138e-07
5.65818
-9.83609e-07
5.65765
-9.87187e-07
5.65706
-9.87147e-07
5.65642
-9.84848e-07
5.65573
-9.81141e-07
5.65498
-9.76635e-07
5.65416
-9.71751e-07
5.6533
-9.66784e-07
5.65237
-9.61958e-07
5.65139
-9.57509e-07
5.65036
-9.53647e-07
5.64929
-9.50486e-07
5.64817
-9.48059e-07
5.64702
-9.46389e-07
5.64584
-9.45534e-07
5.64463
-9.45593e-07
5.64341
-9.46617e-07
5.64218
-9.48585e-07
5.64094
-9.51455e-07
5.63971
-9.55137e-07
5.63848
-9.59604e-07
5.63727
-9.64759e-07
5.63607
-9.70558e-07
5.6349
-9.76879e-07
5.63376
-9.83604e-07
5.63265
-9.90565e-07
5.63157
-9.97534e-07
5.63053
-1.0043e-06
5.62953
-1.01068e-06
5.62856
-1.01662e-06
5.62763
-1.02214e-06
5.62674
-1.02728e-06
5.62589
-1.03201e-06
5.62508
-1.03632e-06
5.62429
-1.04014e-06
5.62355
-1.04343e-06
5.62283
-1.04611e-06
5.62213
-1.04808e-06
5.62147
-1.04924e-06
5.62082
-1.04951e-06
5.62018
-1.04876e-06
5.61955
-1.04702e-06
5.61893
-1.0442e-06
5.6183
-1.04033e-06
5.61766
-1.03526e-06
5.61701
-1.02908e-06
5.61632
-1.02159e-06
5.61561
-1.01306e-06
5.61486
-1.00329e-06
5.61407
-9.92784e-07
5.61323
-9.81345e-07
5.61233
-9.6953e-07
5.61138
-9.5693e-07
5.61037
-9.44232e-07
5.6093
-9.31352e-07
5.60817
-9.18953e-07
5.60698
-9.06995e-07
5.60573
-8.96211e-07
5.60444
-8.8657e-07
5.60309
-8.78592e-07
5.60172
-8.72109e-07
5.60031
-8.67658e-07
5.59887
-8.6484e-07
5.59743
-8.64606e-07
5.59599
-8.65948e-07
5.59455
-8.6991e-07
5.59313
-8.75079e-07
5.59173
-8.82817e-07
5.59037
-8.91141e-07
5.58904
-9.01247e-07
5.58776
-9.10839e-07
5.58652
-9.22333e-07
5.58534
-9.31568e-07
5.5842
-9.42657e-07
5.5831
-9.50264e-07
5.58205
-9.59901e-07
5.58105
-9.65794e-07
5.58009
-9.79458e-07
5.57916
-1.01658e-06
5.57828
-1.1984e-06
5.57744
-2.13892e-06
5.57664
-6.91626e-06
5.57592
-3.17364e-05
5.57537
-0.000159788
5.57552
-0.00082374
5.57921
-0.00430174
5.60191
-0.0232732
5.77164
-0.170252
-0.662337
6.43351
15.273
-2.30106
14.9899
0.449282
14.8283
0.166387
14.9936
-0.3068
15.1641
-0.259295
15.2105
-0.057699
15.1798
0.0489758
15.1504
0.0414273
15.1463
0.00418976
15.1494
-0.0037437
15.1478
0.00404982
15.141
0.0114041
15.132
0.0140404
15.1233
0.0132776
15.1152
0.0120071
15.1074
0.0111878
15.0999
0.0106479
15.0926
0.0100426
15.0857
0.00919247
15.0793
0.0081164
15.0737
0.00692729
15.0687
0.00576407
15.0642
0.00476814
15.0602
0.00407968
15.0562
0.00383337
15.0519
0.00412046
15.0468
0.00496684
15.0407
0.00620931
15.0337
0.00701758
15.0281
0.00441879
15.0304
-0.00716013
15.0401
-0.0163387
15.051
-0.0159232
15.0579
-0.00866387
15.0591
-0.000426454
15.0577
0.00285444
15.0545
0.00474871
15.0505
0.00556
15.046
0.00578296
15.0413
0.00571312
15.0364
0.00555746
15.0313
0.00556162
15.0257
0.00595973
15.0192
0.00687854
15.0113
0.00837597
15.0019
0.0103256
14.9907
0.0125182
14.9778
0.0147075
14.9631
0.0171845
14.9463
0.0202062
14.927
0.0243672
14.904
0.0303639
14.8757
0.0387686
14.8404
0.0498852
14.7963
0.0637144
14.7417
0.0799943
14.6753
0.0983916
14.5956
0.118661
14.5016
0.14073
14.392
0.164743
14.2655
0.190912
14.1212
0.219228
13.9577
0.249258
13.7752
0.279574
13.5762
0.308821
13.3643
0.334722
13.1436
0.354026
12.9202
0.364115
12.7011
0.363875
12.4916
0.35163
12.2969
0.328173
12.1219
0.296278
11.9691
0.258964
11.8397
0.219564
11.7327
0.181075
11.6462
0.14562
11.5776
0.114612
11.5242
0.0884996
11.483
0.0672061
11.4517
0.0502991
11.428
0.0371643
11.4102
0.0271446
11.3968
0.0196181
11.3868
0.0140434
11.3791
0.00996003
11.3733
0.00700207
11.3688
0.0048811
11.3653
0.00337458
11.3625
0.00231407
11.3601
0.00157406
11.3582
0.0010621
11.3565
0.0007109
11.3551
0.000471977
11.3538
0.000310784
11.3527
0.000202926
11.3517
0.000131348
11.3507
8.4236e-05
11.3499
5.34798e-05
11.3491
3.35654e-05
11.3484
2.0776e-05
11.3477
1.26289e-05
11.3471
7.48138e-06
11.3465
4.25621e-06
11.3459
2.25189e-06
11.3453
1.01622e-06
11.3447
2.61743e-07
11.344
-1.96096e-07
11.3433
-4.7024e-07
11.3426
-6.33049e-07
11.3417
-7.28328e-07
11.3409
-7.83012e-07
11.3399
-8.13425e-07
11.3388
-8.29386e-07
11.3376
-8.36754e-07
11.3364
-8.39006e-07
11.335
-8.38219e-07
11.3335
-8.35691e-07
11.3318
-8.32242e-07
11.3301
-8.28389e-07
11.3282
-8.24486e-07
11.3263
-8.20806e-07
11.3242
-8.17559e-07
11.3221
-8.14879e-07
11.3198
-8.12812e-07
11.3175
-8.11395e-07
11.3152
-8.10673e-07
11.3128
-8.10722e-07
11.3103
-8.11588e-07
11.3078
-8.13265e-07
11.3054
-8.15718e-07
11.3029
-8.1888e-07
11.3004
-8.22707e-07
11.298
-8.27138e-07
11.2956
-8.32112e-07
11.2933
-8.37538e-07
11.291
-8.43305e-07
11.2888
-8.49272e-07
11.2866
-8.55248e-07
11.2845
-8.61057e-07
11.2825
-8.66533e-07
11.2806
-8.71638e-07
11.2787
-8.76357e-07
11.2769
-8.80761e-07
11.2752
-8.84809e-07
11.2736
-8.88512e-07
11.272
-8.91789e-07
11.2705
-8.94615e-07
11.2691
-8.96903e-07
11.2677
-8.986e-07
11.2664
-8.99577e-07
11.2651
-8.99819e-07
11.2638
-8.99157e-07
11.2625
-8.97697e-07
11.2613
-8.95219e-07
11.26
-8.91951e-07
11.2587
-8.87536e-07
11.2574
-8.82306e-07
11.2561
-8.7576e-07
11.2546
-8.68641e-07
11.2531
-8.60084e-07
11.2515
-8.51274e-07
11.2499
-8.41218e-07
11.2481
-8.3139e-07
11.2462
-8.20344e-07
11.2441
-8.09634e-07
11.242
-7.98463e-07
11.2397
-7.88028e-07
11.2373
-7.77563e-07
11.2348
-7.68459e-07
11.2323
-7.6008e-07
11.2296
-7.53364e-07
11.2268
-7.47642e-07
11.224
-7.44099e-07
11.2211
-7.41261e-07
11.2182
-7.41624e-07
11.2153
-7.42214e-07
11.2125
-7.46208e-07
11.2096
-7.49781e-07
11.2068
-7.57379e-07
11.2041
-7.63756e-07
11.2014
-7.7329e-07
11.1989
-7.79987e-07
11.1964
-7.91896e-07
11.194
-7.97573e-07
11.1917
-8.09589e-07
11.1895
-8.13333e-07
11.1874
-8.2504e-07
11.1854
-8.29274e-07
11.1835
-8.58387e-07
11.1817
-9.59259e-07
11.1799
-1.48643e-06
11.1782
-4.24456e-06
11.1766
-1.82825e-05
11.1752
-9.12316e-05
11.174
-0.000467501
11.1743
-0.00241517
11.1813
-0.0125208
11.2223
-0.0654023
11.418
-0.367017
-1.51877
12.2735
124.599
0.0383587
125.069
-0.00359872
125.174
0.069237
124.806
0.0686146
124.531
0.0246264
124.491
-0.00875723
124.56
-0.0114605
124.613
-0.00323055
124.628
-0.00448043
124.638
-0.00786324
124.656
-0.0092926
124.68
-0.0094134
124.706
-0.00921256
124.728
-0.00917684
124.749
-0.00916451
124.767
-0.00893226
124.782
-0.00844648
124.796
-0.00779716
124.807
-0.00708426
124.815
-0.00637837
124.821
-0.00571144
124.825
-0.00509421
124.828
-0.00451982
124.828
-0.00395213
124.828
-0.00335964
124.827
-0.00272762
124.827
-0.00190948
124.826
-0.00101025
124.825
-0.000181723
124.821
0.00031258
124.805
0.000362146
124.781
-0.000636828
124.759
-0.00186978
124.745
-0.00252752
124.739
-0.00218964
124.737
-0.00162569
124.736
-0.00128316
124.737
-0.00120394
124.738
-0.00137647
124.741
-0.00193756
124.746
-0.00301481
124.753
-0.0044575
124.764
-0.00630059
124.779
-0.00854668
124.799
-0.0113214
124.827
-0.0149356
124.865
-0.0199248
124.918
-0.0268722
124.985
-0.0368869
125.068
-0.0506767
125.172
-0.068958
125.304
-0.0921917
125.472
-0.120518
125.683
-0.153574
125.944
-0.190433
126.259
-0.229494
126.631
-0.268453
127.059
-0.304495
127.537
-0.334619
128.06
-0.356151
128.62
-0.367485
129.209
-0.368945
129.819
-0.361398
130.443
-0.346494
131.076
-0.325993
131.708
-0.301558
132.331
-0.274005
132.932
-0.244481
133.501
-0.213802
134.025
-0.183469
134.496
-0.154715
134.906
-0.128279
135.255
-0.104661
135.542
-0.0841999
135.773
-0.0668791
135.953
-0.0525197
136.09
-0.0407879
136.191
-0.0313356
136.262
-0.0238165
136.31
-0.0179069
136.341
-0.013318
136.357
-0.00979777
136.364
-0.00713174
136.363
-0.00513348
136.357
-0.00365569
136.348
-0.00257572
136.336
-0.0017956
136.323
-0.00123854
136.309
-0.000845333
136.294
-0.000570915
136.28
-0.00038153
136.267
-0.000252268
136.253
-0.000165002
136.241
-0.000106724
136.229
-6.82201e-05
136.218
-4.30509e-05
136.208
-2.67715e-05
136.198
-1.63521e-05
136.189
-9.75295e-06
136.181
-5.61646e-06
136.173
-3.05035e-06
136.165
-1.47528e-06
136.158
-5.19577e-07