/*--------------------------------*- C++ -*----------------------------------*\
| =========                 |                                                 |
| \\      /  F ield         | OpenFOAM: The Open Source CFD Toolbox           |
|  \\    /   O peration     | Version:  3.0.x                                 |
|   \\  /    A nd           | Web:      www.OpenFOAM.org                      |
|    \\/     M anipulation  |                                                 |
\*---------------------------------------------------------------------------*/
FoamFile
{
    version     2.0;
    format      ascii;
    class       volScalarField;
    location    "0.29";
    object      rho;
}
// * * * * * * * * * * * * * * * * * * * * * * * * * * * * * * * * * * * * * //

dimensions      [1 -3 0 0 0 0 0];

internalField   nonuniform List<scalar> 
6900
(
50.9105
50.9105
50.9105
50.9105
50.9105
50.9105
50.9106
50.9108
50.911
50.9111
50.9112
50.9113
50.9114
50.9114
50.9114
50.9114
50.9114
50.9116
50.9117
50.9119
50.9121
50.9123
50.9126
50.9128
50.9131
50.9133
50.9135
50.9136
50.9136
50.9137
50.9137
50.9137
50.9138
50.914
50.9141
50.9143
50.9144
50.9146
50.9146
50.9147
50.9147
50.9147
50.9147
50.9146
50.9146
50.9146
50.9145
50.9145
50.9144
50.9144
50.9143
50.9143
50.9142
50.9142
50.9141
50.9141
50.914
50.9139
50.9139
50.9138
50.9137
50.9136
50.9135
50.9134
50.9133
50.9131
50.9129
50.9128
50.9126
50.9123
50.9121
50.9119
50.9116
50.9113
50.9111
50.9108
50.9105
50.9101
50.9098
50.9095
50.9091
50.9088
50.9085
50.9081
50.9078
50.9074
50.9071
50.9067
50.9064
50.9061
50.9057
50.9054
50.905
50.9047
50.9043
50.904
50.9036
50.9033
50.9029
50.9025
50.9021
50.9017
50.9012
50.9008
50.9003
50.8998
50.8994
50.8989
50.8983
50.8978
50.8973
50.8968
50.8962
50.8957
50.8951
50.8946
50.894
50.8935
50.893
50.8924
50.8919
50.8914
50.8909
50.8904
50.8899
50.8895
50.889
50.8885
50.8881
50.8876
50.8872
50.8867
50.8862
50.8858
50.8853
50.8848
50.8842
50.8837
50.8831
50.8825
50.8819
50.8813
50.8807
50.88
50.8793
50.8787
50.878
50.8773
50.8767
50.876
50.8754
50.8747
50.8741
50.8735
50.8729
50.8724
50.8719
50.8714
50.8709
50.8705
50.8702
50.8698
50.8695
50.8693
50.8691
50.8689
50.8687
50.8685
50.8684
50.8683
50.8681
50.868
50.8678
50.8676
50.8674
50.8671
50.8669
50.8666
50.8663
50.866
50.8657
50.8654
50.8651
50.8649
50.8646
50.8643
50.8641
50.8639
50.8636
50.8634
50.8632
50.863
50.8629
50.8628
50.8628
50.8627
50.8628
50.8628
50.8634
50.8607
50.9107
50.9107
50.9106
50.9106
50.9106
50.9107
50.9107
50.9109
50.9111
50.9113
50.9114
50.9115
50.9115
50.9115
50.9115
50.9115
50.9116
50.9117
50.9118
50.912
50.9122
50.9125
50.9127
50.9129
50.9132
50.9134
50.9136
50.9137
50.9138
50.9138
50.9138
50.9138
50.9139
50.9141
50.9142
50.9144
50.9145
50.9147
50.9147
50.9148
50.9148
50.9148
50.9148
50.9147
50.9147
50.9146
50.9146
50.9145
50.9145
50.9145
50.9144
50.9144
50.9143
50.9143
50.9142
50.9142
50.9141
50.914
50.914
50.9139
50.9138
50.9137
50.9136
50.9135
50.9133
50.9132
50.913
50.9128
50.9127
50.9124
50.9122
50.912
50.9117
50.9114
50.9111
50.9109
50.9105
50.9102
50.9099
50.9096
50.9092
50.9089
50.9085
50.9082
50.9079
50.9075
50.9072
50.9068
50.9065
50.9061
50.9058
50.9055
50.9051
50.9048
50.9044
50.9041
50.9037
50.9033
50.903
50.9026
50.9022
50.9018
50.9013
50.9009
50.9004
50.8999
50.8994
50.8989
50.8984
50.8979
50.8974
50.8968
50.8963
50.8958
50.8952
50.8947
50.8941
50.8936
50.893
50.8925
50.892
50.8915
50.891
50.8905
50.89
50.8895
50.8891
50.8886
50.8882
50.8877
50.8873
50.8868
50.8863
50.8859
50.8854
50.8848
50.8843
50.8838
50.8832
50.8826
50.882
50.8814
50.8807
50.8801
50.8794
50.8788
50.8781
50.8774
50.8768
50.8761
50.8754
50.8748
50.8742
50.8736
50.873
50.8725
50.872
50.8715
50.871
50.8706
50.8703
50.8699
50.8696
50.8694
50.8692
50.869
50.8688
50.8686
50.8685
50.8683
50.8682
50.868
50.8679
50.8677
50.8675
50.8672
50.867
50.8667
50.8664
50.8661
50.8658
50.8655
50.8652
50.865
50.8647
50.8644
50.8642
50.8639
50.8637
50.8635
50.8633
50.8631
50.863
50.8629
50.8628
50.8628
50.8629
50.8629
50.8634
50.8611
50.9107
50.9106
50.9106
50.9106
50.9106
50.9107
50.9107
50.9109
50.9111
50.9113
50.9114
50.9115
50.9115
50.9115
50.9115
50.9115
50.9116
50.9117
50.9118
50.912
50.9122
50.9125
50.9127
50.9129
50.9132
50.9134
50.9136
50.9137
50.9138
50.9138
50.9138
50.9138
50.9139
50.9141
50.9142
50.9144
50.9145
50.9147
50.9147
50.9148
50.9148
50.9148
50.9148
50.9147
50.9147
50.9146
50.9146
50.9145
50.9145
50.9145
50.9144
50.9144
50.9143
50.9143
50.9142
50.9142
50.9141
50.914
50.914
50.9139
50.9138
50.9137
50.9136
50.9135
50.9133
50.9132
50.913
50.9128
50.9127
50.9124
50.9122
50.912
50.9117
50.9114
50.9111
50.9109
50.9105
50.9102
50.9099
50.9096
50.9092
50.9089
50.9085
50.9082
50.9079
50.9075
50.9072
50.9068
50.9065
50.9061
50.9058
50.9055
50.9051
50.9048
50.9044
50.9041
50.9037
50.9033
50.903
50.9026
50.9022
50.9018
50.9013
50.9009
50.9004
50.8999
50.8994
50.8989
50.8984
50.8979
50.8974
50.8968
50.8963
50.8958
50.8952
50.8947
50.8941
50.8936
50.893
50.8925
50.892
50.8915
50.891
50.8905
50.89
50.8895
50.8891
50.8886
50.8882
50.8877
50.8873
50.8868
50.8863
50.8859
50.8854
50.8848
50.8843
50.8838
50.8832
50.8826
50.882
50.8814
50.8807
50.8801
50.8794
50.8788
50.8781
50.8774
50.8768
50.8761
50.8754
50.8748
50.8742
50.8736
50.873
50.8725
50.872
50.8715
50.871
50.8706
50.8703
50.8699
50.8696
50.8694
50.8692
50.869
50.8688
50.8686
50.8685
50.8683
50.8682
50.868
50.8679
50.8677
50.8675
50.8672
50.867
50.8667
50.8664
50.8661
50.8658
50.8655
50.8652
50.865
50.8647
50.8644
50.8642
50.8639
50.8637
50.8635
50.8633
50.8631
50.863
50.8629
50.8628
50.8628
50.8629
50.8629
50.8631
50.8632
50.9107
50.9107
50.9106
50.9106
50.9106
50.9107
50.9107
50.9109
50.9111
50.9113
50.9114
50.9115
50.9115
50.9115
50.9115
50.9115
50.9116
50.9117
50.9118
50.912
50.9122
50.9125
50.9127
50.9129
50.9132
50.9134
50.9136
50.9137
50.9138
50.9138
50.9138
50.9138
50.9139
50.9141
50.9142
50.9144
50.9145
50.9147
50.9147
50.9148
50.9148
50.9148
50.9148
50.9147
50.9147
50.9146
50.9146
50.9145
50.9145
50.9145
50.9144
50.9144
50.9143
50.9143
50.9142
50.9142
50.9141
50.914
50.914
50.9139
50.9138
50.9137
50.9136
50.9135
50.9133
50.9132
50.913
50.9128
50.9127
50.9124
50.9122
50.912
50.9117
50.9114
50.9111
50.9109
50.9105
50.9102
50.9099
50.9096
50.9092
50.9089
50.9085
50.9082
50.9079
50.9075
50.9072
50.9068
50.9065
50.9061
50.9058
50.9055
50.9051
50.9048
50.9044
50.9041
50.9037
50.9033
50.903
50.9026
50.9022
50.9018
50.9013
50.9009
50.9004
50.8999
50.8994
50.8989
50.8984
50.8979
50.8974
50.8968
50.8963
50.8958
50.8952
50.8947
50.8941
50.8936
50.893
50.8925
50.892
50.8915
50.891
50.8905
50.89
50.8895
50.8891
50.8886
50.8882
50.8877
50.8873
50.8868
50.8863
50.8859
50.8854
50.8848
50.8843
50.8838
50.8832
50.8826
50.882
50.8814
50.8807
50.8801
50.8794
50.8788
50.8781
50.8774
50.8768
50.8761
50.8754
50.8748
50.8742
50.8736
50.873
50.8725
50.872
50.8715
50.871
50.8706
50.8703
50.8699
50.8696
50.8694
50.8692
50.869
50.8688
50.8686
50.8685
50.8683
50.8682
50.868
50.8679
50.8677
50.8675
50.8672
50.867
50.8667
50.8664
50.8661
50.8658
50.8655
50.8652
50.865
50.8647
50.8644
50.8642
50.8639
50.8637
50.8635
50.8633
50.8631
50.863
50.8629
50.8628
50.8628
50.8629
50.863
50.8623
50.8686
50.9105
50.9105
50.9105
50.9105
50.9105
50.9105
50.9106
50.9108
50.911
50.9111
50.9112
50.9113
50.9114
50.9114
50.9114
50.9114
50.9114
50.9116
50.9117
50.9119
50.9121
50.9123
50.9126
50.9128
50.9131
50.9133
50.9135
50.9136
50.9136
50.9137
50.9137
50.9137
50.9138
50.914
50.9141
50.9143
50.9144
50.9146
50.9146
50.9147
50.9147
50.9147
50.9147
50.9146
50.9146
50.9146
50.9145
50.9145
50.9144
50.9144
50.9143
50.9143
50.9142
50.9142
50.9141
50.9141
50.914
50.9139
50.9139
50.9138
50.9137
50.9136
50.9135
50.9134
50.9133
50.9131
50.9129
50.9128
50.9126
50.9123
50.9121
50.9119
50.9116
50.9113
50.9111
50.9108
50.9105
50.9101
50.9098
50.9095
50.9091
50.9088
50.9085
50.9081
50.9078
50.9074
50.9071
50.9067
50.9064
50.9061
50.9057
50.9054
50.905
50.9047
50.9043
50.904
50.9036
50.9033
50.9029
50.9025
50.9021
50.9017
50.9012
50.9008
50.9003
50.8998
50.8994
50.8989
50.8983
50.8978
50.8973
50.8968
50.8962
50.8957
50.8951
50.8946
50.894
50.8935
50.893
50.8924
50.8919
50.8914
50.8909
50.8904
50.8899
50.8895
50.889
50.8885
50.8881
50.8876
50.8872
50.8867
50.8862
50.8858
50.8853
50.8848
50.8842
50.8837
50.8831
50.8825
50.8819
50.8813
50.8807
50.88
50.8793
50.8787
50.878
50.8773
50.8767
50.876
50.8754
50.8747
50.8741
50.8735
50.8729
50.8724
50.8719
50.8714
50.8709
50.8705
50.8702
50.8698
50.8695
50.8693
50.8691
50.8689
50.8687
50.8686
50.8684
50.8683
50.8681
50.868
50.8678
50.8676
50.8674
50.8671
50.8669
50.8666
50.8663
50.866
50.8657
50.8654
50.8651
50.8649
50.8646
50.8643
50.8641
50.8639
50.8636
50.8634
50.8632
50.8631
50.8629
50.8628
50.8627
50.8628
50.8628
50.863
50.8616
50.8743
50.8792
50.886
50.8868
50.8848
50.883
50.8812
50.8789
50.877
50.8776
50.8803
50.8792
50.8725
50.8601
50.8493
50.8409
50.833
50.8264
50.825
50.8365
50.8465
50.8757
50.8792
50.879
50.8772
50.8754
50.8737
50.8714
50.8696
50.8706
50.8735
50.8718
50.8634
50.8505
50.8404
50.8325
50.825
50.8193
50.8186
50.831
50.838
50.8642
50.8641
50.8631
50.861
50.8583
50.8548
50.8506
50.8456
50.8392
50.8321
50.8247
50.8176
50.8105
50.8021
50.7925
50.7819
50.7706
50.7581
50.744
50.7309
50.8412
50.8382
50.8392
50.8408
50.8398
50.8362
50.8309
50.8238
50.8179
50.8102
50.8037
50.7966
50.7898
50.7835
50.7776
50.7721
50.7677
50.7639
50.7609
50.7589
50.8314
50.8193
50.8148
50.8142
50.8121
50.8073
50.8008
50.7926
50.785
50.7762
50.7681
50.7594
50.7515
50.7436
50.7368
50.7302
50.7249
50.7201
50.7167
50.715
50.7821
50.7453
50.7493
50.755
50.7502
50.7458
50.7456
50.7459
50.7458
50.7455
50.7454
50.7455
50.7455
50.7454
50.7453
50.7452
50.7451
50.745
50.7449
50.7448
50.7446
50.7445
50.7444
50.7443
50.7442
50.7441
50.744
50.7439
50.7438
50.7439
50.744
50.744
50.7439
50.7437
50.7436
50.7435
50.7435
50.7435
50.7435
50.7435
50.7435
50.7435
50.7435
50.7435
50.7434
50.7433
50.7432
50.7431
50.743
50.743
50.7431
50.7431
50.7431
50.7431
50.7429
50.7427
50.7426
50.7426
50.7427
50.7429
50.7431
50.7432
50.743
50.7409
50.7322
50.7217
50.717
50.7165
50.7193
50.7302
50.7412
50.7473
50.7498
50.7503
50.75
50.7493
50.7483
50.7475
50.7469
50.7464
50.746
50.7456
50.7453
50.745
50.7447
50.7444
50.7441
50.7438
50.7435
50.7432
50.7429
50.7425
50.7422
50.7418
50.7415
50.7411
50.7408
50.7404
50.74
50.7396
50.7392
50.7388
50.7384
50.738
50.7376
50.7372
50.7368
50.7364
50.736
50.7356
50.7352
50.7348
50.7344
50.734
50.7336
50.7333
50.7329
50.7325
50.7322
50.7319
50.7316
50.7312
50.7309
50.7306
50.7303
50.73
50.7297
50.7294
50.7291
50.7288
50.7284
50.7281
50.7277
50.7273
50.727
50.7266
50.7261
50.7257
50.7252
50.7247
50.7242
50.7237
50.7232
50.7226
50.7221
50.7215
50.7209
50.7203
50.7197
50.7191
50.7185
50.7179
50.7173
50.7166
50.716
50.7154
50.7148
50.7142
50.7136
50.7131
50.7125
50.712
50.7115
50.7111
50.7106
50.7102
50.7098
50.7095
50.7091
50.7088
50.7085
50.7082
50.7079
50.7077
50.7074
50.7071
50.7068
50.7065
50.7062
50.7059
50.7055
50.7051
50.7047
50.7043
50.7038
50.7033
50.7028
50.7023
50.7017
50.7012
50.7006
50.7
50.6994
50.6988
50.6982
50.6975
50.6968
50.6963
50.6944
50.7023
50.7775
50.7446
50.7491
50.7541
50.7493
50.745
50.7446
50.7449
50.7447
50.7444
50.7444
50.7445
50.7445
50.7444
50.7443
50.7442
50.7441
50.744
50.7439
50.7437
50.7436
50.7435
50.7433
50.7432
50.7431
50.7429
50.7428
50.7428
50.7427
50.7426
50.7426
50.7427
50.7426
50.7425
50.7424
50.7424
50.7423
50.7423
50.7424
50.7424
50.7424
50.7424
50.7423
50.7422
50.742
50.7418
50.7417
50.7416
50.7416
50.7415
50.7415
50.7415
50.7414
50.7411
50.7408
50.7406
50.7406
50.7406
50.7408
50.741
50.7412
50.7412
50.7399
50.7343
50.7268
50.7228
50.7221
50.7232
50.7291
50.7382
50.7442
50.7474
50.7486
50.7489
50.7486
50.7482
50.7477
50.7472
50.7467
50.7463
50.746
50.7457
50.7453
50.7451
50.7448
50.7445
50.7442
50.7439
50.7436
50.7433
50.7429
50.7426
50.7423
50.7419
50.7416
50.7412
50.7408
50.7405
50.7401
50.7397
50.7393
50.7389
50.7385
50.7381
50.7377
50.7373
50.7369
50.7365
50.736
50.7356
50.7352
50.7348
50.7345
50.7341
50.7337
50.7333
50.733
50.7326
50.7323
50.732
50.7316
50.7313
50.731
50.7307
50.7304
50.7301
50.7298
50.7295
50.7292
50.7288
50.7285
50.7282
50.7278
50.7274
50.727
50.7266
50.7262
50.7258
50.7253
50.7248
50.7243
50.7238
50.7233
50.7227
50.7222
50.7216
50.721
50.7204
50.7198
50.7192
50.7186
50.718
50.7173
50.7167
50.7161
50.7155
50.7149
50.7143
50.7137
50.7132
50.7126
50.7121
50.7116
50.7112
50.7107
50.7103
50.7099
50.7096
50.7092
50.7089
50.7086
50.7083
50.708
50.7077
50.7075
50.7072
50.7069
50.7066
50.7063
50.706
50.7056
50.7052
50.7048
50.7043
50.7039
50.7034
50.7029
50.7023
50.7018
50.7012
50.7007
50.7001
50.6995
50.6989
50.6982
50.6976
50.6969
50.6963
50.6948
50.6978
50.7068
50.7197
50.728
50.7288
50.7276
50.7274
50.7276
50.728
50.7281
50.7283
50.7284
50.7284
50.7285
50.7285
50.7284
50.7283
50.7282
50.728
50.7279
50.7277
50.7275
50.7274
50.7272
50.7271
50.7271
50.727
50.727
50.7269
50.7269
50.7268
50.7267
50.7266
50.7264
50.7262
50.7261
50.726
50.7258
50.7256
50.7254
50.7251
50.7249
50.7247
50.7245
50.7244
50.7244
50.7245
50.7251
50.7274
50.7311
50.7345
50.7372
50.7394
50.7409
50.7419
50.7426
50.743
50.7433
50.7435
50.7437
50.7438
50.7439
50.7441
50.7443
50.7447
50.7452
50.7458
50.7464
50.7469
50.7473
50.7475
50.7475
50.7475
50.7474
50.7472
50.747
50.7468
50.7466
50.7464
50.7462
50.7459
50.7457
50.7455
50.7452
50.745
50.7447
50.7444
50.7441
50.7439
50.7436
50.7432
50.7429
50.7426
50.7423
50.7419
50.7416
50.7412
50.7408
50.7405
50.7401
50.7397
50.7393
50.7389
50.7385
50.7381
50.7377
50.7373
50.7369
50.7365
50.736
50.7356
50.7352
50.7348
50.7345
50.7341
50.7337
50.7333
50.733
50.7326
50.7323
50.732
50.7316
50.7313
50.731
50.7307
50.7304
50.7301
50.7298
50.7295
50.7292
50.7288
50.7285
50.7282
50.7278
50.7274
50.727
50.7266
50.7262
50.7258
50.7253
50.7248
50.7243
50.7238
50.7233
50.7227
50.7222
50.7216
50.721
50.7204
50.7198
50.7192
50.7186
50.718
50.7173
50.7167
50.7161
50.7155
50.7149
50.7143
50.7137
50.7132
50.7126
50.7121
50.7116
50.7112
50.7107
50.7103
50.7099
50.7096
50.7092
50.7089
50.7086
50.7083
50.708
50.7077
50.7075
50.7072
50.7069
50.7066
50.7063
50.706
50.7056
50.7052
50.7048
50.7043
50.7039
50.7034
50.7029
50.7023
50.7018
50.7012
50.7007
50.7001
50.6995
50.6989
50.6983
50.6976
50.697
50.6963
50.6957
50.695
50.7505
50.7479
50.7472
50.746
50.7449
50.7446
50.7446
50.7448
50.7448
50.7448
50.7448
50.7448
50.7448
50.7447
50.7447
50.7446
50.7445
50.7444
50.7443
50.7441
50.744
50.7439
50.7439
50.7438
50.7437
50.7437
50.7436
50.7436
50.7435
50.7434
50.7434
50.7433
50.7432
50.7431
50.7431
50.7431
50.743
50.743
50.743
50.743
50.743
50.743
50.743
50.743
50.743
50.743
50.743
50.7431
50.7431
50.7431
50.743
50.7428
50.7426
50.7424
50.7421
50.7416
50.7411
50.7408
50.7407
50.7405
50.7396
50.737
50.7347
50.7336
50.7334
50.7339
50.7359
50.7406
50.7446
50.7471
50.7484
50.7488
50.7488
50.7485
50.7482
50.7477
50.7473
50.7469
50.7465
50.7462
50.7459
50.7456
50.7453
50.745
50.7447
50.7445
50.7442
50.7439
50.7436
50.7433
50.7429
50.7426
50.7423
50.7419
50.7416
50.7412
50.7408
50.7405
50.7401
50.7397
50.7393
50.7389
50.7385
50.7381
50.7377
50.7373
50.7369
50.7365
50.736
50.7356
50.7352
50.7348
50.7345
50.7341
50.7337
50.7333
50.733
50.7326
50.7323
50.732
50.7316
50.7313
50.731
50.7307
50.7304
50.7301
50.7298
50.7295
50.7292
50.7288
50.7285
50.7282
50.7278
50.7274
50.727
50.7266
50.7262
50.7258
50.7253
50.7248
50.7243
50.7238
50.7233
50.7227
50.7222
50.7216
50.721
50.7204
50.7198
50.7192
50.7186
50.718
50.7173
50.7167
50.7161
50.7155
50.7149
50.7143
50.7137
50.7132
50.7126
50.7121
50.7116
50.7112
50.7107
50.7103
50.7099
50.7096
50.7092
50.7089
50.7086
50.7083
50.708
50.7077
50.7075
50.7072
50.7069
50.7066
50.7063
50.706
50.7056
50.7052
50.7048
50.7043
50.7039
50.7034
50.7029
50.7023
50.7018
50.7012
50.7007
50.7001
50.6995
50.6989
50.6983
50.6976
50.697
50.6964
50.6961
50.6943
50.7351
50.7385
50.7386
50.7377
50.7366
50.7364
50.7364
50.7366
50.7367
50.7367
50.7367
50.7368
50.7368
50.7367
50.7367
50.7367
50.7366
50.7365
50.7365
50.7364
50.7364
50.7363
50.7362
50.7362
50.7361
50.736
50.736
50.7359
50.7358
50.7357
50.7357
50.7356
50.7355
50.7355
50.7354
50.7354
50.7354
50.7354
50.7355
50.7355
50.7355
50.7355
50.7355
50.7355
50.7355
50.7356
50.7356
50.7356
50.7355
50.7354
50.7353
50.7351
50.7348
50.7344
50.7343
50.7343
50.7345
50.7347
50.7345
50.7321
50.7238
50.716
50.7124
50.7119
50.7131
50.7189
50.7279
50.7347
50.7394
50.7426
50.7446
50.7457
50.7464
50.7466
50.7467
50.7466
50.7465
50.7463
50.7461
50.7459
50.7456
50.7454
50.7451
50.7449
50.7446
50.7443
50.7441
50.7438
50.7435
50.7432
50.7428
50.7425
50.7422
50.7418
50.7415
50.7411
50.7408
50.7404
50.74
50.7396
50.7392
50.7388
50.7384
50.738
50.7376
50.7372
50.7368
50.7364
50.736
50.7356
50.7352
50.7348
50.7344
50.734
50.7336
50.7333
50.7329
50.7325
50.7322
50.7319
50.7316
50.7312
50.7309
50.7306
50.7303
50.73
50.7297
50.7294
50.7291
50.7288
50.7284
50.7281
50.7277
50.7273
50.727
50.7266
50.7261
50.7257
50.7252
50.7247
50.7242
50.7237
50.7232
50.7226
50.7221
50.7215
50.7209
50.7203
50.7197
50.7191
50.7185
50.7179
50.7173
50.7166
50.716
50.7154
50.7148
50.7142
50.7136
50.7131
50.7125
50.712
50.7115
50.7111
50.7106
50.7102
50.7098
50.7095
50.7091
50.7088
50.7085
50.7082
50.7079
50.7077
50.7074
50.7071
50.7068
50.7065
50.7062
50.7059
50.7055
50.7051
50.7047
50.7043
50.7038
50.7033
50.7028
50.7023
50.7017
50.7011
50.7006
50.7
50.6994
50.6988
50.6982
50.6975
50.6969
50.6963
50.696
50.694
50.665
50.652
50.6472
50.6461
50.6437
50.6386
50.6317
50.6245
50.6163
50.6082
50.6
50.5916
50.5839
50.5764
50.5698
50.5633
50.5577
50.5524
50.5487
50.5467
50.6738
50.6704
50.6708
50.6719
50.6705
50.6667
50.6606
50.6552
50.6477
50.6415
50.6344
50.6273
50.6206
50.6149
50.6093
50.6039
50.5992
50.5949
50.5916
50.5892
50.6952
50.695
50.6938
50.6916
50.6888
50.6852
50.6808
50.6755
50.67
50.6638
50.6572
50.6494
50.6404
50.6307
50.6197
50.6076
50.5962
50.586
50.5776
50.5688
50.7059
50.7092
50.7089
50.7072
50.7056
50.7043
50.7036
50.7032
50.7002
50.6935
50.6861
50.6801
50.6751
50.6718
50.6752
50.6864
50.6923
50.687
50.6704
50.6486
50.7093
50.7159
50.7165
50.7146
50.7129
50.7115
50.7107
50.7101
50.7075
50.7014
50.6938
50.6874
50.6822
50.6786
50.6819
50.6916
50.6994
50.697
50.685
50.6638
50.5691
50.5734
50.5717
50.5699
50.5686
50.5675
50.5668
50.5662
50.5657
50.5652
50.5646
50.5641
50.5637
50.5632
50.5628
50.5624
50.5621
50.5617
50.5614
50.5611
50.5608
50.5605
50.5603
50.56
50.5598
50.5595
50.5592
50.559
50.5587
50.5585
50.5582
50.5579
50.5577
50.5574
50.5571
50.5568
50.5565
50.5563
50.556
50.5556
50.5553
50.5549
50.5545
50.5541
50.5537
50.5533
50.5529
50.5524
50.5519
50.5512
50.5505
50.5499
50.5492
50.5485
50.5477
50.5471
50.5466
50.5463
50.546
50.5454
50.5432
50.5353
50.5266
50.5222
50.5211
50.5217
50.5263
50.5351
50.5419
50.5468
50.55
50.5521
50.5533
50.5539
50.5542
50.5543
50.5543
50.5541
50.5539
50.5537
50.5534
50.5531
50.5528
50.5525
50.5521
50.5518
50.5515
50.5511
50.5507
50.5504
50.55
50.5497
50.5493
50.549
50.5487
50.5483
50.5479
50.5477
50.5461
50.5537
50.5842
50.5824
50.5801
50.578
50.5765
50.5754
50.5746
50.5739
50.5734
50.573
50.5725
50.5719
50.5714
50.571
50.5706
50.5701
50.5697
50.5694
50.569
50.5687
50.5684
50.5681
50.5678
50.5675
50.5672
50.567
50.5667
50.5664
50.5662
50.5659
50.5656
50.5653
50.5651
50.5648
50.5645
50.5642
50.5639
50.5636
50.5633
50.563
50.5626
50.5623
50.5619
50.5614
50.561
50.5606
50.5602
50.5597
50.5592
50.5587
50.5581
50.5575
50.5567
50.5559
50.5553
50.5546
50.5538
50.5527
50.552
50.5514
50.5509
50.5498
50.5472
50.5443
50.5428
50.5423
50.5424
50.5437
50.5478
50.5519
50.5545
50.5558
50.5564
50.5564
50.5562
50.5559
50.5554
50.555
50.5545
50.5541
50.5537
50.5534
50.553
50.5527
50.5523
50.5519
50.5516
50.5512
50.5508
50.5505
50.5501
50.5498
50.5494
50.5491
50.5487
50.5484
50.548
50.5477
50.5465
50.5494
50.5454
50.5545
50.5604
50.5608
50.5595
50.5585
50.5579
50.5573
50.5569
50.5564
50.556
50.5556
50.5553
50.555
50.5546
50.5543
50.5539
50.5536
50.5532
50.5529
50.5525
50.5522
50.5519
50.5515
50.5512
50.551
50.5507
50.5504
50.5501
50.5498
50.5495
50.5492
50.5488
50.5484
50.548
50.5476
50.5472
50.5468
50.5464
50.5459
50.5454
50.5447
50.5441
50.5435
50.543
50.5425
50.5421
50.5421
50.5436
50.5466
50.5493
50.5515
50.553
50.554
50.5545
50.5547
50.5546
50.5544
50.5542
50.554
50.5538
50.5536
50.5534
50.5533
50.5534
50.5537
50.5541
50.5545
50.5548
50.5551
50.5552
50.5552
50.5552
50.555
50.5549
50.5547
50.5544
50.5542
50.554
50.5537
50.5535
50.5532
50.5529
50.5525
50.5522
50.5519
50.5515
50.5512
50.5508
50.5505
50.5501
50.5498
50.5494
50.5491
50.5487
50.5484
50.548
50.5477
50.5474
50.547
50.5834
50.5763
50.5905
50.5845
50.5776
50.5757
50.5751
50.5743
50.5731
50.5724
50.572
50.5714
50.5709
50.5704
50.57
50.5697
50.5693
50.5689
50.5686
50.5683
50.568
50.5677
50.5674
50.567
50.5667
50.5664
50.5661
50.5658
50.5655
50.5653
50.565
50.5647
50.5644
50.5641
50.5639
50.5636
50.5632
50.5629
50.5626
50.5622
50.5619
50.5615
50.5611
50.5606
50.56
50.5594
50.5589
50.5583
50.5578
50.5573
50.5567
50.5561
50.5554
50.5545
50.5537
50.5531
50.5527
50.5523
50.5519
50.5517
50.5515
50.5513
50.551
50.5496
50.5443
50.5365
50.5319
50.5305
50.531
50.5354
50.5444
50.5509
50.5545
50.5561
50.5565
50.5563
50.556
50.5554
50.5548
50.5543
50.5539
50.5535
50.5531
50.5527
50.5523
50.552
50.5516
50.5512
50.5509
50.5505
50.5501
50.5498
50.5494
50.5491
50.5487
50.5484
50.5481
50.5477
50.5478
50.5465
50.5879
50.5758
50.5909
50.5851
50.5782
50.5767
50.5761
50.5754
50.5742
50.5734
50.5731
50.5726
50.572
50.5715
50.5711
50.5708
50.5704
50.57
50.5696
50.5693
50.569
50.5687
50.5684
50.5681
50.5678
50.5675
50.5672
50.5669
50.5666
50.5664
50.5661
50.5658
50.5655
50.5652
50.565
50.5647
50.5644
50.564
50.5637
50.5633
50.563
50.5626
50.5623
50.5619
50.5614
50.5608
50.5603
50.5597
50.5592
50.5587
50.5583
50.5578
50.5572
50.5566
50.5558
50.5551
50.5546
50.5542
50.5538
50.5535
50.5533
50.5531
50.5529
50.5525
50.5509
50.5441
50.533
50.5267
50.5253
50.5266
50.5346
50.5463
50.5534
50.5568
50.5578
50.5576
50.5571
50.5561
50.5552
50.5545
50.554
50.5535
50.5531
50.5527
50.5523
50.5519
50.5515
50.5511
50.5508
50.5504
50.5501
50.5497
50.5494
50.549
50.5487
50.5483
50.548
50.5477
50.5477
50.5462
50.5182
50.5056
50.5009
50.4998
50.4975
50.4925
50.4858
50.4788
50.4708
50.463
50.4549
50.4468
50.4394
50.432
50.4255
50.4191
50.4136
50.4084
50.4047
50.4028
50.5267
50.5235
50.5239
50.525
50.5237
50.52
50.5141
50.5088
50.5015
50.4956
50.4886
50.4817
50.4752
50.4697
50.4641
50.4589
50.4542
50.4499
50.4466
50.4443
50.5474
50.5473
50.5462
50.5441
50.5414
50.5379
50.5338
50.5286
50.5233
50.5174
50.5109
50.5032
50.4945
50.4849
50.474
50.4623
50.4516
50.4421
50.4342
50.4255
50.5577
50.5611
50.5609
50.5593
50.5579
50.5567
50.5562
50.5555
50.5521
50.545
50.5384
50.533
50.5285
50.5264
50.5325
50.5432
50.5468
50.5384
50.5198
50.4987
50.561
50.5676
50.5683
50.5665
50.565
50.5637
50.5631
50.5623
50.5592
50.5528
50.5458
50.5401
50.5354
50.533
50.5386
50.5486
50.5543
50.549
50.5347
50.5136
50.4248
50.4292
50.4281
50.4265
50.4254
50.4246
50.4241
50.4237
50.4235
50.4233
50.423
50.4228
50.4226
50.4225
50.4224
50.4222
50.4221
50.422
50.4218
50.4217
50.4216
50.4215
50.4215
50.4214
50.4214
50.4214
50.4215
50.4215
50.4216
50.4217
50.4219
50.422
50.4222
50.4224
50.4226
50.4228
50.423
50.4232
50.4235
50.4237
50.4239
50.4241
50.4244
50.4247
50.4249
50.4251
50.4253
50.4255
50.4255
50.4256
50.4257
50.4256
50.4254
50.4254
50.4256
50.426
50.4264
50.4266
50.425
50.418
50.41
50.4062
50.4058
50.4072
50.4125
50.4221
50.4296
50.4352
50.4391
50.4418
50.4437
50.4451
50.4462
50.447
50.4478
50.4485
50.4491
50.4498
50.4505
50.4512
50.4519
50.4526
50.4534
50.4542
50.455
50.4558
50.4567
50.4575
50.4584
50.4593
50.4602
50.4612
50.4621
50.4631
50.4641
50.4651
50.4661
50.4672
50.4682
50.4693
50.4704
50.4715
50.4727
50.4738
50.475
50.4762
50.4774
50.4787
50.48
50.4813
50.4826
50.484
50.4854
50.4869
50.4883
50.4899
50.4914
50.493
50.4946
50.4962
50.4979
50.4996
50.5014
50.5031
50.5049
50.5067
50.5086
50.5105
50.5124
50.5143
50.5162
50.5182
50.5202
50.5222
50.5243
50.5264
50.5285
50.5306
50.5328
50.535
50.5373
50.5395
50.5418
50.5442
50.5466
50.549
50.5514
50.5539
50.5564
50.559
50.5616
50.5642
50.5668
50.5695
50.5723
50.5751
50.5779
50.5808
50.5837
50.5866
50.5896
50.5927
50.5958
50.5989
50.6021
50.6054
50.6087
50.612
50.6153
50.6188
50.6222
50.6257
50.6292
50.6327
50.6363
50.6398
50.6434
50.647
50.6507
50.6543
50.658
50.6617
50.6654
50.6691
50.6729
50.6767
50.6805
50.6843
50.6883
50.6922
50.6962
50.7001
50.7043
50.7083
50.7126
50.7166
50.7211
50.7251
50.73
50.7335
50.4394
50.438
50.4362
50.4345
50.4333
50.4324
50.4318
50.4314
50.4312
50.431
50.4307
50.4305
50.4303
50.4301
50.4299
50.4297
50.4296
50.4295
50.4293
50.4292
50.4291
50.429
50.4289
50.4289
50.4289
50.4289
50.4289
50.429
50.4291
50.4292
50.4293
50.4295
50.4296
50.4298
50.43
50.4302
50.4304
50.4306
50.4309
50.4311
50.4313
50.4315
50.4317
50.432
50.4322
50.4324
50.4326
50.4328
50.433
50.4331
50.4331
50.433
50.433
50.4331
50.4328
50.4326
50.4325
50.4327
50.4329
50.4324
50.4303
50.4283
50.4275
50.4278
50.4287
50.431
50.436
50.4406
50.4438
50.4457
50.4468
50.4475
50.4481
50.4485
50.4489
50.4493
50.4497
50.4502
50.4508
50.4514
50.4521
50.4528
50.4535
50.4543
50.4551
50.4559
50.4568
50.4576
50.4585
50.4594
50.4603
50.4613
50.4622
50.4632
50.4642
50.4652
50.4662
50.4673
50.4683
50.4694
50.4705
50.4716
50.4728
50.4739
50.4751
50.4763
50.4775
50.4788
50.4801
50.4814
50.4827
50.4841
50.4855
50.487
50.4884
50.4899
50.4915
50.4931
50.4947
50.4963
50.498
50.4997
50.5014
50.5032
50.505
50.5068
50.5087
50.5106
50.5124
50.5144
50.5163
50.5183
50.5203
50.5223
50.5244
50.5265
50.5286
50.5307
50.5329
50.5351
50.5373
50.5396
50.5419
50.5443
50.5466
50.5491
50.5515
50.554
50.5565
50.5591
50.5616
50.5643
50.5669
50.5696
50.5724
50.5752
50.578
50.5809
50.5838
50.5867
50.5897
50.5928
50.5959
50.599
50.6022
50.6055
50.6087
50.6121
50.6154
50.6188
50.6223
50.6257
50.6292
50.6328
50.6363
50.6399
50.6435
50.6471
50.6508
50.6544
50.6581
50.6618
50.6655
50.6692
50.673
50.6767
50.6806
50.6844
50.6883
50.6922
50.6963
50.7002
50.7044
50.7083
50.7127
50.7167
50.7212
50.7252
50.7301
50.7335
50.4011
50.4105
50.4169
50.4176
50.4166
50.4159
50.4156
50.4154
50.4153
50.4151
50.4149
50.4147
50.4145
50.4143
50.414
50.4138
50.4136
50.4135
50.4133
50.4132
50.4131
50.413
50.413
50.4129
50.4129
50.4129
50.413
50.4131
50.4131
50.4133
50.4134
50.4135
50.4136
50.4136
50.4137
50.4139
50.414
50.414
50.4139
50.4138
50.4137
50.4137
50.4138
50.414
50.4142
50.4146
50.416
50.4193
50.4229
50.426
50.4285
50.4304
50.4318
50.4328
50.4335
50.4341
50.4347
50.4352
50.4357
50.4362
50.4368
50.4374
50.4382
50.4392
50.4403
50.4414
50.4424
50.4434
50.4442
50.4449
50.4456
50.4462
50.4467
50.4473
50.4479
50.4486
50.4492
50.4499
50.4505
50.4512
50.452
50.4527
50.4535
50.4543
50.4551
50.4559
50.4567
50.4576
50.4585
50.4594
50.4603
50.4613
50.4622
50.4632
50.4642
50.4652
50.4662
50.4673
50.4683
50.4694
50.4705
50.4716
50.4728
50.4739
50.4751
50.4763
50.4775
50.4788
50.4801
50.4814
50.4827
50.4841
50.4855
50.487
50.4884
50.4899
50.4915
50.4931
50.4947
50.4963
50.498
50.4997
50.5014
50.5032
50.505
50.5068
50.5087
50.5106
50.5125
50.5144
50.5163
50.5183
50.5203
50.5223
50.5244
50.5265
50.5286
50.5307
50.5329
50.5351
50.5373
50.5396
50.5419
50.5443
50.5466
50.5491
50.5515
50.554
50.5565
50.5591
50.5616
50.5643
50.5669
50.5696
50.5724
50.5752
50.578
50.5809
50.5838
50.5867
50.5897
50.5928
50.5959
50.599
50.6022
50.6055
50.6087
50.6121
50.6154
50.6188
50.6223
50.6257
50.6292
50.6328
50.6363
50.6399
50.6435
50.6471
50.6508
50.6544
50.6581
50.6618
50.6655
50.6692
50.673
50.6767
50.6806
50.6844
50.6883
50.6922
50.6963
50.7002
50.7044
50.7084
50.7126
50.7168
50.721
50.7254
50.7296
50.7338
50.4382
50.4344
50.4463
50.4397
50.434
50.4328
50.4324
50.4317
50.4309
50.4306
50.4305
50.4302
50.4299
50.4296
50.4295
50.4293
50.4291
50.4289
50.4288
50.4286
50.4285
50.4284
50.4283
50.4283
50.4283
50.4283
50.4283
50.4284
50.4284
50.4286
50.4287
50.4289
50.429
50.4292
50.4294
50.4296
50.4298
50.43
50.4302
50.4304
50.4306
50.4308
50.431
50.431
50.4311
50.4312
50.4314
50.4316
50.4317
50.4319
50.432
50.4319
50.4316
50.4315
50.4316
50.4318
50.4321
50.4326
50.4331
50.4337
50.434
50.4333
50.4285
50.4216
50.418
50.4177
50.4193
50.4252
50.4348
50.4415
50.4454
50.4474
50.4484
50.449
50.4494
50.4496
50.45
50.4504
50.4509
50.4515
50.4522
50.4528
50.4536
50.4543
50.4551
50.4559
50.4568
50.4576
50.4585
50.4594
50.4603
50.4613
50.4622
50.4632
50.4642
50.4652
50.4662
50.4673
50.4683
50.4694
50.4705
50.4716
50.4728
50.4739
50.4751
50.4763
50.4775
50.4788
50.4801
50.4814
50.4827
50.4841
50.4855
50.487
50.4884
50.4899
50.4915
50.4931
50.4947
50.4963
50.498
50.4997
50.5014
50.5032
50.505
50.5068
50.5087
50.5106
50.5124
50.5144
50.5163
50.5183
50.5203
50.5223
50.5244
50.5265
50.5286
50.5307
50.5329
50.5351
50.5373
50.5396
50.5419
50.5443
50.5466
50.5491
50.5515
50.554
50.5565
50.5591
50.5616
50.5643
50.5669
50.5696
50.5724
50.5752
50.578
50.5809
50.5838
50.5867
50.5897
50.5928
50.5959
50.599
50.6022
50.6055
50.6087
50.6121
50.6154
50.6188
50.6223
50.6257
50.6292
50.6328
50.6363
50.6399
50.6435
50.6471
50.6508
50.6544
50.6581
50.6618
50.6655
50.6692
50.673
50.6768
50.6806
50.6844
50.6883
50.6923
50.6962
50.7003
50.7042
50.7085
50.7125
50.7169
50.7209
50.7254
50.7287
50.7357
50.4425
50.434
50.4467
50.4403
50.4347
50.4337
50.4334
50.4327
50.4319
50.4316
50.4314
50.4311
50.4308
50.4306
50.4304
50.4303
50.4301
50.4299
50.4298
50.4297
50.4296
50.4295
50.4294
50.4293
50.4293
50.4293
50.4294
50.4294
50.4295
50.4296
50.4297
50.4299
50.4301
50.4303
50.4304
50.4306
50.4308
50.431
50.4313
50.4315
50.4317
50.4319
50.4321
50.4323
50.4324
50.4325
50.4326
50.4328
50.433
50.4333
50.4335
50.4337
50.4338
50.4337
50.4337
50.4338
50.4341
50.4344
50.4349
50.4355
50.436
50.4363
50.4349
50.4277
50.4177
50.4131
50.413
50.4159
50.4263
50.438
50.445
50.4484
50.4497
50.4503
50.4504
50.4502
50.4503
50.4506
50.451
50.4515
50.4521
50.4528
50.4535
50.4543
50.455
50.4559
50.4567
50.4575
50.4584