/*--------------------------------*- C++ -*----------------------------------*\
| =========                 |                                                 |
| \\      /  F ield         | OpenFOAM: The Open Source CFD Toolbox           |
|  \\    /   O peration     | Version:  3.0.x                                 |
|   \\  /    A nd           | Web:      www.OpenFOAM.org                      |
|    \\/     M anipulation  |                                                 |
\*---------------------------------------------------------------------------*/
FoamFile
{
    version     2.0;
    format      ascii;
    class       volScalarField;
    location    "0.29";
    object      T;
}
// * * * * * * * * * * * * * * * * * * * * * * * * * * * * * * * * * * * * * //

dimensions      [0 0 0 1 0 0 0];

internalField   nonuniform List<scalar> 
6900
(
774.442
774.442
774.442
774.442
774.442
774.441
774.439
774.437
774.433
774.43
774.428
774.427
774.426
774.425
774.425
774.425
774.424
774.422
774.42
774.417
774.414
774.411
774.407
774.403
774.4
774.397
774.395
774.393
774.392
774.392
774.391
774.391
774.389
774.387
774.384
774.381
774.378
774.376
774.374
774.373
774.372
774.371
774.37
774.37
774.37
774.37
774.369
774.369
774.369
774.369
774.369
774.369
774.369
774.368
774.368
774.368
774.368
774.368
774.368
774.367
774.367
774.367
774.366
774.366
774.366
774.365
774.365
774.364
774.363
774.363
774.362
774.361
774.361
774.36
774.359
774.358
774.357
774.356
774.355
774.354
774.353
774.352
774.351
774.35
774.349
774.348
774.347
774.346
774.345
774.344
774.343
774.342
774.34
774.339
774.338
774.337
774.336
774.335
774.334
774.333
774.331
774.33
774.329
774.328
774.326
774.325
774.323
774.322
774.32
774.318
774.317
774.315
774.314
774.312
774.31
774.309
774.307
774.305
774.304
774.302
774.3
774.299
774.297
774.296
774.294
774.293
774.292
774.29
774.289
774.287
774.286
774.285
774.283
774.282
774.28
774.279
774.277
774.275
774.274
774.272
774.27
774.268
774.266
774.264
774.262
774.26
774.258
774.256
774.254
774.252
774.25
774.248
774.246
774.244
774.242
774.241
774.239
774.238
774.236
774.235
774.234
774.233
774.232
774.231
774.231
774.23
774.23
774.229
774.229
774.228
774.228
774.227
774.227
774.226
774.226
774.225
774.224
774.223
774.222
774.221
774.22
774.22
774.219
774.218
774.217
774.216
774.215
774.215
774.214
774.213
774.213
774.212
774.212
774.212
774.211
774.211
774.211
774.213
774.213
774.283
774.44
774.44
774.44
774.44
774.44
774.439
774.437
774.435
774.431
774.428
774.426
774.425
774.424
774.423
774.423
774.423
774.422
774.42
774.418
774.416
774.412
774.409
774.405
774.402
774.398
774.396
774.393
774.391
774.39
774.39
774.39
774.389
774.388
774.385
774.382
774.38
774.377
774.374
774.372
774.371
774.37
774.369
774.369
774.369
774.368
774.368
774.368
774.368
774.368
774.368
774.367
774.367
774.367
774.367
774.367
774.367
774.367
774.366
774.366
774.366
774.366
774.365
774.365
774.365
774.364
774.364
774.363
774.363
774.362
774.361
774.361
774.36
774.359
774.358
774.358
774.357
774.356
774.355
774.354
774.353
774.352
774.351
774.35
774.349
774.347
774.346
774.345
774.344
774.343
774.342
774.341
774.34
774.339
774.338
774.337
774.336
774.335
774.334
774.333
774.331
774.33
774.329
774.328
774.326
774.325
774.323
774.322
774.32
774.319
774.317
774.316
774.314
774.312
774.311
774.309
774.307
774.306
774.304
774.302
774.301
774.299
774.298
774.296
774.295
774.293
774.292
774.29
774.289
774.287
774.286
774.285
774.283
774.282
774.28
774.279
774.277
774.276
774.274
774.272
774.27
774.269
774.267
774.265
774.263
774.261
774.259
774.257
774.255
774.253
774.251
774.249
774.247
774.245
774.243
774.241
774.24
774.238
774.236
774.235
774.234
774.233
774.232
774.231
774.23
774.229
774.229
774.228
774.228
774.227
774.227
774.226
774.226
774.225
774.225
774.224
774.224
774.223
774.222
774.221
774.22
774.219
774.218
774.217
774.217
774.216
774.215
774.214
774.213
774.213
774.212
774.211
774.211
774.211
774.21
774.21
774.21
774.21
774.212
774.212
774.276
774.44
774.44
774.44
774.44
774.44
774.439
774.438
774.435
774.431
774.428
774.426
774.425
774.424
774.424
774.423
774.423
774.422
774.42
774.418
774.416
774.412
774.409
774.405
774.402
774.398
774.396
774.393
774.391
774.39
774.39
774.39
774.389
774.388
774.385
774.382
774.38
774.377
774.374
774.373
774.371
774.37
774.369
774.369
774.369
774.368
774.368
774.368
774.368
774.368
774.368
774.367
774.367
774.367
774.367
774.367
774.367
774.367
774.366
774.366
774.366
774.366
774.365
774.365
774.365
774.364
774.364
774.363
774.363
774.362
774.361
774.361
774.36
774.359
774.358
774.358
774.357
774.356
774.355
774.354
774.353
774.352
774.351
774.35
774.349
774.347
774.346
774.345
774.344
774.343
774.342
774.341
774.34
774.339
774.338
774.337
774.336
774.335
774.334
774.333
774.331
774.33
774.329
774.328
774.326
774.325
774.323
774.322
774.32
774.319
774.317
774.316
774.314
774.312
774.311
774.309
774.307
774.306
774.304
774.302
774.301
774.299
774.298
774.296
774.295
774.293
774.292
774.29
774.289
774.287
774.286
774.285
774.283
774.282
774.28
774.279
774.277
774.276
774.274
774.272
774.27
774.269
774.267
774.265
774.263
774.261
774.259
774.257
774.255
774.253
774.251
774.249
774.247
774.245
774.243
774.241
774.24
774.238
774.236
774.235
774.234
774.233
774.232
774.231
774.23
774.229
774.229
774.228
774.228
774.227
774.227
774.226
774.226
774.225
774.225
774.224
774.224
774.223
774.222
774.221
774.22
774.219
774.218
774.217
774.217
774.216
774.215
774.214
774.213
774.213
774.212
774.212
774.211
774.211
774.21
774.21
774.21
774.21
774.21
774.211
774.215
774.44
774.44
774.44
774.44
774.44
774.439
774.437
774.435
774.431
774.428
774.426
774.425
774.424
774.423
774.423
774.423
774.422
774.42
774.418
774.416
774.412
774.409
774.405
774.402
774.398
774.396
774.393
774.391
774.39
774.39
774.39
774.389
774.388
774.385
774.382
774.38
774.377
774.374
774.372
774.371
774.37
774.369
774.369
774.369
774.368
774.368
774.368
774.368
774.368
774.368
774.367
774.367
774.367
774.367
774.367
774.367
774.367
774.366
774.366
774.366
774.366
774.365
774.365
774.365
774.364
774.364
774.363
774.363
774.362
774.361
774.361
774.36
774.359
774.358
774.358
774.357
774.356
774.355
774.354
774.353
774.352
774.351
774.35
774.349
774.347
774.346
774.345
774.344
774.343
774.342
774.341
774.34
774.339
774.338
774.337
774.336
774.335
774.334
774.333
774.331
774.33
774.329
774.328
774.326
774.325
774.323
774.322
774.32
774.319
774.317
774.316
774.314
774.312
774.311
774.309
774.307
774.306
774.304
774.302
774.301
774.299
774.298
774.296
774.295
774.293
774.292
774.29
774.289
774.287
774.286
774.285
774.283
774.282
774.28
774.279
774.277
774.276
774.274
774.272
774.27
774.269
774.267
774.265
774.263
774.261
774.259
774.257
774.255
774.253
774.251
774.249
774.247
774.245
774.243
774.241
774.24
774.238
774.236
774.235
774.234
774.233
774.232
774.231
774.23
774.229
774.229
774.228
774.228
774.227
774.227
774.226
774.226
774.225
774.225
774.224
774.223
774.223
774.222
774.221
774.22
774.219
774.218
774.217
774.217
774.216
774.215
774.214
774.213
774.213
774.212
774.212
774.211
774.211
774.21
774.21
774.21
774.21
774.208
774.213
774.089
774.442
774.442
774.442
774.442
774.442
774.441
774.439
774.437
774.433
774.43
774.428
774.427
774.426
774.425
774.425
774.425
774.424
774.422
774.42
774.417
774.414
774.411
774.407
774.403
774.4
774.397
774.395
774.393
774.392
774.392
774.391
774.391
774.389
774.387
774.384
774.381
774.378
774.376
774.374
774.373
774.372
774.371
774.37
774.37
774.37
774.37
774.369
774.369
774.369
774.369
774.369
774.369
774.369
774.368
774.368
774.368
774.368
774.368
774.368
774.367
774.367
774.367
774.366
774.366
774.366
774.365
774.365
774.364
774.363
774.363
774.362
774.361
774.361
774.36
774.359
774.358
774.357
774.356
774.355
774.354
774.353
774.352
774.351
774.35
774.349
774.348
774.347
774.346
774.345
774.344
774.343
774.342
774.34
774.339
774.338
774.337
774.336
774.335
774.334
774.333
774.331
774.33
774.329
774.328
774.326
774.325
774.323
774.322
774.32
774.318
774.317
774.315
774.314
774.312
774.31
774.309
774.307
774.305
774.304
774.302
774.3
774.299
774.297
774.296
774.294
774.293
774.292
774.29
774.289
774.287
774.286
774.285
774.283
774.282
774.28
774.279
774.277
774.275
774.274
774.272
774.27
774.268
774.266
774.264
774.262
774.26
774.258
774.256
774.254
774.252
774.25
774.248
774.246
774.244
774.242
774.241
774.239
774.238
774.236
774.235
774.234
774.233
774.232
774.231
774.231
774.23
774.23
774.229
774.229
774.228
774.228
774.227
774.227
774.226
774.226
774.225
774.224
774.223
774.222
774.221
774.221
774.22
774.219
774.218
774.217
774.216
774.216
774.215
774.214
774.213
774.213
774.212
774.212
774.212
774.211
774.211
774.212
774.208
774.222
774.002
774.268
774.282
774.28
774.28
774.277
774.276
774.276
774.278
774.271
774.257
774.249
774.228
774.197
774.188
774.193
774.205
774.214
774.203
774.131
774.008
774.255
774.258
774.257
774.252
774.248
774.244
774.242
774.243
774.233
774.215
774.21
774.191
774.151
774.129
774.135
774.149
774.159
774.147
774.068
773.959
774.216
774.215
774.212
774.208
774.202
774.197
774.188
774.181
774.174
774.168
774.163
774.155
774.145
774.136
774.129
774.122
774.116
774.116
774.126
774.132
774.143
774.145
774.151
774.15
774.144
774.131
774.116
774.093
774.077
774.059
774.038
774.021
774.004
773.986
773.973
773.965
773.951
773.941
773.932
773.92
774.09
774.07
774.067
774.069
774.069
774.065
774.053
774.039
774.024
774.011
773.994
773.984
773.967
773.959
773.945
773.941
773.93
773.93
773.935
773.959
773.89
773.905
773.886
773.884
773.905
773.898
773.881
773.877
773.881
773.886
773.885
773.882
773.882
773.882
773.882
773.882
773.881
773.881
773.881
773.88
773.88
773.88
773.879
773.879
773.879
773.88
773.88
773.88
773.88
773.879
773.879
773.879
773.88
773.88
773.88
773.879
773.879
773.879
773.879
773.879
773.878
773.877
773.876
773.876
773.877
773.878
773.88
773.881
773.882
773.881
773.881
773.881
773.882
773.883
773.888
773.894
773.899
773.903
773.906
773.908
773.909
773.912
773.92
773.957
774.093
774.255
774.33
774.339
774.297
774.13
773.961
773.866
773.824
773.813
773.814
773.821
773.832
773.839
773.844
773.847
773.848
773.849
773.85
773.85
773.85
773.849
773.848
773.848
773.847
773.846
773.845
773.844
773.843
773.842
773.841
773.84
773.839
773.837
773.836
773.835
773.834
773.833
773.831
773.83
773.829
773.828
773.826
773.825
773.824
773.823
773.822
773.82
773.819
773.818
773.817
773.816
773.815
773.814
773.812
773.811
773.81
773.81
773.809
773.808
773.807
773.806
773.805
773.804
773.803
773.802
773.801
773.8
773.799
773.798
773.796
773.795
773.794
773.792
773.791
773.79
773.788
773.787
773.785
773.783
773.782
773.78
773.778
773.776
773.774
773.772
773.77
773.769
773.767
773.765
773.763
773.761
773.759
773.757
773.756
773.754
773.752
773.751
773.749
773.748
773.747
773.745
773.744
773.743
773.742
773.741
773.74
773.739
773.738
773.737
773.737
773.736
773.735
773.734
773.733
773.732
773.731
773.73
773.728
773.727
773.726
773.724
773.722
773.721
773.719
773.717
773.716
773.714
773.712
773.71
773.708
773.706
773.704
773.698
773.702
773.522
773.89
773.907
773.892
773.9
773.92
773.912
773.896
773.893
773.898
773.901
773.9
773.898
773.897
773.898
773.898
773.897
773.897
773.897
773.896
773.896
773.896
773.896
773.896
773.896
773.896
773.897
773.897
773.897
773.898
773.898
773.899
773.899
773.9
773.899
773.897
773.897
773.897
773.896
773.895
773.895
773.894
773.894
773.895
773.896
773.898
773.901
773.903
773.904
773.904
773.904
773.905
773.906
773.908
773.914
773.92
773.926
773.93
773.933
773.934
773.936
773.938
773.943
773.967
774.057
774.175
774.238
774.252
774.237
774.146
774.007
773.914
773.864
773.842
773.835
773.835
773.837
773.841
773.844
773.847
773.848
773.849
773.849
773.849
773.849
773.848
773.848
773.847
773.846
773.845
773.845
773.844
773.843
773.842
773.841
773.84
773.838
773.837
773.836
773.835
773.834
773.833
773.831
773.83
773.829
773.828
773.826
773.825
773.824
773.823
773.821
773.82
773.819
773.818
773.817
773.816
773.814
773.813
773.812
773.811
773.81
773.809
773.808
773.807
773.806
773.805
773.804
773.804
773.803
773.802
773.801
773.8
773.799
773.797
773.796
773.795
773.794
773.793
773.791
773.79
773.788
773.787
773.785
773.784
773.782
773.78
773.778
773.777
773.775
773.773
773.771
773.769
773.767
773.765
773.764
773.762
773.76
773.758
773.756
773.754
773.753
773.751
773.749
773.748
773.747
773.745
773.744
773.743
773.742
773.741
773.74
773.739
773.738
773.737
773.736
773.735
773.734
773.734
773.733
773.732
773.731
773.73
773.728
773.727
773.726
773.724
773.723
773.721
773.72
773.718
773.716
773.714
773.713
773.711
773.709
773.707
773.705
773.703
773.698
773.696
773.593
774.102
774.113
774.146
774.153
774.152
774.148
774.148
774.148
774.148
774.146
774.145
774.144
774.142
774.141
774.141
774.14
774.14
774.14
774.141
774.141
774.142
774.142
774.142
774.141
774.14
774.14
774.139
774.139
774.139
774.139
774.14
774.14
774.142
774.144
774.145
774.147
774.148
774.151
774.155
774.158
774.162
774.165
774.167
774.169
774.169
774.167
774.158
774.124
774.067
774.016
773.975
773.943
773.921
773.907
773.9
773.896
773.896
773.896
773.897
773.9
773.902
773.904
773.904
773.903
773.897
773.89
773.883
773.876
773.871
773.867
773.864
773.863
773.862
773.86
773.859
773.858
773.857
773.856
773.855
773.854
773.853
773.852
773.851
773.85
773.849
773.848
773.848
773.847
773.846
773.845
773.844
773.843
773.842
773.841
773.84
773.839
773.837
773.836
773.835
773.834
773.833
773.831
773.83
773.829
773.828
773.826
773.825
773.824
773.823
773.821
773.82
773.819
773.818
773.817
773.816
773.814
773.813
773.812
773.811
773.81
773.809
773.808
773.807
773.806
773.805
773.804
773.804
773.803
773.802
773.801
773.8
773.799
773.797
773.796
773.795
773.794
773.793
773.791
773.79
773.788
773.787
773.785
773.784
773.782
773.78
773.778
773.777
773.775
773.773
773.771
773.769
773.767
773.765
773.764
773.762
773.76
773.758
773.756
773.754
773.753
773.751
773.749
773.748
773.747
773.745
773.744
773.743
773.742
773.741
773.74
773.739
773.738
773.737
773.736
773.735
773.734
773.734
773.733
773.732
773.731
773.73
773.728
773.727
773.726
773.724
773.723
773.721
773.72
773.718
773.716
773.714
773.713
773.711
773.709
773.707
773.705
773.703
773.701
773.699
773.7
773.902
773.895
773.895
773.897
773.896
773.892
773.892
773.893
773.895
773.895
773.894
773.894
773.894
773.893
773.893
773.892
773.892
773.892
773.891
773.89
773.89
773.889
773.888
773.887
773.887
773.886
773.886
773.885
773.885
773.885
773.886
773.886
773.886
773.886
773.886
773.886
773.887
773.887
773.887
773.887
773.886
773.886
773.886
773.887
773.887
773.887
773.887
773.887
773.888
773.889
773.891
773.896
773.901
773.906
773.913
773.924
773.935
773.943
773.948
773.955
773.973
774.016
774.055
774.075
774.079
774.075
774.046
773.974
773.913
773.874
773.852
773.843
773.84
773.84
773.841
773.844
773.847
773.848
773.849
773.85
773.85
773.85
773.85
773.849
773.849
773.848
773.847
773.846
773.846
773.845
773.844
773.843
773.842
773.841
773.84
773.838
773.837
773.836
773.835
773.834
773.833
773.831
773.83
773.829
773.828
773.826
773.825
773.824
773.823
773.821
773.82
773.819
773.818
773.817
773.816
773.814
773.813
773.812
773.811
773.81
773.809
773.808
773.807
773.806
773.805
773.804
773.804
773.803
773.802
773.801
773.8
773.799
773.797
773.796
773.795
773.794
773.793
773.791
773.79
773.788
773.787
773.785
773.784
773.782
773.78
773.778
773.777
773.775
773.773
773.771
773.769
773.767
773.765
773.764
773.762
773.76
773.758
773.756
773.754
773.753
773.751
773.749
773.748
773.747
773.745
773.744
773.743
773.742
773.741
773.74
773.739
773.738
773.737
773.736
773.735
773.734
773.734
773.733
773.732
773.731
773.73
773.728
773.727
773.726
773.724
773.723
773.721
773.72
773.718
773.716
773.714
773.713
773.711
773.709
773.707
773.705
773.703
773.702
773.703
773.752
774.021
774.024
774.02
774.022
774.021
774.018
774.018
774.018
774.019
774.019
774.018
774.017
774.016
774.016
774.015
774.014
774.012
774.011
774.01
774.008
774.007
774.005
774.004
774.003
774.003
774.002
774.002
774.002
774.002
774.003
774.003
774.003
774.003
774.003
774.003
774.003
774.003
774.002
774.001
774.001
774.001
774.001
774.001
774.001
774
774
774
774.001
774.004
774.006
774.009
774.014
774.02
774.027
774.032
774.035
774.035
774.037
774.044
774.084
774.213
774.337
774.395
774.406
774.389
774.302
774.167
774.064
773.992
773.942
773.91
773.89
773.877
773.869
773.864
773.861
773.859
773.857
773.856
773.855
773.854
773.853
773.852
773.851
773.851
773.85
773.849
773.848
773.847
773.846
773.845
773.844
773.843
773.842
773.841
773.84
773.839
773.837
773.836
773.835
773.834
773.833
773.831
773.83
773.829
773.828
773.826
773.825
773.824
773.823
773.822
773.82
773.819
773.818
773.817
773.816
773.815
773.814
773.812
773.811
773.81
773.81
773.809
773.808
773.807
773.806
773.805
773.804
773.803
773.802
773.801
773.8
773.799
773.798
773.796
773.795
773.794
773.792
773.791
773.79
773.788
773.787
773.785
773.783
773.782
773.78
773.778
773.776
773.774
773.772
773.77
773.769
773.767
773.765
773.763
773.761
773.759
773.757
773.756
773.754
773.752
773.751
773.749
773.748
773.747
773.745
773.744
773.743
773.742
773.741
773.74
773.739
773.738
773.737
773.737
773.736
773.735
773.734
773.733
773.732
773.731
773.73
773.728
773.727
773.725
773.724
773.722
773.721
773.719
773.717
773.716
773.714
773.712
773.71
773.708
773.707
773.704
773.704
773.704
773.757
773.584
773.564
773.557
773.559
773.557
773.551
773.538
773.528
773.509
773.499
773.481
773.469
773.453
773.443
773.429
773.423
773.413
773.415
773.421
773.454
773.632
773.632
773.637
773.635
773.628
773.613
773.596
773.581
773.559
773.543
773.522
773.507
773.494
773.473
773.458
773.447
773.434
773.425
773.416
773.413
773.699
773.698
773.695
773.69
773.683
773.676
773.669
773.662
773.654
773.646
773.636
773.627
773.62
773.612
773.608
773.613
773.615
773.61
773.587
773.571
773.737
773.74
773.738
773.735
773.73
773.727
773.72
773.71
773.699
773.683
773.664
773.662
773.673
773.689
773.667
773.605
773.58
773.573
773.547
773.505
773.749
773.763
773.761
773.76
773.759
773.757
773.753
773.746
773.736
773.721
773.709
773.711
773.72
773.733
773.709
773.668
773.638
773.622
773.577
773.531
773.511
773.509
773.508
773.502
773.492
773.49
773.489
773.488
773.485
773.482
773.481
773.48
773.479
773.478
773.476
773.475
773.474
773.472
773.471
773.469
773.467
773.465
773.463
773.462
773.46
773.459
773.458
773.457
773.456
773.455
773.454
773.453
773.452
773.452
773.451
773.45
773.448
773.447
773.446
773.445
773.444
773.443
773.442
773.441
773.439
773.437
773.436
773.435
773.435
773.437
773.439
773.44
773.441
773.443
773.448
773.451
773.452
773.451
773.451
773.455
773.486
773.602
773.733
773.798
773.813
773.802
773.729
773.594
773.487
773.411
773.359
773.325
773.303
773.29
773.281
773.276
773.272
773.27
773.268
773.267
773.265
773.264
773.263
773.262
773.261
773.26
773.259
773.258
773.257
773.256
773.254
773.253
773.252
773.251
773.25
773.249
773.248
773.243
773.247
773.076
773.392
773.388
773.387
773.38
773.371
773.369
773.37
773.369
773.367
773.363
773.362
773.362
773.361
773.359
773.358
773.357
773.356
773.355
773.354
773.353
773.351
773.35
773.349
773.348
773.346
773.345
773.344
773.343
773.342
773.341
773.341
773.34
773.339
773.338
773.337
773.336
773.336
773.335
773.334
773.333
773.332
773.33
773.33
773.329
773.328
773.327
773.325
773.324
773.323
773.322
773.322
773.323
773.326
773.331
773.333
773.336
773.342
773.352
773.359
773.363
773.368
773.382
773.419
773.459
773.481
773.487
773.484
773.462
773.397
773.333
773.291
773.267
773.255
773.251
773.251
773.252
773.254
773.257
773.259
773.26
773.26
773.26
773.26
773.259
773.259
773.258
773.257
773.256
773.255
773.254
773.253
773.252
773.251
773.25
773.249
773.248
773.247
773.243
773.241
773.144
773.57
773.614
773.626
773.621
773.618
773.619
773.621
773.62
773.617
773.615
773.613
773.61
773.607
773.604
773.602
773.599
773.597
773.596
773.595
773.594
773.594
773.593
773.592
773.591
773.591
773.59
773.589
773.588
773.588
773.587
773.587
773.587
773.587
773.588
773.59
773.591
773.591
773.592
773.592
773.593
773.595
773.598
773.601
773.602
773.602
773.602
773.599
773.59
773.559
773.504
773.453
773.411
773.378
773.355
773.339
773.329
773.324
773.32
773.319
773.319
773.319
773.319
773.319
773.319
773.316
773.309
773.302
773.295
773.288
773.283
773.278
773.275
773.274
773.272
773.271
773.27
773.269
773.268
773.267
773.266
773.265
773.263
773.262
773.261
773.26
773.259
773.258
773.257
773.255
773.254
773.253
773.252
773.251
773.25
773.249
773.248
773.247
773.246
773.245
773.246
773.374
773.385
773.396
773.413
773.389
773.368
773.37
773.38
773.382
773.375
773.37
773.369
773.369
773.368
773.366
773.363
773.362
773.361
773.359
773.358
773.357
773.355
773.355
773.354
773.353
773.353
773.352
773.352
773.352
773.351
773.351
773.35
773.349
773.348
773.347
773.346
773.346
773.345
773.344
773.343
773.341
773.34
773.34
773.34
773.34
773.341
773.341
773.34
773.339
773.337
773.336
773.336
773.337
773.341
773.344
773.346
773.347
773.347
773.347
773.346
773.346
773.347
773.351
773.371
773.451
773.57
773.64
773.66
773.651
773.583
773.443
773.342
773.284
773.256
773.246
773.245
773.246
773.25
773.254
773.257
773.258
773.259
773.259
773.259
773.258
773.258
773.257
773.256
773.255
773.254
773.253
773.252
773.251
773.25
773.249
773.248
773.247
773.247
773.249
773.296
773.38
773.393
773.391
773.405
773.378
773.354
773.353
773.362
773.365
773.359
773.353
773.352
773.352
773.352
773.35
773.347
773.346
773.345
773.344
773.343
773.341
773.34
773.339
773.338
773.338
773.337
773.336
773.335
773.335
773.334
773.334
773.333
773.332
773.331
773.33
773.329
773.329
773.328
773.327
773.326
773.325
773.323
773.321
773.32
773.32
773.319
773.319
773.319
773.318
773.315
773.312
773.31
773.309
773.31
773.313
773.316
773.317
773.318
773.319
773.32
773.32
773.321
773.322
773.326
773.35
773.454
773.623
773.718
773.739
773.718
773.594
773.412
773.3
773.246
773.227
773.225
773.229
773.24
773.248
773.253
773.256
773.258
773.259
773.259
773.259
773.259
773.258
773.257
773.256
773.255
773.254
773.253
773.252
773.251
773.25
773.249
773.248
773.248
773.25
773.301
773.134
773.114
773.108
773.11
773.108
773.102
773.089
773.079
773.061
773.051
773.033
773.022
773.006
772.996
772.982
772.976
772.967
772.968
772.975
773.006
773.181
773.181
773.186
773.184
773.177
773.163
773.146
773.131
773.11
773.094
773.074
773.061
773.046
773.024
773.012
773
772.988
772.979
772.971
772.967
773.246
773.245
773.242
773.237
773.231
773.225
773.219
773.211
773.204
773.196
773.186
773.178
773.171
773.163
773.162
773.167
773.168
773.161
773.138
773.124
773.284
773.287
773.285
773.282
773.278
773.275
773.268
773.258
773.247
773.23
773.215
773.216
773.23
773.243
773.208
773.154
773.136
773.13
773.1
773.057
773.295
773.309
773.308
773.307
773.306
773.305
773.3
773.293
773.283
773.268
773.261
773.264
773.276
773.284
773.253
773.216
773.19
773.175
773.127
773.086
773.063
773.063
773.063
773.058
773.051
773.051
773.051
773.051
773.049
773.047
773.046
773.045
773.044
773.042
773.041
773.04
773.038
773.038
773.037
773.036
773.036
773.036
773.035
773.035
773.035
773.035
773.035
773.035
773.036
773.036
773.036
773.037
773.038
773.038
773.039
773.039
773.04
773.041
773.041
773.042
773.043
773.044
773.044
773.044
773.044
773.045
773.046
773.048
773.052
773.054
773.058
773.064
773.071
773.078
773.082
773.083
773.085
773.091
773.124
773.241
773.375
773.444
773.461
773.45
773.379
773.245
773.139
773.065
773.016
772.984
772.965
772.954
772.948
772.946
772.945
772.945
772.946
772.948
772.949
772.951
772.953
772.956
772.958
772.96
772.963
772.965
772.968
772.97
772.973
772.976
772.979
772.982
772.985
772.988
772.991
772.994
772.997
773
773.003
773.007
773.01
773.013
773.017
773.02
773.024
773.028
773.032
773.035
773.039
773.043
773.048
773.052
773.056
773.061
773.065
773.07
773.074
773.079
773.084
773.089
773.094
773.1
773.105
773.11
773.116
773.122
773.127
773.133
773.139
773.145
773.151
773.157
773.163
773.169
773.175
773.182
773.188
773.195
773.202
773.208
773.215
773.222
773.229
773.237
773.244
773.251
773.259
773.266
773.274
773.282
773.29
773.298
773.306
773.314
773.323
773.331
773.34
773.349
773.358
773.367
773.376
773.385
773.395
773.404
773.414
773.424
773.434
773.444
773.455
773.465
773.476
773.486
773.497
773.508
773.519
773.53
773.541
773.552
773.563
773.574
773.585
773.597
773.608
773.619
773.631
773.643
773.654
773.666
773.678
773.69
773.702
773.715
773.726
773.741
773.751
773.767
773.776
773.794
773.805
773.855
772.945
772.943
772.943
772.938
772.932
772.931
772.933
772.933
772.931
772.929
772.928
772.928
772.927
772.926
772.925
772.924
772.923
772.923
772.922
772.922
772.921
772.921
772.921
772.921
772.921
772.921
772.921
772.921
772.922
772.922
772.922
772.923
772.923
772.924
772.925
772.925
772.926
772.927
772.928
772.928
772.929
772.93
772.931
772.932
772.933
772.933
772.934
772.935
772.936
772.939
772.944
772.951
772.955
772.961
772.971
772.982
772.991
772.996
773.004
773.021
773.063
773.104
773.128
773.134
773.131
773.107
773.041
772.982
772.944
772.925
772.918
772.917
772.918
772.923
772.928
772.933
772.937
772.941
772.944
772.948
772.95
772.953
772.956
772.958
772.961
772.964
772.966
772.969
772.972
772.975
772.977
772.98
772.983
772.986
772.989
772.992
772.996
772.999
773.002
773.005
773.009
773.012
773.016
773.019
773.023
773.027
773.03
773.034
773.038
773.042
773.046
773.051
773.055
773.059
773.064
773.068
773.073
773.078
773.083
773.088
773.093
773.098
773.104
773.109
773.115
773.12
773.126
773.132
773.138
773.143
773.149
773.156
773.162
773.168
773.174
773.181
773.187
773.194
773.2
773.207
773.214
773.221
773.228
773.235
773.243
773.25
773.257
773.265
773.273
773.28
773.288
773.296
773.305
773.313
773.321
773.33
773.339
773.347
773.356
773.365
773.375
773.384
773.394
773.403
773.413
773.423
773.433
773.443
773.453
773.464
773.474
773.485
773.496
773.507
773.517
773.528
773.539
773.551
773.562
773.573
773.584
773.595
773.607
773.618
773.63
773.641
773.653
773.665
773.677
773.689
773.7
773.714
773.725
773.74
773.749
773.766
773.775
773.793
773.803
773.854
773.127
773.172
773.183
773.178
773.176
773.177
773.178
773.176
773.173
773.171
773.17
773.169
773.169
773.169
773.168
773.168
773.168
773.168
773.167
773.167
773.167
773.166
773.166
773.166
773.165
773.165
773.165
773.166
773.166
773.166
773.167
773.168
773.169
773.172
773.174
773.176
773.178
773.182
773.187
773.193
773.198
773.202
773.205
773.206
773.206
773.203
773.187
773.14
773.088
773.044
773.01
772.985
772.969
772.959
772.954
772.952
772.953
772.954
772.956
772.959
772.961
772.961
772.961
772.957
772.952
772.947
772.942
772.939
772.937
772.937
772.937
772.938
772.939
772.941
772.942
772.943
772.945
772.947
772.948
772.95
772.952
772.954
772.957
772.959
772.962
772.964
772.967
772.969
772.972
772.975
772.978
772.98
772.983
772.986
772.989
772.992
772.996
772.999
773.002
773.005
773.009
773.012
773.016
773.019
773.023
773.027
773.03
773.034
773.038
773.042
773.046
773.051
773.055
773.059
773.064
773.068
773.073
773.078
773.083
773.088
773.093
773.098
773.104
773.109
773.115
773.12
773.126
773.132
773.138
773.143
773.149
773.156
773.162
773.168
773.174
773.181
773.187
773.194
773.2
773.207
773.214
773.221
773.228
773.235
773.243
773.25
773.257
773.265
773.273
773.28
773.288
773.296
773.305
773.313
773.321
773.33
773.339
773.347
773.356
773.365
773.375
773.384
773.394
773.403
773.413
773.423
773.433
773.443
773.453
773.464
773.474
773.485
773.496
773.507
773.517
773.528
773.539
773.551
773.562
773.573
773.584
773.595
773.607
773.618
773.63
773.641
773.653
773.665
773.677
773.689
773.701
773.714
773.725
773.739
773.75
773.764
773.777
773.789
773.803
773.82
772.936
772.946
772.96
772.971
772.943
772.929
772.933
772.942
772.941
772.935
772.932
772.932
772.933
772.932
772.932
772.931
772.931
772.931
772.931
772.931
772.931
772.931
772.931
772.931
772.93
772.93
772.931
772.931
772.931
772.931
772.932
772.932
772.932
772.933
772.934
772.934
772.935
772.936
772.936
772.937
772.938
772.939
772.94
772.943
772.945
772.947
772.947
772.948
772.949
772.95
772.951
772.957
772.965
772.972
772.978
772.982
772.985
772.987
772.988
772.991
772.997
773.02
773.106
773.223
773.29
773.307
773.295
773.216
773.08
772.989
772.939
772.919
772.914
772.915
772.92
772.927
772.933
772.938
772.942
772.946
772.949
772.952
772.955
772.958
772.961
772.964
772.966
772.969
772.972
772.975
772.977
772.98
772.983
772.986
772.989
772.992
772.996
772.999
773.002
773.005
773.009
773.012
773.016
773.019
773.023
773.027
773.03
773.034
773.038
773.042
773.046
773.051
773.055
773.059
773.064
773.068
773.073
773.078
773.083
773.088
773.093
773.098
773.104
773.109
773.115
773.12
773.126
773.132
773.138
773.143
773.149
773.156
773.162
773.168
773.174
773.181
773.187
773.194
773.2
773.207
773.214
773.221
773.228
773.235
773.243
773.25
773.257
773.265
773.273
773.28
773.288
773.296
773.305
773.313
773.321
773.33
773.339
773.347
773.356
773.365
773.375
773.384
773.394
773.403
773.413
773.423
773.433
773.443
773.453
773.464
773.474
773.485
773.496
773.507
773.517
773.528
773.539
773.551
773.562
773.573
773.584
773.595
773.607
773.618
773.63
773.641
773.653
773.665
773.677
773.688
773.702
773.712
773.727
773.737
773.753
773.762
773.779
773.787
773.807
773.75
772.941
772.954
772.955
772.961
772.931
772.914
772.917
772.926
772.926
772.921
772.917
772.917
772.918
772.918
772.917
772.916
772.915
772.915
772.915
772.915
772.915
772.915
772.915
772.914
772.914
772.914
772.914
772.915
772.915
772.915
772.916
772.916
772.916
772.917
772.918
772.918
772.919
772.92
772.921
772.921
772.922
772.923
772.923
772.924
772.926
772.927
772.928
772.929
772.929
772.928
772.928
772.929
772.932
772.938
772.945
772.951
772.955
772.959
772.962
772.964
772.967
772.974
773.007
773.131
773.295
773.378
773.392
773.359
773.211
773.042
772.945
772.904
772.894
772.895
772.904
772.918
772.928
772.936
772.941
772.946
772.95
772.953
772.956
772.959
772.962
772.965
772.967
772.97
772.973
772.976
772.979
772.982
772.985
772.988
772.991
772.994