/*--------------------------------*- C++ -*----------------------------------*\
| =========                 |                                                 |
| \\      /  F ield         | OpenFOAM: The Open Source CFD Toolbox           |
|  \\    /   O peration     | Version:  3.0.x                                 |
|   \\  /    A nd           | Web:      www.OpenFOAM.org                      |
|    \\/     M anipulation  |                                                 |
\*---------------------------------------------------------------------------*/
FoamFile
{
    version     2.0;
    format      ascii;
    class       surfaceScalarField;
    location    "0.005";
    object      phi;
}
// * * * * * * * * * * * * * * * * * * * * * * * * * * * * * * * * * * * * * //

dimensions      [1 0 -1 0 0 0 0];

internalField   nonuniform List<scalar> 
999
(
3845.64
3845.64
3845.64
3845.64
3845.64
3845.64
3845.64
3845.64
3845.64
3845.64
3845.64
3845.64
3845.64
3845.64
3845.64
3845.64
3845.64
3845.64
3845.64
3845.64
3845.64
3845.64
3845.64
3845.64
3845.64
3845.64
3845.64
3845.64
3845.64
3845.64
3845.64
3845.64
3845.64
3845.64
3845.64
3845.64
3845.64
3845.64
3845.64
3845.64
3845.64
3845.64
3845.64
3845.64
3845.64
3845.64
3845.64
3845.64
3845.64
3845.64
3845.64
3845.64
3845.64
3845.64
3845.64
3845.64
3845.64
3845.64
3845.64
3845.64
3845.64
3845.64
3845.64
3845.64
3845.64
3845.64
3845.64
3845.64
3845.64
3845.64
3845.64
3845.64
3845.64
3845.64
3845.64
3845.64
3845.64
3845.64
3845.64
3845.64
3845.64
3845.64
3845.64
3845.64
3845.64
3845.64
3845.64
3845.64
3845.64
3845.64
3845.64
3845.64
3845.64
3845.64
3845.64
3845.64
3845.64
3845.64
3845.64
3845.64
3845.64
3845.64
3845.64
3845.64
3845.64
3845.64
3845.64
3845.64
3845.64
3845.64
3845.64
3845.64
3845.64
3845.64
3845.64
3845.64
3845.64
3845.64
3845.64
3845.64
3845.64
3845.64
3845.64
3845.64
3845.64
3845.64
3845.64
3845.64
3845.64
3845.64
3845.64
3845.64
3845.64
3845.64
3845.64
3845.64
3845.64
3845.64
3845.64
3845.64
3845.64
3845.64
3845.64
3845.64
3845.64
3845.64
3845.64
3845.64
3845.64
3845.64
3845.64
3845.64
3845.64
3845.64
3845.64
3845.64
3845.64
3845.64
3845.64
3845.64
3845.64
3845.64
3845.64
3845.64
3845.64
3845.64
3845.64
3845.64
3845.64
3845.64
3845.64
3845.64
3845.64
3845.64
3845.64
3845.64
3845.64
3845.64
3845.64
3845.64
3845.64
3845.64
3845.64
3845.64
3845.64
3845.64
3845.64
3845.64
3845.64
3845.64
3845.64
3845.64
3845.64
3845.64
3845.64
3845.64
3845.64
3845.64
3845.64
3845.64
3845.64
3845.64
3845.64
3845.64
3845.64
3845.64
3845.64
3845.64
3845.64
3845.64
3845.64
3845.64
3845.64
3845.64
3845.64
3845.64
3845.64
3845.64
3845.64
3845.64
3845.64
3845.64
3845.64
3845.64
3845.64
3845.64
3845.64
3845.64
3845.64
3845.64
3845.64
3845.64
3845.64
3845.64
3845.64
3845.64
3845.64
3845.64
3845.64
3845.64
3845.64
3845.64
3845.64
3845.64
3845.64
3845.64
3845.64
3845.64
3845.64
3845.64
3845.64
3845.64
3845.64
3845.64
3845.64
3845.64
3845.64
3845.64
3845.64
3845.64
3845.64
3845.64
3845.64
3845.64
3845.64
3845.64
3845.64
3845.64
3845.64
3845.64
3845.64
3845.64
3845.64
3845.64
3845.64
3845.64
3845.64
3845.64
3845.64
3845.64
3845.64
3845.64
3845.64
3845.64
3845.64
3845.64
3845.64
3845.64
3845.64
3845.64
3845.64
3845.64
3845.64
3845.64
3845.64
3845.64
3845.64
3845.64
3845.64
3845.64
3845.64
3845.64
3845.64
3845.64
3845.64
3845.64
3845.64
3845.64
3845.64
3845.64
3845.64
3845.64
3845.64
3845.64
3845.64
3845.64
3845.64
3845.64
3845.64
3845.64
3845.64
3845.64
3845.64
3845.64
3845.64
3845.64
3845.64
3845.64
3845.64
3845.64
3845.64
3845.64
3845.64
3845.64
3845.64
3845.64
3845.64
3845.64
3845.64
3845.64
3845.64
3845.64
3845.64
3845.64
3845.64
3845.64
3845.64
3845.64
3845.64
3845.64
3845.64
3845.64
3845.64
3845.64
3845.64
3845.64
3845.64
3845.64
3845.64
3845.64
3845.64
3845.64
3845.64
3845.64
3845.64
3845.64
3845.64
3845.64
3845.64
3845.64
3845.64
3845.64
3845.64
3845.64
3845.64
3845.64
3845.64
3845.64
3845.64
3845.64
3845.64
3845.64
3845.64
3845.64
3845.64
3845.64
3845.64
3845.64
3845.64
3845.64
3845.64
3845.64
3845.64
3845.64
3845.64
3845.64
3845.64
3845.64
3845.64
3845.64
3845.64
3845.64
3845.64
3845.64
3845.64
3845.64
3845.64
3845.64
3845.64
3845.64
3845.64
3845.64
3845.64
3845.64
3845.64
3845.64
3845.64
3845.64
3845.64
3845.64
3845.64
3845.64
3845.64
3845.64
3845.64
3845.64
3845.64
3845.64
3845.64
3845.64
3845.64
3845.64
3845.64
3845.64
3845.64
3845.64
3845.64
3845.64
3845.64
3845.64
3845.64
3845.64
3845.64
3845.64
3845.64
3845.64
3845.64
3845.64
3845.64
3845.64
3845.64
3845.64
3845.64
3845.64
3845.64
3845.64
3845.64
3845.64
3845.64
3845.64
3845.64
3845.64
3845.64
3845.64
3845.64
3845.64
3845.64
3845.64
3845.64
3845.64
3845.64
3845.64
3845.64
3845.64
3845.64
3845.64
3845.64
3845.64
3845.64
3845.64
3845.64
3845.64
3845.64
3845.64
3845.64
3845.64
3845.64
3845.64
3845.64
3845.64
3845.64
3845.64
3845.64
3845.64
3845.64
3845.64
3845.64
3845.64
3845.64
3845.64
3845.64
3845.64
3845.64
3845.64
3845.64
3845.64
3845.64
3845.64
3845.64
3845.64
3845.64
3845.64
3845.64
3845.64
3845.64
3845.64
3845.64
3845.64
3845.64
3845.64
3845.64
3845.64
3845.64
3845.64
3845.64
3845.64
3845.64
3845.64
3845.64
3845.64
3845.64
3845.64
3845.64
3845.64
3845.64
3845.64
3845.64
3845.64
3845.64
3845.64
3845.64
3845.64
3845.64
3845.64
3845.64
3845.64
3845.64
3845.64
3845.64
3845.64
3845.64
3845.64
3845.64
3845.64
3845.64
3845.64
3845.64
3845.64
3845.64
3845.64
3845.64
3845.64
3845.64
3845.64
3845.64
3845.64
3845.64
3845.64
3845.64
3845.64
3845.64
3845.64
3845.64
3845.64
3845.64
3845.64
3845.64
3845.64
3845.64
3845.64
3845.64
3845.64
3845.64
3845.64
3845.64
3845.64
3845.64
3845.64
3845.64
3845.64
3845.64
3845.64
3845.64
3845.64
3845.64
3845.64
3845.64
3845.64
3845.64
3845.64
3845.64
3845.64
3845.64
3845.64
3845.64
3845.64
3845.64
3845.64
3845.64
3845.64
3845.64
3845.64
3845.64
3845.64
3845.64
3845.64
3845.64
3845.64
3845.64
3845.64
3845.64
3845.64
3845.64
3845.64
3845.64
3845.64
3845.64
3845.64
3845.64
3845.64
3845.64
3845.64
3845.64
3845.63
3845.63
3845.63
3845.63
3845.63
3845.63
3845.63
3845.62
3845.62
3845.61
3845.6
3845.59
3845.57
3845.55
3845.52
3845.49
3845.43
3845.37
3845.28
3845.16
3845
3844.79
3844.52
3844.17
3843.71
3843.12
3842.34
3841.34
3840.06
3838.4
3836.27
3833.55
3830.08
3825.67
3820.06
3812.96
3804
3792.73
3778.58
3760.89
3738.86
3711.53
3677.77
3636.3
3585.66
3524.22
3450.29
3362.11
3258.06
3136.76
2997.28
2839.42
2663.88
2472.42
2268
2054.6
1837.04
1620.54
1410.3
1210.95
1026.23
858.752
709.943
580.136
468.771
374.635
296.101
231.337
178.472
135.716
101.435
74.1886
52.7454
36.0783
23.3508
13.8943
7.17835
2.77531
0.325159
-0.482415
-0.436581
-0.234328
0.0155488
0.288438
0.523986
0.710444
0.851385
0.956271
1.03251
1.08481
1.11899
1.13995
1.15108
1.15458
1.15199
1.14478
1.13438
1.1219
1.10804
1.0932
1.07774
1.062
1.04626
1.03068
1.01528
1.00008
0.98514
0.97056
0.956405
0.942686
0.929371
0.916417
0.9038
0.891515
0.87956
0.867928
0.856605
0.845572
0.834809
0.824297
0.814024
0.803981
0.794161
0.784558
0.775164
0.765967
0.756958
0.748132
0.739485
0.731018
0.722728
0.714608
0.706649
0.698841
0.691174
0.683642
0.676241
0.66897
0.661826
0.654806
0.647906
0.641122
0.63445
0.627886
0.621428
0.615073
0.608818
0.602661
0.596597
0.590626
0.584743
0.578946
0.573234
0.567605
0.562055
0.556583
0.551186
0.545862
0.54061
0.535426
0.53031
0.525259
0.520273
0.515349
0.510484
0.505676
0.500923
0.496223
0.491573
0.486972
0.482421
0.477918
0.473464
0.469059
0.464705
0.4604
0.456146
0.451942
0.447787
0.443681
0.439622
0.435609
0.431642
0.427719
0.423839
0.42
0.416201
0.412441
0.408718
0.405032
0.401381
0.397764
0.394179
0.390627
0.387105
0.383614
0.380153
0.376721
0.373317
0.369941
0.366593
0.363271
0.359976
0.356707
0.353463
0.350243
0.347047
0.343873
0.340721
0.33759
0.334479
0.331389
0.328321
0.325273
0.322247
0.319244
0.316264
0.313308
0.310376
0.307469
0.304586
0.301728
0.298895
0.296084
0.293297
0.290531
0.287786
0.285061
0.282354
0.279664
0.27699
0.274331
0.271686
0.269056
0.266439
0.263837
0.261248
0.258673
0.256114
0.25357
0.251043
0.248532
0.246038
0.24356
0.241099
0.238654
0.236224
0.233807
0.231404
0.229011
0.22663
0.224258
0.221895
0.21954
0.217194
0.214858
0.21253
0.210212
0.207906
0.20561
0.203326
0.201055
0.198796
0.196549
0.194316
0.192095
0.189886
0.187691
0.185507
0.183336
0.181178
0.179032
0.176899
0.17478
0.172673
0.17058
0.168498
0.166428
0.164368
0.162315
0.160268
0.158223
0.156179
0.154133
0.152085
0.150033
0.147979
0.145925
0.143873
0.141827
0.139791
0.137768
0.135759
0.133768
0.131794
0.129838
0.127898
0.125973
0.124062
0.122161
0.120269
0.11838
0.116488
0.114586
0.112666
0.110724
0.108759
0.106773
0.104774
0.102773
0.100728
0.0991464
0.0968288
0.0955114
0.093051
0.0918578
0.0891292
0.0866852
0.0855775
0.0844332
0.0816623
0.0805451
0.0776428
0.0767613
0.0737694
0.0730861
0.0699957
0.0694889
0.0663606
0.0659913
0.0628834
0.0625448
0.0595043
0.0590433
0.0561483
0.0554111
0.052789
0.051631
0.0494367
0.0477153
0.0461016
0.0436809
0.0427808
0.0395541
0.0394697
0.0353837
0.0361713
0.0312411
0.0328919
0.0272063
0.029629
0.0233469
0.0263592
0.019702
0.0230368
0.0162768
0.0196042
0.0130498
0.016011
0.00998558
0.012231
0.0070453
0.00827171
0.00419224
0.00417293
0.0013911
)
;

boundaryField
{
    inlet
    {
        type            calculated;
        value           uniform -3845.64;
    }
    backWall
    {
        type            calculated;
        value           uniform 0;
    }
    sides
    {
        type            empty;
        value           nonuniform 0();
    }
}


// ************************************************************************* //
