/*--------------------------------*- C++ -*----------------------------------*\
| =========                 |                                                 |
| \\      /  F ield         | OpenFOAM: The Open Source CFD Toolbox           |
|  \\    /   O peration     | Version:  3.0.x                                 |
|   \\  /    A nd           | Web:      www.OpenFOAM.org                      |
|    \\/     M anipulation  |                                                 |
\*---------------------------------------------------------------------------*/
FoamFile
{
    version     2.0;
    format      ascii;
    class       volVectorField;
    location    "0.45";
    object      U;
}
// * * * * * * * * * * * * * * * * * * * * * * * * * * * * * * * * * * * * * //

dimensions      [0 1 -1 0 0 0 0];

internalField   nonuniform List<vector> 
1000
(
(50 0 0)
(50 0 0)
(50 0 0)
(50 0 0)
(50 0 0)
(50 0 0)
(50 0 0)
(50 0 0)
(50 0 0)
(50 0 0)
(50 0 0)
(50 0 0)
(50 0 0)
(50 0 0)
(50 0 0)
(50 0 0)
(50 0 0)
(50 0 0)
(50 0 0)
(50 0 0)
(50 0 0)
(50 0 0)
(50 0 0)
(50 0 0)
(50 0 0)
(50 0 0)
(50 0 0)
(50 0 0)
(50 0 0)
(50 0 0)
(50 0 0)
(50 0 0)
(50 0 0)
(50 0 0)
(50 0 0)
(50 0 0)
(50 0 0)
(50 0 0)
(50 0 0)
(50 0 0)
(50 0 0)
(50 0 0)
(50 0 0)
(50 0 0)
(50 0 0)
(50 0 0)
(50 0 0)
(50 0 0)
(50 0 0)
(50 0 0)
(50 0 0)
(50 0 0)
(50 0 0)
(50 0 0)
(50 0 0)
(50 0 0)
(50 0 0)
(50 0 0)
(50 0 0)
(50 0 0)
(50 0 0)
(50 0 0)
(50 0 0)
(50 0 0)
(50 0 0)
(50 0 0)
(50 0 0)
(50 0 0)
(50 0 0)
(50 0 0)
(50 0 0)
(50 0 0)
(50 0 0)
(50 0 0)
(50 0 0)
(50 0 0)
(50 0 0)
(50 0 0)
(50 0 0)
(50 0 0)
(50 0 0)
(50 0 0)
(50 0 0)
(50 0 0)
(50 0 0)
(50 0 0)
(50 0 0)
(50 0 0)
(50 0 0)
(50 0 0)
(50 0 0)
(50 0 0)
(50 0 0)
(50 0 0)
(50 0 0)
(50 0 0)
(50 0 0)
(50 0 0)
(50 0 0)
(50 0 0)
(50 0 0)
(50 0 0)
(50 0 0)
(50 0 0)
(50 0 0)
(50 0 0)
(50 0 0)
(50 0 0)
(50 0 0)
(50 0 0)
(50 0 0)
(50 0 0)
(50 0 0)
(50 0 0)
(50 0 0)
(50 0 0)
(50 0 0)
(50 0 0)
(50 0 0)
(50 0 0)
(50 0 0)
(50 0 0)
(50 0 0)
(50 0 0)
(50 0 0)
(50 0 0)
(50 0 0)
(50 0 0)
(50 0 0)
(50 0 0)
(50 0 0)
(50 0 0)
(50 0 0)
(50 0 0)
(50 0 0)
(50 0 0)
(50 0 0)
(50 0 0)
(50 0 0)
(50 0 0)
(50 0 0)
(50 0 0)
(50 0 0)
(50 0 0)
(50 0 0)
(50 0 0)
(50 0 0)
(50 0 0)
(50 0 0)
(50 0 0)
(50 0 0)
(50 0 0)
(50 0 0)
(50 0 0)
(50 0 0)
(50 0 0)
(50 0 0)
(50 0 0)
(50 0 0)
(50 0 0)
(50 0 0)
(50 0 0)
(50 0 0)
(50 0 0)
(50 0 0)
(50 0 0)
(50 0 0)
(50 0 0)
(50 0 0)
(50 0 0)
(50 0 0)
(50 0 0)
(50 0 0)
(50 0 0)
(50 0 0)
(50 0 0)
(50 0 0)
(50 0 0)
(50 0 0)
(50 0 0)
(50 0 0)
(50 0 0)
(50 0 0)
(50 0 0)
(50 0 0)
(50 0 0)
(50 0 0)
(50 0 0)
(50 0 0)
(50 0 0)
(50 0 0)
(50 0 0)
(50 0 0)
(50 0 0)
(50 0 0)
(50 0 0)
(50 0 0)
(50 0 0)
(50 0 0)
(50 0 0)
(50 0 0)
(50 0 0)
(50 0 0)
(50 0 0)
(50 0 0)
(50 0 0)
(50 0 0)
(50 0 0)
(50 0 0)
(50 0 0)
(50 0 0)
(50 0 0)
(50 0 0)
(50 0 0)
(50 0 0)
(50 0 0)
(50 0 0)
(50 0 0)
(50 0 0)
(50 0 0)
(50 0 0)
(50 0 0)
(50 0 0)
(50 0 0)
(50 0 0)
(50 0 0)
(50 0 0)
(50 0 0)
(50 0 0)
(50 0 0)
(50 0 0)
(50 0 0)
(50 0 0)
(50 0 0)
(50 0 0)
(50 0 0)
(50 0 0)
(50 0 0)
(50 0 0)
(50 0 0)
(50 0 0)
(50 0 0)
(50 0 0)
(50 0 0)
(50 0 0)
(50 0 0)
(50 0 0)
(50 0 0)
(50 0 0)
(50 0 0)
(50 0 0)
(50 0 0)
(50 0 0)
(50 0 0)
(50 0 0)
(50 0 0)
(50 0 0)
(50 0 0)
(50 0 0)
(50 0 0)
(50 0 0)
(50 0 0)
(50 0 0)
(50 0 0)
(50 0 0)
(50 0 0)
(50 0 0)
(50 0 0)
(50 0 0)
(50 0 0)
(50 0 0)
(50 0 0)
(50 0 0)
(50 0 0)
(50 0 0)
(50 0 0)
(50 0 0)
(50 0 0)
(50 0 0)
(50 0 0)
(50 0 0)
(50 0 0)
(50 0 0)
(50 0 0)
(50 0 0)
(50 0 0)
(50 0 0)
(50 0 0)
(50 0 0)
(50 0 0)
(50 0 0)
(50 0 0)
(50 0 0)
(50 0 0)
(50 0 0)
(50 0 0)
(50 0 0)
(50 0 0)
(50 0 0)
(50 0 0)
(50 0 0)
(50 0 0)
(50 0 0)
(50 0 0)
(50 0 0)
(50 0 0)
(50 0 0)
(50 0 0)
(50 0 0)
(50 0 0)
(50 0 0)
(50 0 0)
(50 0 0)
(50 0 0)
(50 0 0)
(50 0 0)
(50 0 0)
(50 0 0)
(50 0 0)
(50 0 0)
(50 0 0)
(50 0 0)
(50 0 0)
(50 0 0)
(50 0 0)
(50 0 0)
(50 0 0)
(50 0 0)
(50 0 0)
(50 0 0)
(50 0 0)
(50 0 0)
(50 0 0)
(50 0 0)
(50 0 0)
(50 0 0)
(50 0 0)
(50 0 0)
(50 0 0)
(50 0 0)
(50 0 0)
(50 0 0)
(50 0 0)
(50 0 0)
(50 0 0)
(50 0 0)
(50 0 0)
(50 0 0)
(50 0 0)
(50 0 0)
(50 0 0)
(50 0 0)
(50 0 0)
(50 0 0)
(50 0 0)
(50 0 0)
(50 0 0)
(50 0 0)
(50 0 0)
(50 0 0)
(50 0 0)
(50 0 0)
(50 0 0)
(50 0 0)
(50 0 0)
(50 0 0)
(50 0 0)
(50 0 0)
(50 0 0)
(50 0 0)
(50 0 0)
(50 0 0)
(50 0 0)
(50 0 0)
(50 0 0)
(50 0 0)
(50 0 0)
(50 0 0)
(50 0 0)
(50 0 0)
(50 0 0)
(50 0 0)
(50 0 0)
(50 0 0)
(50 0 0)
(50 0 0)
(50 0 0)
(50 0 0)
(50 0 0)
(50 0 0)
(50 0 0)
(50 0 0)
(50 0 0)
(50 0 0)
(50 0 0)
(50 0 0)
(50 0 0)
(50 0 0)
(50 0 0)
(50 0 0)
(50 0 0)
(50 0 0)
(50 0 0)
(50 0 0)
(50 0 0)
(50 0 0)
(50 0 0)
(50 0 0)
(50 0 0)
(50 0 0)
(50 0 0)
(50 0 0)
(50 0 0)
(50 0 0)
(50 0 0)
(50 0 0)
(50 0 0)
(50 0 0)
(50 0 0)
(50 0 0)
(50 0 0)
(50 0 0)
(50 0 0)
(50 0 0)
(50 0 0)
(50 0 0)
(50 0 0)
(50 0 0)
(50 0 0)
(50 0 0)
(50 0 0)
(50 0 0)
(50 0 0)
(50 0 0)
(50 0 0)
(50 0 0)
(50 0 0)
(50 0 0)
(50 0 0)
(50 0 0)
(50 0 0)
(50 0 0)
(50 0 0)
(50 0 0)
(50 0 0)
(50 0 0)
(50 0 0)
(50 0 0)
(50 0 0)
(50 0 0)
(50 0 0)
(50 0 0)
(50 0 0)
(50 0 0)
(50 0 0)
(50 0 0)
(50 0 0)
(50 0 0)
(50 0 0)
(50 0 0)
(50 0 0)
(50 0 0)
(50 0 0)
(50 0 0)
(50 0 0)
(50 0 0)
(50 0 0)
(50 0 0)
(50 0 0)
(50 0 0)
(50 0 0)
(50 0 0)
(50 0 0)
(50 0 0)
(50 0 0)
(50 0 0)
(50 0 0)
(50 0 0)
(50 0 0)
(50 0 0)
(50 0 0)
(50 0 0)
(50 0 0)
(50 0 0)
(50 0 0)
(50 0 0)
(50 0 0)
(50 0 0)
(50 0 0)
(50 0 0)
(50 0 0)
(50 0 0)
(50 0 0)
(50 0 0)
(50 0 0)
(50 0 0)
(50 0 0)
(50 0 0)
(50 0 0)
(50 0 0)
(50 0 0)
(50 0 0)
(50 0 0)
(50 0 0)
(50 0 0)
(50 0 0)
(50 0 0)
(50 0 0)
(50 0 0)
(50 0 0)
(50 0 0)
(50 0 0)
(50 0 0)
(50 0 0)
(50 0 0)
(50 0 0)
(50 0 0)
(50 0 0)
(50 0 0)
(50 0 0)
(50 0 0)
(50 0 0)
(50 0 0)
(50 0 0)
(50 0 0)
(50 0 0)
(50 0 0)
(50 0 0)
(50 0 0)
(50 0 0)
(50 0 0)
(50 0 0)
(50 0 0)
(50 0 0)
(50 0 0)
(50 0 0)
(50 0 0)
(50 0 0)
(50 0 0)
(50 0 0)
(50 0 0)
(50 0 0)
(50 0 0)
(50 0 0)
(50 0 0)
(50 0 0)
(50 0 0)
(50 0 0)
(50 0 0)
(50 0 0)
(50 0 0)
(50 0 0)
(50 0 0)
(50 0 0)
(50 0 0)
(50 0 0)
(50 0 0)
(50 0 0)
(50 0 0)
(50 0 0)
(50 0 0)
(50 0 0)
(50 0 0)
(50 0 0)
(50 0 0)
(50 0 0)
(50 0 0)
(50 0 0)
(50 0 0)
(50 0 0)
(50 0 0)
(50 0 0)
(50 0 0)
(50 0 0)
(50 0 0)
(50 0 0)
(50 0 0)
(50 0 0)
(50 0 0)
(50 0 0)
(50 0 0)
(50 0 0)
(50 0 0)
(50 0 0)
(50 0 0)
(50 0 0)
(50 0 0)
(50 0 0)
(50 0 0)
(50 0 0)
(50 0 0)
(50 0 0)
(50 0 0)
(50 0 0)
(50 0 0)
(50 0 0)
(50 0 0)
(50 0 0)
(50 0 0)
(50 0 0)
(50 0 0)
(50 0 0)
(50 0 0)
(50 0 0)
(50 0 0)
(50 0 0)
(50 0 0)
(50 0 0)
(50 0 0)
(50 0 0)
(50 0 0)
(50 0 0)
(50 0 0)
(50 0 0)
(50 0 0)
(50 0 0)
(50 0 0)
(50 0 0)
(50 0 0)
(50 0 0)
(50 0 0)
(50 0 0)
(50 0 0)
(50 0 0)
(50 0 0)
(50 0 0)
(50 0 0)
(50 0 0)
(50 0 0)
(50 0 0)
(50 0 0)
(50 0 0)
(50 0 0)
(50 0 0)
(50 0 0)
(50 0 0)
(50 0 0)
(50 0 0)
(50 0 0)
(50 0 0)
(50 0 0)
(50 0 0)
(50 0 0)
(50 0 0)
(50 0 0)
(50 0 0)
(50 0 0)
(50 0 0)
(50 0 0)
(50 0 0)
(50 0 0)
(50 0 0)
(50 0 0)
(50 0 0)
(50 0 0)
(50 0 0)
(50 0 0)
(50 0 0)
(50 0 0)
(50 0 0)
(50 0 0)
(50 0 0)
(50 0 0)
(50 0 0)
(50 0 0)
(50 0 0)
(50 0 0)
(50 0 0)
(50 0 0)
(50 0 0)
(50 0 0)
(50 0 0)
(50 0 0)
(50 0 0)
(50 0 0)
(50 0 0)
(50 0 0)
(50 0 0)
(50 0 0)
(50 0 0)
(50 0 0)
(50 0 0)
(50 0 0)
(50 0 0)
(50 0 0)
(50 0 0)
(50 0 0)
(50 0 0)
(50 0 0)
(50 0 0)
(50 0 0)
(50 0 0)
(50 0 0)
(50 0 0)
(50 0 0)
(50 0 0)
(50 0 0)
(50 0 0)
(50 0 0)
(50 0 0)
(50 0 0)
(50 0 0)
(50 0 0)
(50 0 0)
(50 0 0)
(50 0 0)
(50 0 0)
(50 0 0)
(50 0 0)
(50 0 0)
(50 0 0)
(50 0 0)
(50 0 0)
(50 0 0)
(50 0 0)
(50 0 0)
(50 0 0)
(50 0 0)
(50 0 0)
(50 0 0)
(50 0 0)
(50 0 0)
(50 0 0)
(50 0 0)
(50 0 0)
(50 0 0)
(50 0 0)
(50 0 0)
(50 0 0)
(50 0 0)
(50 0 0)
(50 0 0)
(50 0 0)
(50 0 0)
(50 0 0)
(50 0 0)
(50 0 0)
(50 0 0)
(50 0 0)
(49.9999 0 0)
(49.9999 0 0)
(49.9999 0 0)
(49.9998 0 0)
(49.9998 0 0)
(49.9997 0 0)
(49.9996 0 0)
(49.9994 0 0)
(49.9992 0 0)
(49.9989 0 0)
(49.9985 0 0)
(49.998 0 0)
(49.9974 0 0)
(49.9965 0 0)
(49.9954 0 0)
(49.994 0 0)
(49.9922 0 0)
(49.9899 0 0)
(49.987 0 0)
(49.9834 0 0)
(49.9787 0 0)
(49.973 0 0)
(49.9659 0 0)
(49.9571 0 0)
(49.9463 0 0)
(49.9331 0 0)
(49.917 0 0)
(49.8977 0 0)
(49.8744 0 0)
(49.8466 0 0)
(49.8135 0 0)
(49.7744 0 0)
(49.7284 0 0)
(49.6745 0 0)
(49.6118 0 0)
(49.5392 0 0)
(49.4556 0 0)
(49.3597 0 0)
(49.2504 0 0)
(49.1263 0 0)
(48.9863 0 0)
(48.829 0 0)
(48.6532 0 0)
(48.4577 0 0)
(48.2414 0 0)
(48.0032 0 0)
(47.7421 0 0)
(47.4574 0 0)
(47.1482 0 0)
(46.814 0 0)
(46.4544 0 0)
(46.0692 0 0)
(45.6583 0 0)
(45.2219 0 0)
(44.7602 0 0)
(44.2738 0 0)
(43.7631 0 0)
(43.229 0 0)
(42.6723 0 0)
(42.0941 0 0)
(41.4954 0 0)
(40.8773 0 0)
(40.2411 0 0)
(39.588 0 0)
(38.9191 0 0)
(38.2359 0 0)
(37.5394 0 0)
(36.831 0 0)
(36.1118 0 0)
(35.3829 0 0)
(34.6455 0 0)
(33.9007 0 0)
(33.1494 0 0)
(32.3927 0 0)
(31.6315 0 0)
(30.8667 0 0)
(30.0991 0 0)
(29.3296 0 0)
(28.559 0 0)
(27.788 0 0)
(27.0174 0 0)
(26.2477 0 0)
(25.4798 0 0)
(24.7141 0 0)
(23.9514 0 0)
(23.1922 0 0)
(22.4371 0 0)
(21.6866 0 0)
(20.9412 0 0)
(20.2015 0 0)
(19.4679 0 0)
(18.7409 0 0)
(18.021 0 0)
(17.3086 0 0)
(16.6042 0 0)
(15.9081 0 0)
(15.2209 0 0)
(14.5429 0 0)
(13.8746 0 0)
(13.2164 0 0)
(12.5686 0 0)
(11.9318 0 0)
(11.3063 0 0)
(10.6925 0 0)
(10.091 0 0)
(9.50217 0 0)
(8.9265 0 0)
(8.36446 0 0)
(7.81658 0 0)
(7.28338 0 0)
(6.76541 0 0)
(6.26325 0 0)
(5.77746 0 0)
(5.30867 0 0)
(4.85746 0 0)
(4.42445 0 0)
(4.01025 0 0)
(3.61541 0 0)
(3.24049 0 0)
(2.88598 0 0)
(2.55228 0 0)
(2.23974 0 0)
(1.94857 0 0)
(1.67888 0 0)
(1.43061 0 0)
(1.20357 0 0)
(0.997413 0 0)
(0.811623 0 0)
(0.645529 0 0)
(0.498317 0 0)
(0.369051 0 0)
(0.256698 0 0)
(0.160181 0 0)
(0.0784636 0 0)
(0.0109992 0 0)
(-0.04257 0 0)
(-0.0846163 0 0)
(-0.118145 0 0)
(-0.144727 0 0)
(-0.165544 0 0)
(-0.181606 0 0)
(-0.193786 0 0)
(-0.20284 0 0)
(-0.209413 0 0)
(-0.21405 0 0)
(-0.217209 0 0)
(-0.219262 0 0)
(-0.220508 0 0)
(-0.221182 0 0)
(-0.221464 0 0)
(-0.221488 0 0)
(-0.221349 0 0)
(-0.221115 0 0)
(-0.220832 0 0)
(-0.22053 0 0)
(-0.220227 0 0)
(-0.219934 0 0)
(-0.219655 0 0)
(-0.219394 0 0)
(-0.219149 0 0)
(-0.218922 0 0)
(-0.218708 0 0)
(-0.21851 0 0)
(-0.218321 0 0)
(-0.218127 0 0)
(-0.217972 0 0)
(-0.217845 0 0)
(-0.217715 0 0)
(-0.217595 0 0)
(-0.217481 0 0)
(-0.217373 0 0)
(-0.217271 0 0)
(-0.217175 0 0)
(-0.217083 0 0)
(-0.216997 0 0)
(-0.216916 0 0)
(-0.21684 0 0)
(-0.216768 0 0)
(-0.2167 0 0)
(-0.216637 0 0)
(-0.216577 0 0)
(-0.216522 0 0)
(-0.21647 0 0)
(-0.216421 0 0)
(-0.216376 0 0)
(-0.216334 0 0)
(-0.216295 0 0)
(-0.216259 0 0)
(-0.216226 0 0)
(-0.216195 0 0)
(-0.216168 0 0)
(-0.216142 0 0)
(-0.216118 0 0)
(-0.216096 0 0)
(-0.216075 0 0)
(-0.216054 0 0)
(-0.216034 0 0)
(-0.216014 0 0)
(-0.215994 0 0)
(-0.215974 0 0)
(-0.215954 0 0)
(-0.215935 0 0)
(-0.215916 0 0)
(-0.215897 0 0)
(-0.215879 0 0)
(-0.215862 0 0)
(-0.215846 0 0)
(-0.215831 0 0)
(-0.215813 0 0)
(-0.215808 0 0)
(-0.215782 0 0)
(-0.21577 0 0)
(-0.215779 0 0)
(-0.215767 0 0)
(-0.215763 0 0)
(-0.215757 0 0)
(-0.215751 0 0)
(-0.215745 0 0)
(-0.215739 0 0)
(-0.215733 0 0)
(-0.215727 0 0)
(-0.215721 0 0)
(-0.215714 0 0)
(-0.215708 0 0)
(-0.215701 0 0)
(-0.215694 0 0)
(-0.215687 0 0)
(-0.215679 0 0)
(-0.21567 0 0)
(-0.21566 0 0)
(-0.21565 0 0)
(-0.215638 0 0)
(-0.215626 0 0)
(-0.215613 0 0)
(-0.215599 0 0)
(-0.215585 0 0)
(-0.21557 0 0)
(-0.215555 0 0)
(-0.215539 0 0)
(-0.215526 0 0)
(-0.215498 0 0)
(-0.21552 0 0)
(-0.215448 0 0)
(-0.215448 0 0)
(-0.215484 0 0)
(-0.215427 0 0)
(-0.215436 0 0)
(-0.215419 0 0)
(-0.215409 0 0)
(-0.215398 0 0)
(-0.215389 0 0)
(-0.215374 0 0)
(-0.215393 0 0)
(-0.215254 0 0)
(-0.215732 0 0)
(-0.213774 0 0)
(-0.2189 0 0)
(-0.206041 0 0)
(-0.226057 0 0)
(-0.207685 0 0)
(-0.214592 0 0)
)
;

boundaryField
{
    inlet
    {
        type            fixedValue;
        value           uniform (50 0 0);
    }
    backWall
    {
        type            zeroGradient;
    }
    sides
    {
        type            empty;
    }
}


// ************************************************************************* //
