/*--------------------------------*- C++ -*----------------------------------*\
| =========                 |                                                 |
| \\      /  F ield         | OpenFOAM: The Open Source CFD Toolbox           |
|  \\    /   O peration     | Version:  3.0.x                                 |
|   \\  /    A nd           | Web:      www.OpenFOAM.org                      |
|    \\/     M anipulation  |                                                 |
\*---------------------------------------------------------------------------*/
FoamFile
{
    version     2.0;
    format      ascii;
    class       volScalarField;
    location    "0.05";
    object      rho;
}
// * * * * * * * * * * * * * * * * * * * * * * * * * * * * * * * * * * * * * //

dimensions      [1 -3 0 0 0 0 0];

internalField   nonuniform List<scalar> 
6900
(
50.4677
50.4677
50.4677
50.4677
50.4677
50.4677
50.4677
50.4677
50.4677
50.4677
50.4677
50.4677
50.4677
50.4677
50.4677
50.4677
50.4677
50.4677
50.4677
50.4677
50.4677
50.4677
50.4677
50.4677
50.4677
50.4677
50.4677
50.4677
50.4677
50.4677
50.4677
50.4677
50.4677
50.4677
50.4677
50.4677
50.4677
50.4677
50.4677
50.4677
50.4677
50.4677
50.4678
50.4678
50.4678
50.4678
50.4679
50.468
50.468
50.4681
50.4683
50.4684
50.4687
50.4689
50.4693
50.4697
50.4701
50.4707
50.4714
50.4722
50.4732
50.4743
50.4755
50.4768
50.4784
50.48
50.4818
50.4837
50.4857
50.4877
50.4898
50.4918
50.4938
50.4957
50.4974
50.499
50.5003
50.5014
50.5022
50.5028
50.5031
50.5031
50.5029
50.5026
50.5021
50.5015
50.5009
50.5002
50.4996
50.4991
50.4988
50.4985
50.4985
50.4986
50.4988
50.4993
50.4998
50.5006
50.5014
50.5023
50.5034
50.5044
50.5055
50.5066
50.5077
50.5088
50.5099
50.511
50.512
50.5131
50.5141
50.515
50.5159
50.5168
50.5177
50.5185
50.5193
50.5201
50.5208
50.5215
50.5222
50.5228
50.5234
50.5239
50.5244
50.5249
50.5253
50.5257
50.526
50.5263
50.5265
50.5267
50.5269
50.527
50.5271
50.5272
50.5272
50.5272
50.5271
50.527
50.5269
50.5268
50.5266
50.5265
50.5263
50.5261
50.5259
50.5257
50.5255
50.5254
50.5252
50.525
50.5249
50.5248
50.5247
50.5247
50.5247
50.5247
50.5248
50.5249
50.525
50.5252
50.5254
50.5257
50.526
50.5263
50.5266
50.5269
50.5272
50.5275
50.5278
50.5281
50.5283
50.5285
50.5286
50.5287
50.5287
50.5287
50.5287
50.5286
50.5285
50.5284
50.5282
50.528
50.5278
50.5276
50.5274
50.5271
50.5269
50.5266
50.5263
50.5261
50.5258
50.5256
50.5255
50.5253
50.5253
50.5252
50.5257
50.523
50.4677
50.4677
50.4677
50.4677
50.4677
50.4677
50.4677
50.4677
50.4677
50.4677
50.4677
50.4677
50.4677
50.4677
50.4677
50.4677
50.4677
50.4677
50.4677
50.4677
50.4677
50.4677
50.4677
50.4677
50.4677
50.4677
50.4677
50.4677
50.4677
50.4677
50.4677
50.4677
50.4677
50.4677
50.4677
50.4677
50.4677
50.4677
50.4677
50.4677
50.4678
50.4678
50.4678
50.4678
50.4678
50.4679
50.4679
50.468
50.468
50.4682
50.4683
50.4685
50.4687
50.4689
50.4693
50.4697
50.4702
50.4707
50.4714
50.4722
50.4732
50.4743
50.4755
50.4769
50.4784
50.48
50.4818
50.4837
50.4857
50.4877
50.4898
50.4918
50.4938
50.4957
50.4974
50.499
50.5003
50.5014
50.5022
50.5028
50.5031
50.5031
50.503
50.5026
50.5021
50.5015
50.5009
50.5003
50.4997
50.4992
50.4988
50.4985
50.4985
50.4986
50.4988
50.4993
50.4999
50.5006
50.5014
50.5024
50.5034
50.5044
50.5055
50.5066
50.5077
50.5089
50.5099
50.511
50.5121
50.5131
50.5141
50.515
50.516
50.5168
50.5177
50.5185
50.5193
50.5201
50.5208
50.5215
50.5222
50.5228
50.5234
50.5239
50.5244
50.5249
50.5253
50.5257
50.526
50.5263
50.5266
50.5268
50.5269
50.5271
50.5271
50.5272
50.5272
50.5272
50.5271
50.527
50.5269
50.5268
50.5267
50.5265
50.5263
50.5261
50.5259
50.5257
50.5256
50.5254
50.5252
50.5251
50.5249
50.5248
50.5248
50.5247
50.5247
50.5247
50.5248
50.5249
50.5251
50.5252
50.5255
50.5257
50.526
50.5263
50.5266
50.5269
50.5272
50.5275
50.5278
50.5281
50.5283
50.5285
50.5286
50.5287
50.5287
50.5287
50.5287
50.5286
50.5285
50.5284
50.5282
50.528
50.5278
50.5276
50.5274
50.5271
50.5269
50.5266
50.5264
50.5261
50.5259
50.5256
50.5255
50.5253
50.5253
50.5252
50.5256
50.5233
50.4677
50.4677
50.4677
50.4677
50.4677
50.4677
50.4677
50.4677
50.4677
50.4677
50.4677
50.4677
50.4677
50.4677
50.4677
50.4677
50.4677
50.4677
50.4677
50.4677
50.4677
50.4677
50.4677
50.4677
50.4677
50.4677
50.4677
50.4677
50.4677
50.4677
50.4677
50.4677
50.4677
50.4677
50.4677
50.4677
50.4677
50.4677
50.4677
50.4677
50.4678
50.4678
50.4678
50.4678
50.4678
50.4679
50.4679
50.468
50.468
50.4682
50.4683
50.4685
50.4687
50.4689
50.4693
50.4697
50.4702
50.4707
50.4714
50.4722
50.4732
50.4743
50.4755
50.4769
50.4784
50.48
50.4818
50.4837
50.4857
50.4877
50.4898
50.4918
50.4938
50.4957
50.4974
50.499
50.5003
50.5014
50.5022
50.5028
50.5031
50.5031
50.503
50.5026
50.5021
50.5015
50.5009
50.5003
50.4997
50.4992
50.4988
50.4985
50.4985
50.4986
50.4988
50.4993
50.4999
50.5006
50.5014
50.5024
50.5034
50.5044
50.5055
50.5066
50.5077
50.5089
50.5099
50.511
50.5121
50.5131
50.5141
50.515
50.516
50.5168
50.5177
50.5185
50.5193
50.5201
50.5208
50.5215
50.5222
50.5228
50.5234
50.5239
50.5244
50.5249
50.5253
50.5257
50.526
50.5263
50.5266
50.5268
50.5269
50.5271
50.5271
50.5272
50.5272
50.5272
50.5271
50.527
50.5269
50.5268
50.5267
50.5265
50.5263
50.5261
50.5259
50.5257
50.5256
50.5254
50.5252
50.5251
50.5249
50.5248
50.5248
50.5247
50.5247
50.5247
50.5248
50.5249
50.5251
50.5252
50.5255
50.5257
50.526
50.5263
50.5266
50.5269
50.5272
50.5275
50.5278
50.5281
50.5283
50.5285
50.5286
50.5287
50.5287
50.5287
50.5287
50.5286
50.5285
50.5284
50.5282
50.528
50.5278
50.5276
50.5274
50.5271
50.5269
50.5266
50.5264
50.5261
50.5259
50.5257
50.5255
50.5253
50.5253
50.5252
50.5253
50.5254
50.4677
50.4677
50.4677
50.4677
50.4677
50.4677
50.4677
50.4677
50.4677
50.4677
50.4677
50.4677
50.4677
50.4677
50.4677
50.4677
50.4677
50.4677
50.4677
50.4677
50.4677
50.4677
50.4677
50.4677
50.4677
50.4677
50.4677
50.4677
50.4677
50.4677
50.4677
50.4677
50.4677
50.4677
50.4677
50.4677
50.4677
50.4677
50.4677
50.4677
50.4678
50.4678
50.4678
50.4678
50.4678
50.4679
50.4679
50.468
50.468
50.4682
50.4683
50.4685
50.4687
50.4689
50.4693
50.4697
50.4702
50.4707
50.4714
50.4722
50.4732
50.4743
50.4755
50.4769
50.4784
50.48
50.4818
50.4837
50.4857
50.4877
50.4898
50.4918
50.4938
50.4957
50.4974
50.499
50.5003
50.5014
50.5022
50.5028
50.5031
50.5031
50.503
50.5026
50.5021
50.5015
50.5009
50.5003
50.4997
50.4992
50.4988
50.4985
50.4985
50.4986
50.4988
50.4993
50.4999
50.5006
50.5014
50.5024
50.5034
50.5044
50.5055
50.5066
50.5077
50.5089
50.5099
50.511
50.5121
50.5131
50.5141
50.515
50.516
50.5168
50.5177
50.5185
50.5193
50.5201
50.5208
50.5215
50.5222
50.5228
50.5234
50.5239
50.5244
50.5249
50.5253
50.5257
50.526
50.5263
50.5266
50.5268
50.5269
50.5271
50.5271
50.5272
50.5272
50.5272
50.5271
50.527
50.5269
50.5268
50.5267
50.5265
50.5263
50.5261
50.5259
50.5257
50.5256
50.5254
50.5252
50.5251
50.5249
50.5248
50.5248
50.5247
50.5247
50.5247
50.5248
50.5249
50.5251
50.5252
50.5255
50.5257
50.526
50.5263
50.5266
50.5269
50.5272
50.5275
50.5278
50.5281
50.5283
50.5285
50.5286
50.5287
50.5287
50.5287
50.5287
50.5286
50.5285
50.5284
50.5282
50.528
50.5278
50.5276
50.5274
50.5271
50.5269
50.5266
50.5264
50.5261
50.5259
50.5257
50.5255
50.5254
50.5252
50.5253
50.5245
50.5307
50.4677
50.4677
50.4677
50.4677
50.4677
50.4677
50.4677
50.4677
50.4677
50.4677
50.4677
50.4677
50.4677
50.4677
50.4677
50.4677
50.4677
50.4677
50.4677
50.4677
50.4677
50.4677
50.4677
50.4677
50.4677
50.4677
50.4677
50.4677
50.4677
50.4677
50.4677
50.4677
50.4677
50.4677
50.4677
50.4677
50.4677
50.4677
50.4677
50.4677
50.4677
50.4677
50.4678
50.4678
50.4678
50.4678
50.4679
50.468
50.468
50.4681
50.4683
50.4684
50.4687
50.4689
50.4693
50.4697
50.4701
50.4707
50.4714
50.4722
50.4732
50.4743
50.4755
50.4768
50.4784
50.48
50.4818
50.4837
50.4857
50.4877
50.4898
50.4918
50.4938
50.4957
50.4974
50.499
50.5003
50.5014
50.5022
50.5028
50.5031
50.5031
50.5029
50.5026
50.5021
50.5015
50.5009
50.5002
50.4996
50.4991
50.4988
50.4985
50.4985
50.4986
50.4988
50.4993
50.4998
50.5006
50.5014
50.5023
50.5034
50.5044
50.5055
50.5066
50.5077
50.5088
50.5099
50.511
50.512
50.5131
50.5141
50.515
50.5159
50.5168
50.5177
50.5185
50.5193
50.5201
50.5208
50.5215
50.5222
50.5228
50.5234
50.5239
50.5244
50.5249
50.5253
50.5257
50.526
50.5263
50.5265
50.5267
50.5269
50.527
50.5271
50.5272
50.5272
50.5272
50.5271
50.527
50.5269
50.5268
50.5266
50.5265
50.5263
50.5261
50.5259
50.5257
50.5255
50.5254
50.5252
50.525
50.5249
50.5248
50.5247
50.5247
50.5247
50.5247
50.5248
50.5249
50.525
50.5252
50.5254
50.5257
50.526
50.5263
50.5266
50.5269
50.5272
50.5275
50.5278
50.5281
50.5283
50.5285
50.5286
50.5287
50.5287
50.5287
50.5287
50.5286
50.5285
50.5284
50.5282
50.528
50.5278
50.5276
50.5274
50.5271
50.5269
50.5266
50.5263
50.5261
50.5258
50.5256
50.5255
50.5253
50.5252
50.5254
50.5239
50.5363
50.5412
50.548
50.5487
50.5468
50.5451
50.5434
50.542
50.5418
50.543
50.5419
50.5364
50.5259
50.5159
50.508
50.5004
50.4934
50.4908
50.498
50.5099
50.5119
50.5377
50.5411
50.5408
50.5391
50.5374
50.5358
50.5344
50.5345
50.5359
50.5345
50.5277
50.5166
50.5072
50.4997
50.4925
50.4863
50.4837
50.4931
50.5033
50.5014
50.5263
50.5262
50.5252
50.5231
50.5204
50.5169
50.5126
50.5074
50.5011
50.4946
50.4879
50.4812
50.4734
50.4643
50.4542
50.4435
50.4317
50.4183
50.4052
50.3935
50.5037
50.5007
50.5016
50.5032
50.5023
50.4986
50.4934
50.4863
50.4802
50.4728
50.4661
50.4591
50.4526
50.4461
50.4403
50.4353
50.4311
50.4274
50.4246
50.4226
50.494
50.4819
50.4774
50.4769
50.4748
50.4699
50.4634
50.4553
50.4477
50.4389
50.4308
50.4223
50.4145
50.4068
50.4003
50.3939
50.3888
50.3841
50.3807
50.379
50.4393
50.4085
50.4175
50.4128
50.3153
50.1269
50.072
50.1123
50.3098
50.4921
50.5527
50.5536
50.5193
50.469
50.4418
50.429
50.4237
50.4217
50.4211
50.421
50.4213
50.4217
50.4223
50.423
50.4237
50.4246
50.4256
50.4266
50.4278
50.429
50.4304
50.4318
50.4333
50.4348
50.4363
50.4379
50.4395
50.441
50.4426
50.444
50.4454
50.4466
50.4478
50.4488
50.4497
50.4504
50.451
50.4515
50.4518
50.4519
50.4519
50.4519
50.4517
50.4515
50.4512
50.4509
50.4506
50.4503
50.45
50.4498
50.4496
50.4495
50.4496
50.4496
50.4498
50.4501
50.4505
50.4509
50.4514
50.452
50.4527
50.4533
50.4541
50.4548
50.4556
50.4563
50.4571
50.4579
50.4586
50.4594
50.4601
50.4609
50.4616
50.4623
50.4629
50.4636
50.4642
50.4648
50.4655
50.4661
50.4666
50.4672
50.4678
50.4684
50.4689
50.4694
50.47
50.4705
50.471
50.4716
50.4721
50.4726
50.4731
50.4736
50.4741
50.4746
50.4751
50.4756
50.4761
50.4767
50.4772
50.4778
50.4783
50.4789
50.4795
50.4802
50.4808
50.4815
50.4823
50.4831
50.484
50.485
50.486
50.4871
50.4883
50.4895
50.4909
50.4924
50.494
50.4956
50.4974
50.4993
50.5012
50.5033
50.5054
50.5076
50.5098
50.512
50.5142
50.5164
50.5186
50.5207
50.5227
50.5246
50.5263
50.5279
50.5293
50.5306
50.5316
50.5325
50.5332
50.5336
50.5339
50.534
50.5339
50.5337
50.5334
50.5329
50.5324
50.5318
50.5312
50.5305
50.5299
50.5293
50.5288
50.5283
50.5279
50.5276
50.5274
50.5274
50.5275
50.5278
50.5282
50.5288
50.5295
50.5304
50.5314
50.5326
50.5339
50.5354
50.5369
50.5385
50.5403
50.5421
50.5439
50.5458
50.5477
50.5497
50.5516
50.5535
50.5554
50.5572
50.559
50.5609
50.5625
50.5643
50.5658
50.5675
50.5679
50.5781
50.434
50.4078
50.4209
50.428
50.4109
50.3754
50.3634
50.3702
50.391
50.4011
50.4031
50.4041
50.4075
50.4138
50.4176
50.4193
50.42
50.4204
50.4207
50.4209
50.4213
50.4217
50.4223
50.423
50.4237
50.4246
50.4256
50.4266
50.4278
50.4291
50.4304
50.4318
50.4333
50.4348
50.4364
50.4379
50.4395
50.4411
50.4426
50.444
50.4454
50.4466
50.4478
50.4488
50.4497
50.4505
50.451
50.4515
50.4518
50.4519
50.452
50.4519
50.4517
50.4515
50.4512
50.4509
50.4506
50.4503
50.45
50.4498
50.4496
50.4496
50.4496
50.4497
50.4499
50.4501
50.4505
50.4509
50.4515
50.452
50.4527
50.4534
50.4541
50.4548
50.4556
50.4564
50.4571
50.4579
50.4587
50.4594
50.4601
50.4609
50.4616
50.4623
50.4629
50.4636
50.4642
50.4649
50.4655
50.4661
50.4667
50.4672
50.4678
50.4684
50.4689
50.4695
50.47
50.4705
50.471
50.4716
50.4721
50.4726
50.4731
50.4736
50.4741
50.4746
50.4751
50.4756
50.4762
50.4767
50.4772
50.4778
50.4783
50.4789
50.4795
50.4802
50.4808
50.4815
50.4823
50.4831
50.484
50.485
50.486
50.4871
50.4883
50.4895
50.4909
50.4924
50.494
50.4956
50.4974
50.4993
50.5013
50.5033
50.5054
50.5076
50.5098
50.512
50.5142
50.5164
50.5186
50.5207
50.5227
50.5246
50.5263
50.5279
50.5293
50.5306
50.5317
50.5325
50.5332
50.5336
50.5339
50.534
50.534
50.5337
50.5334
50.533
50.5324
50.5318
50.5312
50.5306
50.5299
50.5293
50.5288
50.5283
50.5279
50.5276
50.5275
50.5274
50.5276
50.5278
50.5282
50.5288
50.5295
50.5304
50.5314
50.5326
50.5339
50.5354
50.5369
50.5386
50.5403
50.5421
50.5439
50.5458
50.5478
50.5497
50.5516
50.5535
50.5554
50.5573
50.5591
50.5609
50.5626
50.5643
50.5658
50.5675
50.5683
50.5735
50.3719
50.3844
50.3946
50.3996
50.4083
50.4133
50.4158
50.4173
50.4176
50.4182
50.419
50.4197
50.4201
50.4203
50.4202
50.42
50.4201
50.4202
50.4204
50.4208
50.4212
50.4217
50.4223
50.423
50.4237
50.4246
50.4256
50.4266
50.4278
50.4291
50.4304
50.4318
50.4333
50.4348
50.4364
50.4379
50.4395
50.4411
50.4426
50.444
50.4454
50.4466
50.4478
50.4488
50.4497
50.4505
50.451
50.4515
50.4518
50.4519
50.452
50.4519
50.4517
50.4515
50.4512
50.4509
50.4506
50.4503
50.45
50.4498
50.4496
50.4496
50.4496
50.4497
50.4499
50.4501
50.4505
50.4509
50.4515
50.452
50.4527
50.4534
50.4541
50.4548
50.4556
50.4564
50.4571
50.4579
50.4587
50.4594
50.4601
50.4609
50.4616
50.4623
50.4629
50.4636
50.4642
50.4649
50.4655
50.4661
50.4667
50.4672
50.4678
50.4684
50.4689
50.4695
50.47
50.4705
50.471
50.4716
50.4721
50.4726
50.4731
50.4736
50.4741
50.4746
50.4751
50.4756
50.4762
50.4767
50.4772
50.4778
50.4783
50.4789
50.4795
50.4802
50.4808
50.4815
50.4823
50.4831
50.484
50.485
50.486
50.4871
50.4883
50.4895
50.4909
50.4924
50.494
50.4956
50.4974
50.4993
50.5013
50.5033
50.5054
50.5076
50.5098
50.512
50.5142
50.5164
50.5186
50.5207
50.5227
50.5246
50.5263
50.5279
50.5293
50.5306
50.5317
50.5325
50.5332
50.5336
50.5339
50.534
50.534
50.5337
50.5334
50.533
50.5324
50.5318
50.5312
50.5306
50.5299
50.5293
50.5288
50.5283
50.5279
50.5276
50.5275
50.5274
50.5276
50.5278
50.5282
50.5288
50.5295
50.5304
50.5314
50.5326
50.5339
50.5354
50.5369
50.5386
50.5403
50.5421
50.5439
50.5458
50.5478
50.5497
50.5516
50.5535
50.5554
50.5572
50.5591
50.5608
50.5626
50.5643
50.5659
50.5675
50.5691
50.5706
50.4142
50.4121
50.4129
50.41
50.4062
50.4062
50.4076
50.4067
50.4012
50.4004
50.4034
50.4121
50.4186
50.4209
50.4214
50.4212
50.4207
50.4205
50.4206
50.4209
50.4212
50.4217
50.4223
50.423
50.4237
50.4246
50.4256
50.4266
50.4278
50.4291
50.4304
50.4318
50.4333
50.4348
50.4364
50.4379
50.4395
50.4411
50.4426
50.444
50.4454
50.4466
50.4478
50.4488
50.4497
50.4505
50.451
50.4515
50.4518
50.4519
50.452
50.4519
50.4517
50.4515
50.4512
50.4509
50.4506
50.4503
50.45
50.4498
50.4496
50.4496
50.4496
50.4497
50.4499
50.4501
50.4505
50.4509
50.4515
50.452
50.4527
50.4534
50.4541
50.4548
50.4556
50.4564
50.4571
50.4579
50.4587
50.4594
50.4601
50.4609
50.4616
50.4623
50.4629
50.4636
50.4642
50.4649
50.4655
50.4661
50.4667
50.4672
50.4678
50.4684
50.4689
50.4695
50.47
50.4705
50.471
50.4716
50.4721
50.4726
50.4731
50.4736
50.4741
50.4746
50.4751
50.4756
50.4762
50.4767
50.4772
50.4778
50.4783
50.4789
50.4795
50.4802
50.4808
50.4815
50.4823
50.4831
50.484
50.485
50.486
50.4871
50.4883
50.4895
50.4909
50.4924
50.494
50.4956
50.4974
50.4993
50.5013
50.5033
50.5054
50.5076
50.5098
50.512
50.5142
50.5164
50.5186
50.5207
50.5227
50.5246
50.5263
50.5279
50.5293
50.5306
50.5317
50.5325
50.5332
50.5336
50.5339
50.534
50.534
50.5337
50.5334
50.533
50.5324
50.5318
50.5312
50.5306
50.5299
50.5293
50.5288
50.5283
50.5279
50.5276
50.5275
50.5274
50.5276
50.5278
50.5282
50.5288
50.5295
50.5304
50.5314
50.5326
50.5339
50.5354
50.5369
50.5386
50.5403
50.5421
50.5439
50.5458
50.5478
50.5497
50.5516
50.5535
50.5554
50.5572
50.5591
50.5608
50.5626
50.5643
50.566
50.5676
50.5696
50.5698
50.3993
50.4033
50.4033
50.4002
50.3995
50.4135
50.4322
50.4314
50.3926
50.3228
50.299
50.3021
50.3319
50.3747
50.3992
50.4112
50.4166
50.4189
50.42
50.4206
50.4211
50.4217
50.4223
50.4229
50.4237
50.4246
50.4256
50.4266
50.4278
50.429
50.4304
50.4318
50.4333
50.4348
50.4363
50.4379
50.4395
50.441
50.4426
50.444
50.4454
50.4466
50.4478
50.4488
50.4497
50.4504
50.451
50.4515
50.4518
50.4519
50.4519
50.4519
50.4517
50.4515
50.4512
50.4509
50.4506
50.4503
50.45
50.4498
50.4496
50.4495
50.4496
50.4496
50.4498
50.4501
50.4505
50.4509
50.4514
50.452
50.4527
50.4533
50.4541
50.4548
50.4556
50.4563
50.4571
50.4579
50.4586
50.4594
50.4601
50.4609
50.4616
50.4623
50.4629
50.4636
50.4642
50.4648
50.4655
50.4661
50.4666
50.4672
50.4678
50.4684
50.4689
50.4694
50.47
50.4705
50.471
50.4716
50.4721
50.4726
50.4731
50.4736
50.4741
50.4746
50.4751
50.4756
50.4761
50.4767
50.4772
50.4778
50.4783
50.4789
50.4795
50.4802
50.4808
50.4815
50.4823
50.4831
50.484
50.485
50.486
50.4871
50.4883
50.4895
50.4909
50.4924
50.494
50.4956
50.4974
50.4993
50.5012
50.5033
50.5054
50.5076
50.5098
50.512
50.5142
50.5164
50.5186
50.5207
50.5227
50.5246
50.5263
50.5279
50.5293
50.5306
50.5316
50.5325
50.5332
50.5336
50.5339
50.534
50.5339
50.5337
50.5334
50.5329
50.5324
50.5318
50.5312
50.5305
50.5299
50.5293
50.5288
50.5283
50.5279
50.5276
50.5274
50.5274
50.5275
50.5278
50.5282
50.5288
50.5295
50.5304
50.5314
50.5326
50.5339
50.5354
50.5369
50.5385
50.5403
50.5421
50.5439
50.5458
50.5477
50.5497
50.5516
50.5535
50.5554
50.5572
50.5591
50.5608
50.5626
50.5642
50.566
50.5675
50.5696
50.5696
50.5429
50.5306
50.5262
50.5257
50.5237
50.5191
50.5127
50.506
50.4982
50.4906
50.4827
50.4746
50.4673
50.4602
50.454
50.4481
50.4434
50.4391
50.436
50.4346
50.5516
50.5486
50.5495
50.5511
50.5503
50.5469
50.5414
50.5364
50.5293
50.5237
50.5169
50.5103
50.5042
50.4982
50.4928
50.4884
50.4846
50.4812
50.4787
50.4769
50.5721
50.5725
50.5717
50.57
50.5677
50.5646
50.5608
50.5558
50.5502
50.5441
50.538
50.5316
50.5242
50.5154
50.5059
50.4956
50.4843
50.4715
50.4592
50.4483
50.5823
50.5861
50.5864
50.5851
50.5839
50.5829
50.582
50.5825
50.5839
50.5821
50.5753
50.5649
50.5565
50.5496
50.5431
50.5378
50.5369
50.5466
50.5561
50.5541
50.5858
50.5929
50.594
50.5925
50.5912
50.5901
50.5891
50.5894
50.5907
50.5893
50.5836
50.5736
50.5646
50.5574
50.5505
50.5445
50.5435
50.551
50.5626
50.5641
50.455
50.4598
50.4606
50.4582
50.4568
50.4669
50.49
50.4933
50.4679
50.3944
50.3596
50.3584
50.3793
50.4245
50.4529
50.4674
50.4739
50.4764
50.4773
50.4774
50.4773
50.4771
50.4768
50.4764
50.4761
50.4758
50.4755
50.4751
50.4748
50.4745
50.4742
50.4739
50.4736
50.4733
50.473
50.4728
50.4726
50.4724
50.4723
50.4722
50.4721
50.4721
50.4721
50.4722
50.4723
50.4724
50.4726
50.4728
50.4731
50.4734
50.4737
50.4741
50.4745
50.4749
50.4753
50.4758
50.4762
50.4766
50.477
50.4774
50.4778
50.4781
50.4784
50.4787
50.4789
50.4791
50.4793
50.4794
50.4794
50.4795
50.4794
50.4793
50.4792
50.4791
50.4789
50.4787
50.4785
50.4782
50.478
50.4777
50.4774
50.477
50.4767
50.4764
50.476
50.4757
50.4753
50.475
50.4746
50.4742
50.4739
50.4736
50.4733
50.4731
50.4729
50.4728
50.4726
50.4726
50.4714
50.4796
50.4696
50.4684
50.4695
50.4685
50.4635
50.4632
50.4654
50.467
50.4648
50.4626
50.464
50.4692
50.4761
50.4793
50.4801
50.4799
50.4792
50.4785
50.4781
50.4777
50.4774
50.4771
50.4768
50.4765
50.4761
50.4758
50.4755
50.4751
50.4748
50.4745
50.4742
50.4739
50.4736
50.4733
50.473
50.4728
50.4726
50.4724
50.4723
50.4722
50.4721
50.4721
50.4721
50.4722
50.4723
50.4724
50.4726
50.4729
50.4731
50.4734
50.4738
50.4741
50.4745
50.4749
50.4754
50.4758
50.4762
50.4766
50.477
50.4774
50.4778
50.4781
50.4785
50.4787
50.479
50.4791
50.4793
50.4794
50.4795
50.4795
50.4794
50.4794
50.4793
50.4791
50.4789
50.4787
50.4785
50.4782
50.478
50.4777
50.4774
50.4771
50.4767
50.4764
50.476
50.4757
50.4753
50.475
50.4746
50.4743
50.4739
50.4736
50.4734
50.4731
50.4729
50.4728
50.4726
50.4726
50.4718
50.4751
50.4284
50.4402
50.4504
50.4547
50.4633
50.4697
50.4729
50.4751
50.4759
50.4766
50.4776
50.4784
50.4791
50.4793
50.4792
50.4788
50.4784
50.4782
50.4779
50.4776
50.4774
50.4771
50.4768
50.4765
50.4761
50.4758
50.4755
50.4751
50.4748
50.4745
50.4742
50.4739
50.4736
50.4733
50.473
50.4728
50.4726
50.4724
50.4723
50.4722
50.4721
50.4721
50.4721
50.4722
50.4723
50.4724
50.4726
50.4729
50.4731
50.4734
50.4738
50.4741
50.4745
50.4749
50.4754
50.4758
50.4762
50.4766
50.477
50.4774
50.4778
50.4781
50.4785
50.4787
50.479
50.4791
50.4793
50.4794
50.4795
50.4795
50.4794
50.4794
50.4793
50.4791
50.4789
50.4787
50.4785
50.4782
50.478
50.4777
50.4774
50.4771
50.4767
50.4764
50.476
50.4757
50.4753
50.475
50.4746
50.4743
50.4739
50.4736
50.4734
50.4731
50.4729
50.4728
50.4727
50.4726
50.4726
50.4727
50.4885
50.4627
50.4759
50.4861
50.4741
50.4384
50.4195
50.4236
50.4444
50.4604
50.4647
50.4658
50.468
50.4729
50.4764
50.478
50.4784
50.4784
50.4782
50.4778
50.4775
50.4771
50.4768
50.4765
50.4761
50.4758
50.4755
50.4751
50.4748
50.4745
50.4742
50.4739
50.4736
50.4733
50.473
50.4728
50.4726
50.4724
50.4723
50.4722
50.4721
50.4721
50.4721
50.4722
50.4723
50.4724
50.4726
50.4729
50.4731
50.4734
50.4738
50.4741
50.4745
50.4749
50.4754
50.4758
50.4762
50.4766
50.477
50.4774
50.4778
50.4781
50.4785
50.4787
50.479
50.4791
50.4793
50.4794
50.4795
50.4795
50.4794
50.4794
50.4793
50.4791
50.4789
50.4787
50.4785
50.4782
50.478
50.4777
50.4774
50.4771
50.4767
50.4764
50.476
50.4757
50.4753
50.475
50.4746
50.4743
50.4739
50.4736
50.4734
50.4731
50.4729
50.4728
50.4727
50.4726
50.4731
50.4721
50.4941
50.4638
50.4737
50.4777
50.4124
50.23
50.1448
50.1624
50.315
50.52
50.6028
50.6129
50.5903
50.5379
50.506
50.4902
50.4832
50.4801
50.4787
50.478
50.4775
50.4771
50.4768
50.4765
50.4761
50.4758
50.4755
50.4751
50.4748
50.4745
50.4742
50.4739
50.4736
50.4733
50.473
50.4728
50.4726
50.4724
50.4723
50.4722
50.4721
50.4721
50.4721
50.4722
50.4723
50.4724
50.4726
50.4728
50.4731
50.4734
50.4737
50.4741
50.4745
50.4749
50.4753
50.4758
50.4762
50.4766
50.477
50.4774
50.4778
50.4781
50.4784
50.4787
50.4789
50.4791
50.4793
50.4794
50.4794
50.4795
50.4794
50.4793
50.4792
50.4791
50.4789
50.4787
50.4785
50.4782
50.478
50.4777
50.4774
50.477
50.4767
50.4764
50.476
50.4757
50.4753
50.4749
50.4746
50.4742
50.4739
50.4736
50.4734
50.4731
50.4729
50.4728
50.4727
50.4726
50.4731
50.4719
50.4438
50.4311
50.4264
50.4255
50.4232
50.4182
50.4119
50.4047
50.3967
50.3888
50.3807
50.3724
50.3649
50.3574
50.3511
50.3449
50.34
50.3355
50.3322
50.3306
50.4525
50.4493
50.4499
50.4511
50.45
50.4461
50.4408
50.4353
50.428
50.4221
50.4151
50.4082
50.4019
50.3956
50.39
50.3853
50.3813
50.3777
50.375
50.373
50.4734
50.4734
50.4724
50.4704
50.4677
50.4644
50.4602
50.455
50.4492
50.4428
50.4364
50.4299
50.4222
50.4132
50.4033
50.3928
50.3812
50.3682
50.3557
50.3446
50.4838
50.4873
50.4872
50.4856
50.4841
50.4826
50.4815
50.4818
50.4828
50.4807
50.4736
50.463
50.4545
50.4474
50.4407
50.4353
50.4345
50.4439
50.4528
50.45
50.4872
50.494
50.4948
50.493
50.4914
50.4899
50.4887
50.4889
50.4898
50.4881
50.4819
50.4717
50.4626
50.4552
50.448
50.442
50.4411
50.4484
50.4595
50.4601
50.3506
50.3546
50.3549
50.3521
50.3517
50.3659
50.3825
50.3805
50.3379
50.2725
50.2528
50.2579
50.2908
50.3318
50.3547
50.366
50.3713
50.3739
50.3753
50.3764
50.3774
50.3784
50.3796
50.3808
50.3822
50.3836
50.3853
50.387
50.3888
50.3908
50.3928
50.395
50.3972
50.3995
50.4019
50.4042
50.4066
50.409
50.4113
50.4135
50.4156
50.4177
50.4195
50.4212
50.4228
50.4241
50.4252
50.4261
50.4268
50.4272
50.4275
50.4275
50.4274
50.4271
50.4266
50.4261
50.4254
50.4247
50.4239
50.4231
50.4224
50.4216
50.421
50.4204
50.42
50.4196
50.4194
50.4194
50.4195
50.4198
50.4202
50.4208
50.4216
50.4225
50.4236
50.4249
50.4262
50.4277
50.4293
50.431
50.4328
50.4347
50.4366
50.4385
50.4405
50.4425
50.4445
50.4465
50.4484
50.4503
50.4522
50.454
50.4558
50.4575
50.4591
50.4607
50.4621
50.4635
50.4649
50.4662
50.4673
50.4685
50.4695
50.4705
50.4715
50.4723
50.4732
50.4739
50.4747
50.4754
50.476
50.4767
50.4773
50.4778
50.4784
50.4789
50.4794
50.4799
50.4803
50.4808
50.4813
50.4817
50.4821
50.4825
50.483
50.4834
50.4838
50.4842
50.4847
50.4851
50.4855
50.486
50.4865
50.487
50.4875
50.488
50.4885
50.4891
50.4897
50.4903
50.4909
50.4915
50.4922
50.4929
50.4935
50.4942
50.4949
50.4956
50.4962
50.4968
50.4974
50.4979
50.4984
50.4989
50.4992
50.4995
50.4997
50.4998
50.4999
50.4998
50.4997
50.4995
50.4993
50.4989
50.4986
50.4982
50.4977
50.4973
50.4969
50.4965
50.4961
50.4958
50.4956
50.4955
50.4955
50.4956
50.4959
50.4962
50.4967
50.4972
50.4979
50.4987
50.4996
50.5006
50.5016
50.5027
50.5038
50.505
50.5061
50.5073
50.5084
50.5096
50.5107
50.5118
50.5129
50.514
50.515
50.516
50.5175
50.5169
50.365
50.3632
50.3642
50.3617
50.3576
50.3579
50.3599
50.3608
50.3577
50.357
50.3593
50.3659
50.3716
50.374
50.3747
50.375
50.375
50.3753
50.3758
50.3766
50.3775
50.3785
50.3796
50.3808
50.3822
50.3837
50.3853
50.387
50.3888
50.3908
50.3929
50.395
50.3972
50.3995
50.4019
50.4042
50.4066
50.409
50.4113
50.4135
50.4157
50.4177
50.4195
50.4213
50.4228
50.4241
50.4252
50.4261
50.4268
50.4273
50.4275
50.4276
50.4274
50.4271
50.4267
50.4261
50.4254
50.4247
50.4239
50.4231
50.4224
50.4216
50.421
50.4204
50.42
50.4196
50.4194
50.4194
50.4195
50.4198
50.4202
50.4208
50.4216
50.4225
50.4236
50.4249
50.4262
50.4277
50.4293
50.431
50.4328
50.4347
50.4366
50.4385
50.4405
50.4425
50.4445
50.4465
50.4484
50.4503
50.4522
50.454
50.4558
50.4575
50.4591
50.4607
50.4621
50.4636
50.4649
50.4662
50.4674
50.4685
50.4695
50.4705
50.4715
50.4723
50.4732
50.474
50.4747
50.4754
50.4761
50.4767
50.4773
50.4778
50.4784
50.4789
50.4794
50.4799
50.4804
50.4808
50.4813
50.4817
50.4821
50.4826
50.483
50.4834
50.4838
50.4842
50.4847
50.4851
50.4856
50.486
50.4865
50.487
50.4875
50.488
50.4886
50.4891
50.4897
50.4903
50.4909
50.4916
50.4922
50.4929
50.4936
50.4942
50.4949
50.4956
50.4962
50.4968
50.4974
50.498
50.4984
50.4989
50.4992
50.4995
50.4997
50.4999
50.4999
50.4999
50.4997
50.4995
50.4993
50.499
50.4986
50.4982
50.4977
50.4973
50.4969
50.4965
50.4961
50.4959
50.4957
50.4956
50.4955
50.4956
50.4959
50.4962
50.4967
50.4973
50.498
50.4987
50.4996
50.5006
50.5016
50.5027
50.5038
50.505
50.5061
50.5073
50.5085
50.5096
50.5107
50.5118
50.5129
50.514
50.515
50.5161
50.5175
50.5171
50.3239
50.3356
50.3454
50.3499
50.3585
50.3637
50.3663
50.3682
50.3689
50.3699
50.371
50.3721
50.3729
50.3734
50.3737
50.374
50.3744
50.375
50.3757
50.3765
50.3774
50.3785
50.3796
50.3808
50.3822
50.3837
50.3853
50.387
50.3888
50.3908
50.3929
50.395
50.3972
50.3995
50.4019
50.4042
50.4066
50.409
50.4113
50.4135
50.4157
50.4177
50.4195
50.4213
50.4228
50.4241
50.4252
50.4261
50.4268
50.4273
50.4275
50.4276
50.4274
50.4271
50.4267
50.4261
50.4254
50.4247
50.4239
50.4231
50.4224
50.4216
50.421
50.4204
50.42
50.4196
50.4194
50.4194
50.4195
50.4198
50.4202
50.4208
50.4216
50.4225
50.4236
50.4249
50.4262
50.4277
50.4293
50.431
50.4328
50.4347
50.4366
50.4385
50.4405
50.4425
50.4445
50.4465
50.4484
50.4503
50.4522
50.454
50.4558
50.4575
50.4591
50.4607
50.4621
50.4636
50.4649
50.4662
50.4674
50.4685
50.4695
50.4705
50.4715
50.4723
50.4732
50.474
50.4747
50.4754
50.4761
50.4767
50.4773
50.4778
50.4784
50.4789
50.4794
50.4799
50.4804
50.4808
50.4813
50.4817
50.4821
50.4826
50.483
50.4834
50.4838
50.4842
50.4847
50.4851
50.4856
50.486
50.4865
50.487
50.4875
50.488
50.4886
50.4891
50.4897
50.4903
50.4909
50.4916
50.4922
50.4929
50.4936
50.4942
50.4949
50.4956
50.4962
50.4968
50.4974
50.498
50.4984
50.4989
50.4992
50.4995
50.4997
50.4999
50.4999
50.4999
50.4997
50.4995
50.4993
50.499
50.4986
50.4982
50.4977
50.4973
50.4969
50.4965
50.4961
50.4959
50.4957
50.4956
50.4955
50.4956
50.4959
50.4962
50.4967
50.4973
50.498
50.4987
50.4996
50.5006
50.5016
50.5027
50.5038
50.505
50.5061
50.5073
50.5085
50.5096
50.5107
50.5118
50.5129
50.514
50.515
50.516
50.517
50.5179
50.382
50.3575
50.3711
50.3785
50.3613
50.3255
50.3136
50.3209
50.3435
50.3558
50.3589
50.3605
50.3639
50.3689
50.372
50.3736
50.3745
50.3753
50.3759
50.3767
50.3775
50.3785
50.3796
50.3808
50.3822
50.3837
50.3853
50.387
50.3888
50.3908
50.3929
50.395
50.3972
50.3995
50.4019
50.4042
50.4066
50.409
50.4113
50.4135
50.4157
50.4177
50.4195
50.4213
50.4228
50.4241
50.4252
50.4261
50.4268
50.4273
50.4275
50.4276
50.4274
50.4271
50.4267
50.4261
50.4254
50.4247
50.4239
50.4231
50.4224
50.4216
50.421
50.4204
50.42
50.4196
50.4194
50.4194
50.4195
50.4198
50.4202
50.4208
50.4216
50.4225
50.4236
50.4249
50.4262
50.4277
50.4293
50.431
50.4328
50.4347
50.4366
50.4385
50.4405
50.4425
50.4445
50.4465
50.4484
50.4503
50.4522
50.454
50.4558
50.4575
50.4591
50.4607
50.4621
50.4636
50.4649
50.4662
50.4674
50.4685
50.4695
50.4705
50.4715
50.4723
50.4732
50.474
50.4747
50.4754
50.4761
50.4767
50.4773
50.4778
50.4784
50.4789
50.4794
50.4799
50.4804
50.4808
50.4813
50.4817
50.4821
50.4826
50.483
50.4834
50.4838
50.4842
50.4847
50.4851
50.4856
50.486
50.4865
50.487
50.4875
50.488
50.4886
50.4891
50.4897
50.4903
50.4909
50.4916
50.4922
50.4929
50.4936
50.4942
50.4949
50.4956
50.4962
50.4968
50.4974
50.498
50.4984
50.4989
50.4992
50.4995
50.4997
50.4999
50.4999
50.4999
50.4997
50.4995
50.4993
50.499
50.4986
50.4982
50.4977
50.4973
50.4969
50.4965
50.4961
50.4959
50.4957
50.4956
50.4955
50.4956
50.4959
50.4962
50.4967
50.4973
50.498
50.4987
50.4996
50.5006
50.5016
50.5027
50.5038
50.505
50.5061
50.5073
50.5085
50.5096
50.5107
50.5118
50.5129
50.514
50.515
50.516
50.5162
50.5209
50.3874
50.3588
50.3689
50.3663
50.2769
50.0997
50.0476
50.0862
50.2733
50.4427
50.4972
50.4971
50.4629
50.417
50.3929
50.382
50.3777
50.3763
50.3763
50.3768
50.3775
50.3785
50.3796
50.3808
50.3822
50.3836
50.3853
50.387
50.3888
50.3908
50.3928
50.395
50.3972
50.3995
50.4019
50.4042
50.4066
50.409
50.4113
50.4135
50.4156
50.4177
50.4195
50.4212
50.4228
50.4241
50.4252
50.4261
50.4268
50.4272
50.4275
50.4275
50.4274
50.4271
50.4266
50.4261
50.4254
50.4247
50.4239
50.4231
50.4224
50.4216
50.421
50.4204
50.42
50.4196
50.4194
50.4194
50.4195
50.4198
50.4202
50.4208
50.4216
50.4225
50.4236
50.4249
50.4262
50.4277
50.4293
50.431
50.4328
50.4347
50.4366
50.4385
50.4405
50.4425