/*--------------------------------*- C++ -*----------------------------------*\
| =========                 |                                                 |
| \\      /  F ield         | OpenFOAM: The Open Source CFD Toolbox           |
|  \\    /   O peration     | Version:  3.0.x                                 |
|   \\  /    A nd           | Web:      www.OpenFOAM.org                      |
|    \\/     M anipulation  |                                                 |
\*---------------------------------------------------------------------------*/
FoamFile
{
    version     2.0;
    format      ascii;
    class       volScalarField;
    location    "0.36";
    object      rho;
}
// * * * * * * * * * * * * * * * * * * * * * * * * * * * * * * * * * * * * * //

dimensions      [1 -3 0 0 0 0 0];

internalField   nonuniform List<scalar> 
6900
(
50.9137
50.9137
50.9137
50.9137
50.9136
50.9136
50.9136
50.9135
50.9135
50.9134
50.9134
50.9133
50.9133
50.9132
50.9132
50.9131
50.9131
50.9131
50.9133
50.9135
50.9136
50.9138
50.914
50.9141
50.9142
50.9142
50.9143
50.9144
50.9145
50.9147
50.9149
50.9151
50.9153
50.9156
50.9158
50.9161
50.9163
50.9165
50.9167
50.9167
50.9167
50.9167
50.9167
50.9167
50.9168
50.9169
50.917
50.9171
50.9172
50.9172
50.9173
50.9173
50.9173
50.9173
50.9173
50.9173
50.9173
50.9173
50.9173
50.9174
50.9174
50.9175
50.9175
50.9176
50.9176
50.9177
50.9178
50.9178
50.9179
50.9179
50.918
50.918
50.918
50.9181
50.918
50.918
50.918
50.918
50.9179
50.9179
50.9178
50.9177
50.9176
50.9176
50.9175
50.9174
50.9173
50.9173
50.9172
50.9172
50.9172
50.9172
50.9172
50.9172
50.9172
50.9173
50.9174
50.9175
50.9176
50.9177
50.9178
50.9179
50.918
50.9181
50.9182
50.9183
50.9184
50.9185
50.9185
50.9186
50.9186
50.9186
50.9186
50.9185
50.9185
50.9184
50.9183
50.9182
50.9182
50.9181
50.918
50.9179
50.9178
50.9178
50.9177
50.9177
50.9177
50.9177
50.9177
50.9178
50.9179
50.918
50.9182
50.9183
50.9185
50.9187
50.9189
50.9191
50.9193
50.9195
50.9197
50.9198
50.92
50.9201
50.9201
50.9202
50.9202
50.9202
50.9202
50.9201
50.92
50.9199
50.9198
50.9197
50.9196
50.9194
50.9193
50.9192
50.9191
50.919
50.9189
50.9188
50.9188
50.9188
50.9189
50.919
50.9191
50.9193
50.9195
50.9197
50.92
50.9202
50.9205
50.9208
50.9211
50.9214
50.9216
50.9218
50.922
50.9221
50.9222
50.9222
50.9221
50.9221
50.9219
50.9218
50.9216
50.9214
50.9213
50.9211
50.9209
50.9206
50.9204
50.9202
50.92
50.9198
50.9197
50.9195
50.9198
50.9169
50.9138
50.9139
50.9138
50.9138
50.9138
50.9138
50.9137
50.9137
50.9136
50.9136
50.9135
50.9135
50.9134
50.9134
50.9133
50.9133
50.9133
50.9133
50.9134
50.9136
50.9138
50.914
50.9141
50.9142
50.9143
50.9144
50.9144
50.9145
50.9146
50.9148
50.915
50.9152
50.9155
50.9157
50.916
50.9162
50.9165
50.9167
50.9168
50.9169
50.9169
50.9169
50.9168
50.9169
50.9169
50.917
50.9171
50.9172
50.9173
50.9174
50.9174
50.9174
50.9174
50.9174
50.9174
50.9174
50.9174
50.9174
50.9175
50.9175
50.9175
50.9176
50.9176
50.9177
50.9177
50.9178
50.9179
50.9179
50.918
50.918
50.9181
50.9181
50.9182
50.9182
50.9182
50.9181
50.9181
50.9181
50.918
50.918
50.9179
50.9178
50.9177
50.9177
50.9176
50.9175
50.9174
50.9174
50.9173
50.9173
50.9173
50.9173
50.9173
50.9173
50.9173
50.9174
50.9175
50.9176
50.9177
50.9178
50.9179
50.918
50.9181
50.9182
50.9183
50.9184
50.9185
50.9186
50.9186
50.9187
50.9187
50.9187
50.9187
50.9186
50.9186
50.9185
50.9184
50.9184
50.9183
50.9182
50.9181
50.918
50.9179
50.9179
50.9178
50.9178
50.9178
50.9178
50.9179
50.9179
50.918
50.9181
50.9183
50.9184
50.9186
50.9188
50.919
50.9192
50.9194
50.9196
50.9198
50.9199
50.9201
50.9202
50.9203
50.9203
50.9203
50.9203
50.9203
50.9202
50.9201
50.92
50.9199
50.9198
50.9197
50.9195
50.9194
50.9193
50.9192
50.9191
50.919
50.9189
50.9189
50.9189
50.919
50.9191
50.9192
50.9194
50.9196
50.9198
50.9201
50.9203
50.9206
50.9209
50.9212
50.9215
50.9217
50.9219
50.9221
50.9222
50.9223
50.9223
50.9222
50.9222
50.9221
50.9219
50.9217
50.9216
50.9214
50.9212
50.921
50.9207
50.9205
50.9203
50.9201
50.9199
50.9198
50.9196
50.9199
50.9173
50.9138
50.9138
50.9138
50.9138
50.9138
50.9138
50.9137
50.9137
50.9136
50.9136
50.9135
50.9135
50.9134
50.9134
50.9133
50.9133
50.9133
50.9133
50.9134
50.9136
50.9138
50.914
50.9141
50.9142
50.9143
50.9144
50.9144
50.9145
50.9146
50.9148
50.915
50.9152
50.9155
50.9157
50.916
50.9162
50.9165
50.9167
50.9168
50.9169
50.9169
50.9169
50.9168
50.9169
50.9169
50.917
50.9171
50.9172
50.9173
50.9174
50.9174
50.9174
50.9174
50.9174
50.9174
50.9174
50.9174
50.9174
50.9175
50.9175
50.9175
50.9176
50.9176
50.9177
50.9177
50.9178
50.9179
50.9179
50.918
50.918
50.9181
50.9181
50.9182
50.9182
50.9182
50.9181
50.9181
50.9181
50.918
50.918
50.9179
50.9178
50.9177
50.9177
50.9176
50.9175
50.9174
50.9174
50.9173
50.9173
50.9173
50.9173
50.9173
50.9173
50.9173
50.9174
50.9175
50.9176
50.9177
50.9178
50.9179
50.918
50.9181
50.9182
50.9183
50.9184
50.9185
50.9186
50.9186
50.9187
50.9187
50.9187
50.9187
50.9186
50.9186
50.9185
50.9184
50.9184
50.9183
50.9182
50.9181
50.918
50.9179
50.9179
50.9178
50.9178
50.9178
50.9178
50.9179
50.9179
50.918
50.9181
50.9183
50.9184
50.9186
50.9188
50.919
50.9192
50.9194
50.9196
50.9198
50.9199
50.9201
50.9202
50.9203
50.9203
50.9203
50.9203
50.9203
50.9202
50.9201
50.92
50.9199
50.9198
50.9197
50.9195
50.9194
50.9193
50.9192
50.9191
50.919
50.9189
50.9189
50.9189
50.919
50.9191
50.9192
50.9194
50.9196
50.9198
50.9201
50.9203
50.9206
50.9209
50.9212
50.9215
50.9217
50.9219
50.9221
50.9222
50.9223
50.9223
50.9222
50.9222
50.9221
50.9219
50.9217
50.9216
50.9214
50.9212
50.921
50.9207
50.9205
50.9203
50.9201
50.9199
50.9198
50.9196
50.9196
50.9195
50.9138
50.9139
50.9138
50.9138
50.9138
50.9138
50.9137
50.9137
50.9136
50.9136
50.9135
50.9135
50.9134
50.9134
50.9133
50.9133
50.9133
50.9133
50.9134
50.9136
50.9138
50.914
50.9141
50.9142
50.9143
50.9144
50.9144
50.9145
50.9146
50.9148
50.915
50.9152
50.9155
50.9157
50.916
50.9162
50.9165
50.9167
50.9168
50.9169
50.9169
50.9169
50.9168
50.9169
50.9169
50.917
50.9171
50.9172
50.9173
50.9174
50.9174
50.9174
50.9174
50.9174
50.9174
50.9174
50.9174
50.9174
50.9175
50.9175
50.9175
50.9176
50.9176
50.9177
50.9177
50.9178
50.9179
50.9179
50.918
50.918
50.9181
50.9181
50.9182
50.9182
50.9182
50.9181
50.9181
50.9181
50.918
50.918
50.9179
50.9178
50.9177
50.9177
50.9176
50.9175
50.9174
50.9174
50.9173
50.9173
50.9173
50.9173
50.9173
50.9173
50.9173
50.9174
50.9175
50.9176
50.9177
50.9178
50.9179
50.918
50.9181
50.9182
50.9183
50.9184
50.9185
50.9186
50.9186
50.9187
50.9187
50.9187
50.9187
50.9186
50.9186
50.9185
50.9184
50.9184
50.9183
50.9182
50.9181
50.918
50.9179
50.9179
50.9178
50.9178
50.9178
50.9178
50.9179
50.9179
50.918
50.9181
50.9183
50.9184
50.9186
50.9188
50.919
50.9192
50.9194
50.9196
50.9198
50.9199
50.9201
50.9202
50.9203
50.9203
50.9203
50.9203
50.9203
50.9202
50.9201
50.92
50.9199
50.9198
50.9197
50.9195
50.9194
50.9193
50.9192
50.9191
50.919
50.9189
50.9189
50.9189
50.919
50.9191
50.9192
50.9194
50.9196
50.9198
50.9201
50.9203
50.9206
50.9209
50.9212
50.9215
50.9217
50.9219
50.9221
50.9222
50.9223
50.9223
50.9222
50.9222
50.922
50.9219
50.9217
50.9216
50.9214
50.9212
50.921
50.9208
50.9205
50.9203
50.9201
50.9199
50.9198
50.9197
50.9187
50.9251
50.9137
50.9137
50.9137
50.9137
50.9136
50.9136
50.9136
50.9135
50.9135
50.9134
50.9134
50.9133
50.9133
50.9132
50.9132
50.9131
50.9131
50.9131
50.9133
50.9135
50.9136
50.9138
50.914
50.9141
50.9142
50.9142
50.9143
50.9144
50.9145
50.9147
50.9149
50.9151
50.9153
50.9156
50.9158
50.9161
50.9163
50.9165
50.9167
50.9167
50.9167
50.9167
50.9167
50.9167
50.9168
50.9169
50.917
50.9171
50.9172
50.9172
50.9173
50.9173
50.9173
50.9173
50.9173
50.9173
50.9173
50.9173
50.9173
50.9174
50.9174
50.9175
50.9175
50.9176
50.9176
50.9177
50.9178
50.9178
50.9179
50.9179
50.918
50.918
50.918
50.9181
50.918
50.918
50.918
50.918
50.9179
50.9179
50.9178
50.9177
50.9176
50.9176
50.9175
50.9174
50.9173
50.9173
50.9172
50.9172
50.9172
50.9172
50.9172
50.9172
50.9172
50.9173
50.9174
50.9175
50.9176
50.9177
50.9178
50.9179
50.918
50.9181
50.9182
50.9183
50.9184
50.9185
50.9185
50.9186
50.9186
50.9186
50.9186
50.9185
50.9185
50.9184
50.9183
50.9182
50.9182
50.9181
50.918
50.9179
50.9178
50.9178
50.9177
50.9177
50.9177
50.9177
50.9177
50.9178
50.9179
50.918
50.9182
50.9183
50.9185
50.9187
50.9189
50.9191
50.9193
50.9195
50.9197
50.9198
50.92
50.9201
50.9201
50.9202
50.9202
50.9202
50.9202
50.9201
50.92
50.9199
50.9198
50.9197
50.9196
50.9194
50.9193
50.9192
50.9191
50.919
50.9189
50.9188
50.9188
50.9188
50.9189
50.919
50.9191
50.9193
50.9195
50.9197
50.92
50.9202
50.9205
50.9208
50.9211
50.9214
50.9216
50.9218
50.922
50.9221
50.9222
50.9222
50.9221
50.9221
50.9219
50.9218
50.9216
50.9214
50.9213
50.9211
50.9208
50.9206
50.9204
50.9202
50.92
50.9198
50.9196
50.9197
50.918
50.931
50.9359
50.943
50.9437
50.9417
50.9399
50.9382
50.9366
50.9364
50.9372
50.9355
50.9289
50.9182
50.9092
50.9019
50.8953
50.8919
50.898
50.9084
50.9148
50.9051
50.9324
50.9359
50.9357
50.9339
50.9321
50.9305
50.929
50.929
50.93
50.9278
50.9202
50.9093
50.9008
50.8938
50.8876
50.8848
50.8915
50.9033
50.9059
50.8931
50.9204
50.9203
50.9192
50.917
50.9141
50.9105
50.9061
50.9007
50.8942
50.8876
50.8807
50.8736
50.8652
50.8555
50.8449
50.8334
50.8204
50.8067
50.7944
50.7839
50.8964
50.8932
50.8942
50.8959
50.8949
50.8913
50.8857
50.8784
50.8721
50.8645
50.8574
50.8503
50.8435
50.8368
50.831
50.826
50.8215
50.8176
50.8148
50.8125
50.8863
50.8737
50.869
50.8684
50.8664
50.8614
50.8546
50.8462
50.8383
50.8292
50.8207
50.812
50.804
50.7961
50.7893
50.7827
50.7775
50.7726
50.769
50.7672
50.81
50.7936
50.8101
50.812
50.8036
50.8007
50.8009
50.801
50.8006
50.8002
50.8001
50.8001
50.8
50.7998
50.7997
50.7996
50.7995
50.7993
50.7992
50.799
50.7989
50.7987
50.7986
50.7984
50.7983
50.7982
50.7981
50.798
50.7979
50.7979
50.7978
50.7978
50.7978
50.7978
50.7978
50.7979
50.798
50.7981
50.7982
50.7983
50.7985
50.7987
50.7988
50.799
50.7992
50.7993
50.7995
50.7997
50.8
50.8002
50.8004
50.8007
50.801
50.801
50.8009
50.8007
50.8006
50.8006
50.8006
50.8005
50.8005
50.8004
50.8002
50.8
50.7998
50.7996
50.7993
50.7991
50.7989
50.7987
50.7986
50.7985
50.7984
50.7983
50.798
50.7978
50.7976
50.7976
50.7976
50.7975
50.7969
50.7939
50.7871
50.7826
50.7812
50.7816
50.7848
50.7929
50.7992
50.8028
50.8044
50.8049
50.8049
50.8047
50.8042
50.8039
50.8036
50.8034
50.8033
50.8031
50.803
50.8029
50.8028
50.8026
50.8025
50.8023
50.8021
50.8019
50.8017
50.8014
50.8011
50.8008
50.8005
50.8001
50.7998
50.7994
50.799
50.7986
50.7982
50.7978
50.7974
50.7971
50.7967
50.7963
50.796
50.7957
50.7954
50.7951
50.7949
50.7947
50.7945
50.7944
50.7943
50.7942
50.7941
50.7941
50.7941
50.7942
50.7942
50.7943
50.7944
50.7946
50.7947
50.7948
50.795
50.7951
50.7953
50.7954
50.7956
50.7957
50.7958
50.796
50.7961
50.7962
50.7963
50.7965
50.7966
50.7967
50.7968
50.7969
50.797
50.7971
50.7972
50.7973
50.7974
50.7975
50.7977
50.7978
50.798
50.7983
50.7985
50.7988
50.7992
50.7996
50.8
50.8005
50.8011
50.8018
50.8024
50.8032
50.804
50.8049
50.8058
50.8068
50.8078
50.8089
50.81
50.8111
50.8123
50.8135
50.8147
50.8159
50.8172
50.8185
50.8197
50.8211
50.8223
50.8237
50.8239
50.8343
50.8046
50.7933
50.8097
50.811
50.8028
50.7999
50.7999
50.7999
50.7995
50.7991
50.7991
50.7991
50.7989
50.7987
50.7986
50.7985
50.7983
50.7982
50.798
50.7979
50.7977
50.7976
50.7975
50.7973
50.7972
50.7971
50.7971
50.797
50.7969
50.7969
50.7968
50.7968
50.7968
50.7968
50.7969
50.7969
50.797
50.7971
50.7972
50.7973
50.7975
50.7976
50.7978
50.7979
50.7981
50.7982
50.7984
50.7986
50.7988
50.7989
50.799
50.7992
50.7994
50.7995
50.7994
50.7994
50.7994
50.7995
50.7995
50.7994
50.7993
50.7992
50.799
50.7987
50.7984
50.798
50.7978
50.7975
50.7973
50.7972
50.797
50.7967
50.7963
50.796
50.7957
50.7956
50.7956
50.7957
50.7955
50.7947
50.7913
50.7862
50.7831
50.7821
50.7825
50.7851
50.7919
50.7977
50.8013
50.8032
50.804
50.8043
50.8043
50.8041
50.8039
50.8036
50.8035
50.8034
50.8033
50.8032
50.8031
50.803
50.8029
50.8027
50.8026
50.8024
50.8022
50.802
50.8018
50.8015
50.8012
50.8009
50.8006
50.8002
50.7999
50.7995
50.7991
50.7987
50.7983
50.7979
50.7976
50.7972
50.7968
50.7964
50.7961
50.7958
50.7955
50.7952
50.795
50.7948
50.7946
50.7945
50.7944
50.7943
50.7942
50.7942
50.7942
50.7943
50.7944
50.7944
50.7945
50.7947
50.7948
50.7949
50.7951
50.7952
50.7954
50.7955
50.7957
50.7958
50.7959
50.7961
50.7962
50.7963
50.7964
50.7966
50.7967
50.7968
50.7969
50.797
50.7971
50.7972
50.7973
50.7974
50.7975
50.7976
50.7978
50.7979
50.7981
50.7984
50.7986
50.7989
50.7993
50.7997
50.8001
50.8007
50.8012
50.8019
50.8025
50.8033
50.8041
50.805
50.8059
50.8069
50.8079
50.809
50.8101
50.8112
50.8124
50.8136
50.8148
50.816
50.8173
50.8186
50.8198
50.8212
50.8224
50.8238
50.8244
50.8297
50.7635
50.7748
50.7822
50.783
50.7822
50.7819
50.782
50.7822
50.7823
50.7823
50.7822
50.7821
50.782
50.7819
50.7818
50.7816
50.7816
50.7815
50.7815
50.7815
50.7815
50.7814
50.7814
50.7814
50.7814
50.7813
50.7813
50.7812
50.7812
50.7811
50.781
50.7809
50.7808
50.7808
50.7808
50.7808
50.7808
50.7809
50.7811
50.7812
50.7814
50.7816
50.7817
50.7819
50.782
50.7822
50.7823
50.7824
50.7824
50.7825
50.7824
50.7823
50.7822
50.782
50.7819
50.7818
50.7818
50.7817
50.7817
50.7819
50.7827
50.7854
50.7886
50.7914
50.7938
50.7956
50.7968
50.7976
50.7981
50.7984
50.7984
50.7985
50.7985
50.7984
50.7983
50.7983
50.7983
50.7984
50.7986
50.7989
50.7993
50.7998
50.8003
50.8008
50.8013
50.8017
50.8021
50.8023
50.8025
50.8026
50.8027
50.8028
50.8028
50.8029
50.8029
50.8029
50.803
50.803
50.803
50.803
50.8029
50.8029
50.8028
50.8027
50.8025
50.8024
50.8022
50.802
50.8018
50.8015
50.8012
50.8009
50.8006
50.8002
50.7999
50.7995
50.7991
50.7987
50.7983
50.7979
50.7976
50.7972
50.7968
50.7964
50.7961
50.7958
50.7955
50.7952
50.795
50.7948
50.7946
50.7945
50.7944
50.7943
50.7942
50.7942
50.7942
50.7943
50.7944
50.7944
50.7945
50.7947
50.7948
50.7949
50.7951
50.7952
50.7954
50.7955
50.7957
50.7958
50.7959
50.7961
50.7962
50.7963
50.7964
50.7966
50.7967
50.7968
50.7969
50.797
50.7971
50.7972
50.7973
50.7974
50.7975
50.7976
50.7978
50.7979
50.7981
50.7984
50.7986
50.7989
50.7993
50.7997
50.8001
50.8007
50.8012
50.8019
50.8025
50.8033
50.8041
50.805
50.8059
50.8069
50.8079
50.809
50.8101
50.8112
50.8124
50.8136
50.8148
50.816
50.8173
50.8186
50.8199
50.8211
50.8225
50.8238
50.8253
50.8267
50.805
50.8034
50.8025
50.8011
50.8003
50.7998
50.7998
50.7998
50.7997
50.7996
50.7996
50.7995
50.7994
50.7993
50.7992
50.7991
50.799
50.7988
50.7987
50.7986
50.7984
50.7983
50.7981
50.7979
50.7978
50.7977
50.7975
50.7974
50.7973
50.7972
50.7971
50.7971
50.7971
50.7971
50.7971
50.7972
50.7973
50.7974
50.7975
50.7977
50.7979
50.7981
50.7983
50.7985
50.7987
50.799
50.7992
50.7995
50.7997
50.7998
50.7999
50.8
50.8001
50.8001
50.8002
50.8002
50.8002
50.8002
50.8002
50.8002
50.8001
50.8
50.7999
50.7997
50.7995
50.7993
50.799
50.7987
50.7984
50.7982
50.7979
50.7971
50.7963
50.7957
50.7954
50.7951
50.7943
50.7923
50.7901
50.7887
50.7883
50.7884
50.7891
50.7918
50.7963
50.7998
50.8021
50.8034
50.804
50.8041
50.8042
50.8041
50.8039
50.8037
50.8035
50.8034
50.8033
50.8032
50.8032
50.8031
50.803
50.8029
50.8028
50.8027
50.8026
50.8024
50.8022
50.802
50.8018
50.8015
50.8012
50.8009
50.8006
50.8002
50.7999
50.7995
50.7991
50.7987
50.7983
50.7979
50.7976
50.7972
50.7968
50.7964
50.7961
50.7958
50.7955
50.7952
50.795
50.7948
50.7946
50.7945
50.7944
50.7943
50.7942
50.7942
50.7942
50.7943
50.7944
50.7944
50.7945
50.7947
50.7948
50.7949
50.7951
50.7952
50.7954
50.7955
50.7957
50.7958
50.7959
50.7961
50.7962
50.7963
50.7964
50.7966
50.7967
50.7968
50.7969
50.797
50.7971
50.7972
50.7973
50.7974
50.7975
50.7976
50.7978
50.7979
50.7981
50.7984
50.7986
50.7989
50.7993
50.7997
50.8001
50.8007
50.8012
50.8019
50.8025
50.8033
50.8041
50.805
50.8059
50.8069
50.8079
50.809
50.8101
50.8112
50.8124
50.8136
50.8148
50.816
50.8173
50.8185
50.8199
50.8211
50.8225
50.8239
50.8258
50.8259
50.7891
50.7936
50.7936
50.7925
50.7916
50.7912
50.7912
50.7913
50.7912
50.7912
50.7911
50.7911
50.791
50.791
50.7909
50.7908
50.7907
50.7906
50.7904
50.7903
50.7901
50.79
50.7898
50.7897
50.7896
50.7894
50.7893
50.7892
50.7892
50.7891
50.7891
50.7891
50.7891
50.7891
50.7892
50.7893
50.7894
50.7896
50.7898
50.79
50.7902
50.7904
50.7907
50.7909
50.7911
50.7913
50.7915
50.7917
50.7919
50.792
50.7922
50.7923
50.7924
50.7924
50.7925
50.7926
50.7927
50.7927
50.7927
50.7926
50.7926
50.7925
50.7924
50.7922
50.7921
50.7919
50.7917
50.7914
50.7909
50.7903
50.7899
50.7897
50.7897
50.7896
50.7892
50.7866
50.7803
50.7757
50.7739
50.7738
50.7753
50.7807
50.7873
50.7923
50.7959
50.7983
50.8
50.801
50.8017
50.8021
50.8024
50.8026
50.8027
50.8028
50.8028
50.8029
50.8029
50.8029
50.8029
50.8029
50.8028
50.8028
50.8027
50.8026
50.8024
50.8023
50.8021
50.8019
50.8016
50.8014
50.8011
50.8008
50.8005
50.8001
50.7998
50.7994
50.799
50.7986
50.7982
50.7978
50.7974
50.7971
50.7967
50.7963
50.796
50.7957
50.7954
50.7951
50.7949
50.7947
50.7945
50.7944
50.7943
50.7942
50.7941
50.7941
50.7941
50.7942
50.7942
50.7943
50.7944
50.7946
50.7947
50.7948
50.795
50.7951
50.7953
50.7954
50.7956
50.7957
50.7958
50.796
50.7961
50.7962
50.7963
50.7965
50.7966
50.7967
50.7968
50.7969
50.797
50.7971
50.7972
50.7973
50.7974
50.7975
50.7977
50.7978
50.798
50.7983
50.7985
50.7988
50.7992
50.7996
50.8
50.8005
50.8011
50.8018
50.8024
50.8032
50.804
50.8049
50.8058
50.8068
50.8078
50.8089
50.81
50.8111
50.8123
50.8135
50.8147
50.8159
50.8172
50.8184
50.8198
50.821
50.8224
50.8237
50.8257
50.8256
50.7986
50.7862
50.7818
50.7813
50.7793
50.7746
50.7683
50.7615
50.7537
50.7462
50.7384
50.7306
50.7232
50.716
50.7093
50.7028
50.6971
50.6924
50.6892
50.6878
50.8074
50.8044
50.8053
50.807
50.8061
50.8027
50.7972
50.7921
50.7851
50.7794
50.7724
50.7666
50.7604
50.7543
50.7486
50.7434
50.7387
50.7349
50.7323
50.7308
50.8283
50.8287
50.8279
50.8263
50.8238
50.8208
50.817
50.8125
50.8076
50.8016
50.7946
50.7864
50.7771
50.7671
50.7574
50.7491
50.7421
50.7341
50.725
50.7145
50.8388
50.8427
50.8431
50.842
50.8411
50.8404
50.8398
50.8372
50.8321
50.8275
50.8244
50.8227
50.827
50.8362
50.8381
50.8277
50.8065
50.7861
50.7712
50.7568
50.8422
50.8494
50.8506
50.8493
50.8483
50.8477
50.8469
50.8444
50.8396
50.8348
50.8313
50.8294
50.8336
50.8418
50.8456
50.8378
50.8204
50.7993
50.7826
50.7675
50.7113
50.7158
50.7159
50.7164
50.7173
50.7183
50.7197
50.7216
50.7234
50.7252
50.7271
50.729
50.731
50.733
50.735
50.7372
50.7393
50.7416
50.7439
50.7462
50.7486
50.7511
50.7536
50.7562
50.7589
50.7616
50.7643
50.7671
50.7699
50.7728
50.7758
50.7787
50.7818
50.7848
50.7879
50.7911
50.7943
50.7976
50.8009
50.8042
50.8076
50.811
50.8144
50.8178
50.8212
50.8246
50.8281
50.8316
50.8351
50.8386
50.8422
50.8457
50.8493
50.853
50.8566
50.8603
50.864
50.8677
50.8715
50.8753
50.8791
50.883
50.887
50.8909
50.8948
50.8988
50.9029
50.9069
50.9109
50.9148
50.9187
50.9228
50.9273
50.9321
50.9371
50.9415
50.9433
50.9417
50.9417
50.9445
50.9497
50.9563
50.966
50.9778
50.988
50.9969
51.0046
51.0113
51.0176
51.0237
51.0294
51.0351
51.0404
51.046
51.0512
51.0569
51.062
51.0676
51.0715
51.0834
50.7265
50.7253
50.7245
50.7248
50.7256
50.7266
50.7279
50.7298
50.7318
50.7336
50.7354
50.7373
50.7392
50.7412
50.7432
50.7453
50.7475
50.7497
50.7519
50.7542
50.7566
50.7591
50.7616
50.7641
50.7667
50.7694
50.7721
50.7749
50.7778
50.7807
50.7836
50.7866
50.7896
50.7926
50.7957
50.7989
50.802
50.8053
50.8085
50.8118
50.8151
50.8185
50.8218
50.8253
50.8287
50.8321
50.8356
50.8391
50.8426
50.8461
50.8497
50.8533
50.8568
50.8604
50.8641
50.8677
50.8714
50.8752
50.8789
50.8827
50.8865
50.8904
50.8943
50.8982
50.9021
50.9062
50.9102
50.9142
50.9182
50.9223
50.9265
50.9307
50.9346
50.9383
50.9424
50.9471
50.9519
50.9557
50.9586
50.9614
50.9646
50.9689
50.9743
50.9805
50.9876
50.9969
51.0058
51.0132
51.0197
51.0259
51.0317
51.0369
51.0419
51.0471
51.0521
51.0576
51.0625
51.0681
51.0721
51.08
50.6824
50.6939
50.7039
50.7071
50.7079
50.7091
50.7108
50.7127
50.7146
50.7166
50.7186
50.7205
50.7226
50.7246
50.7267
50.7288
50.731
50.7333
50.7355
50.7378
50.7402
50.7426
50.7451
50.7477
50.7504
50.7531
50.756
50.7588
50.7617
50.7647
50.7677
50.7707
50.7737
50.7767
50.7798
50.783
50.7862
50.7894
50.7926
50.7959
50.7992
50.8025
50.8059
50.8092
50.8126
50.8159
50.8193
50.8226
50.826
50.8294
50.8329
50.8364
50.8398
50.8432
50.8466
50.8501
50.8536
50.8571
50.8607
50.8645
50.8689
50.8736
50.8793
50.8865
50.8934
50.8999
50.906
50.9115
50.9166
50.9216
50.9265
50.9311
50.9357
50.9403
50.9449
50.9496
50.9543
50.9592
50.9642
50.9694
50.9747
50.9801
50.9856
50.9911
50.9968
51.0024
51.008
51.0136
51.0191
51.0245
51.0299
51.0352
51.0407
51.046
51.0514
51.0568
51.0622
51.0676
51.0731
51.0783
50.7402
50.7361
50.7316
50.7267
50.7267
50.7283
50.7292
50.7299
50.7314
50.7334
50.7352
50.7368
50.7388
50.7409
50.7429
50.745
50.7471
50.7493
50.7515
50.7538
50.7562
50.7586
50.7611
50.7637
50.7663
50.7689
50.7716
50.7744
50.7772
50.78
50.7829
50.7859
50.7889
50.792
50.7952
50.7983
50.8016
50.8048
50.8081
50.8114
50.8148
50.8181
50.8215
50.8249
50.8283
50.8317
50.8351
50.8385
50.842
50.8455
50.849
50.8526
50.8561
50.8597
50.8633
50.867
50.8707
50.8744
50.8781
50.8819
50.8857
50.8895
50.8933
50.8971
50.9009
50.9048
50.9088
50.913
50.9171
50.9213
50.9254
50.9296
50.9338
50.9382
50.9426
50.9471
50.9518
50.9568
50.9621
50.9673
50.9714
50.9725
50.9724
50.9739
50.9779
50.9839
50.9913
51.0024
51.0138
51.0228
51.03
51.0364
51.0424
51.0476
51.0528
51.0576
51.0631
51.068
51.0739
51.0785
50.7421
50.7362
50.7323
50.7273
50.7276
50.7292
50.7304
50.731
50.7324
50.7344
50.7364
50.7379
50.7397
50.7419
50.7439
50.746
50.7481
50.7503
50.7525
50.7548
50.7572
50.7596
50.7621
50.7647
50.7673
50.77
50.7727
50.7754
50.7782
50.7811
50.784
50.787
50.79
50.7931
50.7962
50.7993
50.8025
50.8058
50.8091
50.8124
50.8157
50.8191
50.8225
50.8259
50.8293
50.8327
50.8362
50.8396
50.8431
50.8466
50.8501
50.8536
50.8572
50.8608
50.8644
50.8681
50.8717
50.8754
50.8792
50.883
50.8868
50.8907
50.8945
50.8984
50.9023
50.9063
50.9103
50.9143
50.9185
50.9228
50.9271
50.9315
50.9359
50.9403
50.9448
50.9494
50.9539
50.9586
50.9635
50.9687
50.9741
50.9789
50.9811
50.9794
50.9792
50.9824
50.9882
50.9959
51.0081
51.0201
51.0293
51.0364
51.0427
51.0484
51.0535
51.058
51.0634
51.0681
51.074
51.0786
51.0609
51.0526
51.05
51.0504
51.0497
51.047
51.0426
51.0381
51.0332
51.0283
51.0229
51.0179
51.0128
51.0076
51.0029
50.9987
50.9951
50.9923
50.9905
50.9899
51.0682
51.067
51.0686
51.0707
51.0708
51.069
51.0652
51.0619
51.0578
51.0543
51.0498
51.0459
51.0416
51.0377
51.0337
51.0304
51.0278
51.0258
51.0243
51.0237
51.0825
51.0837
51.0843
51.084
51.0831
51.0817
51.0798
51.0772
51.074
51.0695
51.0644
51.0583
51.0524
51.0472
51.0426
51.0374
51.0309
51.0235
51.0154
51.0064
51.0902
51.0941
51.0954
51.0956
51.0959
51.0963
51.0953
51.0937
51.0924
51.0923
51.0952
51.1033
51.1069
51.1014
51.0882
51.0762
51.0697
51.0647
51.0598
51.0613
51.0931
51.0996
51.1015
51.1015
51.1017
51.1018
51.1009
51.0993
51.0978
51.0974
51.1003
51.1076
51.1123
51.1085
51.0977
51.0852
51.0779
51.0721
51.0658
51.068
51.009
51.016
51.0208
51.0257
51.0303
51.0355
51.0409
51.0468
51.0528
51.0588
51.065
51.0712
51.0775
51.0839
51.0903
51.0968
51.1033
51.1098
51.1164
51.123
51.1296
51.1362
51.1428
51.1494
51.1561
51.1628
51.1695
51.1763
51.1831
51.1899
51.1967
51.2036
51.2104
51.2173
51.2242
51.231
51.238
51.2449
51.2518
51.2588
51.2658
51.2728
51.2799
51.287
51.2941
51.3013
51.3085
51.3157
51.3229
51.3303
51.3376
51.345
51.3524
51.3599
51.3675
51.375
51.3826
51.3902
51.398
51.4058
51.4136
51.4214
51.4292
51.4372
51.4452
51.453
51.4606
51.4681
51.4761
51.4849
51.4941
51.5026
51.5083
51.5093
51.5119
51.5178
51.5267
51.5373
51.5504
51.5661
51.58
51.592
51.6026
51.6128
51.6226
51.6318
51.6404
51.649
51.6574
51.6659
51.6743
51.6827
51.6911
51.6994
51.7078
51.7162
51.7247
51.7331
51.7415
51.75
51.7584
51.7669
51.7754
51.784
51.7925
51.8011
51.8097
51.8183
51.827
51.8357
51.8444
51.8531
51.8619
51.8707
51.8795
51.8884
51.8973
51.9062
51.9152
51.9241
51.9331
51.9422
51.9512
51.9603
51.9694
51.9785
51.9876
51.9968
52.0059
52.0151
52.0242
52.0334
52.0426
52.0518
52.0609
52.0701
52.0793
52.0884
52.0976
52.1067
52.1159
52.125
52.1341
52.1433
52.1524
52.1615
52.1706
52.1796
52.1887
52.1978
52.2068
52.2159
52.2249
52.234
52.243
52.2521
52.2611
52.2702
52.2792
52.2883
52.2973
52.3064
52.3154
52.3244
52.3335
52.3426
52.3516
52.3607
52.3697
52.3788
52.3879
52.3969
52.406
52.415
52.4241
52.4331
52.4422
52.4512
52.4602
52.4692
52.4783
52.4872
52.4963
52.5051
52.5142
52.5229
52.532
52.5406
52.5497
52.5582
52.5674
52.5757
52.5849
52.5932
52.6023
52.6107
52.6194
52.6283
52.6364
52.6452
51.0198
51.0231
51.0279
51.0325
51.0372
51.0426
51.0485
51.0544
51.0605
51.0666
51.0727
51.079
51.0853
51.0917
51.0981
51.1046
51.1111
51.1177
51.1243
51.1309
51.1375
51.1441
51.1507
51.1573
51.164
51.1707
51.1774
51.1841
51.1909
51.1976
51.2044
51.2112
51.218
51.2249
51.2318
51.2387
51.2456
51.2525
51.2595
51.2664
51.2734
51.2804
51.2875
51.2946
51.3017
51.3089
51.3161
51.3233
51.3305
51.3379
51.3452
51.3526
51.36
51.3675
51.375
51.3825
51.3901
51.3978
51.4055
51.4132
51.4209
51.4288
51.4367
51.4446
51.4524
51.4602
51.4683
51.4765
51.4842
51.4914
51.4991
51.5076
51.5162
51.5238
51.5302
51.536
51.5423
51.5499
51.559
51.5691
51.5801
51.5925
51.6042
51.6147
51.6248
51.6343
51.6426
51.6506
51.6587
51.6668
51.675
51.6832
51.6915
51.6998
51.7081
51.7165
51.7248
51.7332
51.7417
51.7501
51.7586
51.7671
51.7756
51.7841
51.7926
51.8012
51.8098
51.8184
51.8271
51.8358
51.8445
51.8532
51.862
51.8708
51.8796
51.8885
51.8974
51.9063
51.9153
51.9242
51.9332
51.9423
51.9513
51.9604
51.9695
51.9786
51.9877
51.9969
52.006
52.0152
52.0243
52.0335
52.0427
52.0519
52.061
52.0702
52.0794
52.0885
52.0977
52.1068
52.116
52.1251
52.1342
52.1434
52.1525
52.1616
52.1707
52.1797
52.1888
52.1979
52.2069
52.216
52.225
52.2341
52.2431
52.2522
52.2612
52.2703
52.2793
52.2884
52.2974
52.3064
52.3155
52.3245
52.3336
52.3427
52.3517
52.3608
52.3698
52.3789
52.388
52.397
52.4061
52.4151
52.4242
52.4332
52.4423
52.4513
52.4603
52.4693
52.4784
52.4873
52.4963
52.5052
52.5143
52.523
52.5321
52.5407
52.5498
52.5583
52.5675
52.5758
52.585
52.5933
52.6025
52.6106
52.6198
52.6279
52.637
52.6451
50.9801
50.9972
51.0099
51.0162
51.0208
51.0259
51.0318
51.038
51.0442
51.0504
51.0566
51.0629
51.0692
51.0755
51.0819
51.0884
51.0948
51.1014
51.108
51.1146
51.1213
51.128
51.1346
51.1413
51.148
51.1547
51.1614
51.1681
51.1749
51.1816
51.1884
51.1951
51.202
51.2088
51.2156
51.2225
51.2294
51.2363
51.2432
51.2502
51.2572
51.2642
51.2712
51.2783
51.2853
51.2925
51.2996
51.3067
51.3138
51.3209
51.3279
51.3351
51.3422
51.3494
51.3566
51.364
51.3719
51.3803
51.3893
51.3989
51.4098
51.4209
51.431
51.4406
51.45
51.4592
51.4679
51.4764
51.4848
51.4931
51.5015
51.5098
51.5182
51.5268
51.5354
51.5441
51.5529
51.5617
51.5707
51.5796
51.5886
51.5975
51.6064
51.6151
51.6238
51.6323
51.6407
51.6492
51.6576
51.666
51.6743
51.6827
51.6911
51.6995
51.7079
51.7163
51.7247
51.7332
51.7416
51.7501
51.7585
51.767
51.7755
51.7841
51.7926
51.8012
51.8098
51.8184
51.8271
51.8358
51.8445
51.8532
51.862
51.8708
51.8796
51.8885
51.8974
51.9063
51.9153
51.9242
51.9332
51.9423
51.9513
51.9604
51.9695
51.9786
51.9877
51.9969
52.006
52.0152
52.0243
52.0335
52.0427
52.0519
52.061
52.0702
52.0794
52.0885
52.0977
52.1068
52.116
52.1251
52.1342
52.1434
52.1525
52.1616
52.1707
52.1797
52.1888
52.1979
52.2069
52.216
52.225
52.2341
52.2431
52.2522
52.2612
52.2703
52.2793
52.2884
52.2974
52.3064
52.3155
52.3245
52.3336
52.3427
52.3517
52.3608
52.3698
52.3789
52.388
52.397
52.4061
52.4151
52.4242
52.4332
52.4423
52.4513
52.4603
52.4693
52.4783
52.4873
52.4963
52.5052
52.5142
52.5231
52.532
52.5408
52.5497
52.5585
52.5674
52.5759
52.5849
52.5934
52.6022
52.6109
52.6195
52.6281
52.6368
52.6453
51.0582
51.0367
51.0296
51.0345
51.0411
51.0452
51.0493
51.0548
51.0611
51.0669
51.0731
51.0792
51.0854
51.0917
51.0981
51.1045
51.1109
51.1174
51.1239
51.1304
51.1369
51.1435
51.1501
51.1568
51.1635
51.1702
51.1769
51.1837
51.1905
51.1973
51.2041
51.2109
51.2177
51.2245
51.2313
51.2382
51.2451
51.2519
51.2588
51.2658
51.2728
51.2798
51.2869
51.294
51.3011
51.3082
51.3154
51.3227
51.3299
51.3372
51.3446
51.3519
51.3593
51.3668
51.3743
51.3818
51.3894
51.397
51.4046
51.4123
51.4199
51.4276
51.4354
51.4433
51.4514
51.4594
51.4675
51.4754
51.4834
51.4914
51.4994
51.5072
51.5154
51.5241
51.5334
51.5425
51.5501
51.5538
51.5566
51.5613
51.5689
51.5789
51.5906
51.6056
51.6194
51.631
51.6413
51.651
51.6596
51.6674
51.6754
51.6835
51.6917
51.6999
51.7082
51.7165
51.7249
51.7333
51.7417
51.7501
51.7586
51.7671
51.7756
51.7841
51.7926
51.8012
51.8098
51.8184
51.8271
51.8358
51.8445
51.8532
51.862
51.8708
51.8796
51.8885
51.8974
51.9063
51.9153
51.9242
51.9332
51.9423
51.9513
51.9604
51.9695
51.9786
51.9877
51.9969
52.006
52.0152
52.0243
52.0335
52.0427
52.0519
52.061
52.0702
52.0794
52.0885
52.0977
52.1068
52.116
52.1251
52.1342
52.1434
52.1525
52.1616
52.1707
52.1797
52.1888
52.1979
52.2069
52.216
52.225
52.2341
52.2431
52.2522
52.2612
52.2703
52.2793
52.2884
52.2974
52.3064
52.3155
52.3245
52.3336
52.3427
52.3517
52.3608
52.3698
52.3789
52.388
52.397
52.4061
52.4151
52.4242
52.4332
52.4423
52.4513
52.4603
52.4694
52.4783
52.4874
52.4962
52.5053
52.514
52.5232
52.5318
52.541
52.5495
52.5587
52.5671
52.5763
52.5845
52.5938
52.6019
52.6112
52.6192
52.6284
52.6366
52.6451
51.0602
51.0377
51.0301
51.0354
51.0425
51.0467
51.0505
51.0558
51.0623
51.0683
51.0743
51.0803
51.0865
51.0928
51.0991
51.1055
51.1119
51.1184
51.1249
51.1314
51.138
51.1446
51.1512
51.1578
51.1645
51.1712
51.1779
51.1847
51.1914
51.1982
51.205
51.2118
51.2187
51.2255
51.2323
51.2392
51.2461
51.253
51.2599
51.2668
51.2738
51.2809
51.288
51.2951
51.3022
51.3093
51.3165
51.3237
51.331
51.3383
51.3456
51.353
51.3604
51.3678
51.3753
51.3828
51.3904
51.398
51.4057
51.4134
51.4212
51.4289
51.4367
51.4445
51.4525
51.4606
51.4688
51.477
51.4852
51.4935
51.5018
51.5099
51.5179
51.5258
51.5343
51.5435
51.5528
51.5612
51.5658
51.5663
51.5692
51.5762
51.5862
51.5985
51.615
51.6292
51.6408
51.651