/*--------------------------------*- C++ -*----------------------------------*\
| =========                 |                                                 |
| \\      /  F ield         | OpenFOAM: The Open Source CFD Toolbox           |
|  \\    /   O peration     | Version:  3.0.x                                 |
|   \\  /    A nd           | Web:      www.OpenFOAM.org                      |
|    \\/     M anipulation  |                                                 |
\*---------------------------------------------------------------------------*/
FoamFile
{
    version     2.0;
    format      ascii;
    class       volScalarField;
    location    "0.36";
    object      T;
}
// * * * * * * * * * * * * * * * * * * * * * * * * * * * * * * * * * * * * * //

dimensions      [0 0 0 1 0 0 0];

internalField   nonuniform List<scalar> 
6900
(
774.453
774.453
774.453
774.453
774.453
774.452
774.452
774.452
774.452
774.452
774.452
774.451
774.451
774.451
774.451
774.451
774.45
774.45
774.448
774.445
774.442
774.439
774.437
774.436
774.436
774.435
774.435
774.435
774.434
774.432
774.43
774.427
774.424
774.421
774.417
774.414
774.41
774.407
774.405
774.404
774.403
774.402
774.402
774.4
774.398
774.396
774.393
774.39
774.387
774.385
774.383
774.381
774.38
774.38
774.379
774.379
774.379
774.379
774.379
774.379
774.379
774.379
774.379
774.379
774.379
774.38
774.38
774.38
774.38
774.38
774.38
774.381
774.381
774.381
774.381
774.381
774.38
774.38
774.38
774.38
774.38
774.38
774.379
774.379
774.379
774.379
774.378
774.378
774.378
774.378
774.378
774.378
774.378
774.378
774.378
774.378
774.379
774.379
774.379
774.379
774.38
774.38
774.38
774.381
774.381
774.381
774.382
774.382
774.382
774.382
774.382
774.382
774.382
774.382
774.382
774.382
774.381
774.381
774.381
774.381
774.38
774.38
774.38
774.38
774.38
774.379
774.379
774.38
774.38
774.38
774.38
774.38
774.381
774.381
774.382
774.383
774.383
774.384
774.384
774.385
774.385
774.386
774.386
774.387
774.387
774.387
774.387
774.387
774.387
774.387
774.387
774.386
774.386
774.386
774.385
774.385
774.384
774.384
774.384
774.383
774.383
774.383
774.383
774.383
774.383
774.383
774.384
774.384
774.385
774.386
774.386
774.387
774.388
774.389
774.39
774.391
774.391
774.392
774.393
774.393
774.393
774.393
774.393
774.393
774.392
774.392
774.391
774.391
774.39
774.39
774.389
774.389
774.388
774.387
774.386
774.386
774.385
774.386
774.386
774.457
774.451
774.451
774.45
774.45
774.45
774.45
774.45
774.45
774.449
774.449
774.449
774.449
774.449
774.449
774.448
774.448
774.448
774.447
774.445
774.442
774.439
774.437
774.435
774.434
774.433
774.433
774.433
774.432
774.432
774.43
774.428
774.425
774.422
774.419
774.415
774.412
774.408
774.405
774.403
774.402
774.401
774.4
774.4
774.398
774.396
774.394
774.391
774.388
774.385
774.383
774.381
774.38
774.379
774.378
774.377
774.377
774.377
774.377
774.377
774.377
774.377
774.377
774.377
774.377
774.378
774.378
774.378
774.378
774.378
774.379
774.379
774.379
774.379
774.379
774.379
774.379
774.379
774.379
774.379
774.378
774.378
774.378
774.378
774.377
774.377
774.377
774.377
774.377
774.376
774.376
774.376
774.376
774.376
774.376
774.376
774.377
774.377
774.377
774.377
774.378
774.378
774.378
774.379
774.379
774.379
774.38
774.38
774.38
774.38
774.381
774.381
774.381
774.38
774.38
774.38
774.38
774.38
774.379
774.379
774.379
774.379
774.378
774.378
774.378
774.378
774.378
774.378
774.378
774.378
774.378
774.378
774.379
774.379
774.38
774.38
774.381
774.381
774.382
774.383
774.383
774.384
774.384
774.385
774.385
774.385
774.385
774.386
774.386
774.385
774.385
774.385
774.385
774.384
774.384
774.384
774.383
774.383
774.382
774.382
774.382
774.381
774.381
774.381
774.381
774.381
774.382
774.382
774.383
774.383
774.384
774.385
774.386
774.386
774.387
774.388
774.389
774.39
774.39
774.391
774.391
774.391
774.391
774.391
774.391
774.391
774.39
774.39
774.389
774.389
774.388
774.387
774.387
774.386
774.386
774.385
774.384
774.384
774.385
774.385
774.45
774.451
774.451
774.45
774.45
774.45
774.45
774.45
774.45
774.45
774.449
774.449
774.449
774.449
774.449
774.449
774.448
774.448
774.447
774.445
774.442
774.439
774.437
774.435
774.434
774.433
774.433
774.433
774.432
774.432
774.43
774.428
774.425
774.422
774.419
774.415
774.412
774.408
774.405
774.403
774.402
774.401
774.4
774.4
774.398
774.396
774.394
774.391
774.388
774.385
774.383
774.381
774.38
774.379
774.378
774.377
774.377
774.377
774.377
774.377
774.377
774.377
774.377
774.377
774.377
774.378
774.378
774.378
774.378
774.378
774.379
774.379
774.379
774.379
774.379
774.379
774.379
774.379
774.379
774.379
774.378
774.378
774.378
774.378
774.377
774.377
774.377
774.377
774.377
774.376
774.376
774.376
774.376
774.376
774.376
774.376
774.377
774.377
774.377
774.377
774.378
774.378
774.378
774.379
774.379
774.379
774.38
774.38
774.38
774.38
774.38
774.381
774.381
774.38
774.38
774.38
774.38
774.38
774.379
774.379
774.379
774.379
774.378
774.378
774.378
774.378
774.378
774.378
774.378
774.378
774.378
774.378
774.379
774.379
774.38
774.38
774.381
774.381
774.382
774.383
774.383
774.384
774.384
774.385
774.385
774.385
774.385
774.386
774.386
774.385
774.385
774.385
774.385
774.384
774.384
774.384
774.383
774.383
774.382
774.382
774.382
774.381
774.381
774.381
774.381
774.381
774.382
774.382
774.383
774.383
774.384
774.385
774.386
774.386
774.387
774.388
774.389
774.39
774.39
774.391
774.391
774.391
774.391
774.391
774.391
774.391
774.39
774.39
774.389
774.389
774.388
774.387
774.387
774.386
774.386
774.385
774.384
774.384
774.384
774.383
774.387
774.451
774.451
774.45
774.45
774.45
774.45
774.45
774.45
774.449
774.449
774.449
774.449
774.449
774.449
774.448
774.448
774.448
774.447
774.445
774.442
774.439
774.437
774.435
774.434
774.433
774.433
774.433
774.432
774.432
774.43
774.428
774.425
774.422
774.419
774.415
774.412
774.408
774.405
774.403
774.402
774.401
774.4
774.4
774.398
774.396
774.394
774.391
774.388
774.385
774.383
774.381
774.38
774.379
774.378
774.377
774.377
774.377
774.377
774.377
774.377
774.377
774.377
774.377
774.377
774.378
774.378
774.378
774.378
774.378
774.379
774.379
774.379
774.379
774.379
774.379
774.379
774.379
774.379
774.379
774.378
774.378
774.378
774.378
774.377
774.377
774.377
774.377
774.377
774.376
774.376
774.376
774.376
774.376
774.376
774.376
774.377
774.377
774.377
774.377
774.378
774.378
774.378
774.379
774.379
774.379
774.38
774.38
774.38
774.38
774.381
774.381
774.381
774.38
774.38
774.38
774.38
774.38
774.379
774.379
774.379
774.379
774.378
774.378
774.378
774.378
774.378
774.378
774.378
774.378
774.378
774.378
774.379
774.379
774.38
774.38
774.381
774.381
774.382
774.383
774.383
774.384
774.384
774.385
774.385
774.385
774.385
774.386
774.386
774.385
774.385
774.385
774.385
774.384
774.384
774.384
774.383
774.383
774.382
774.382
774.382
774.381
774.381
774.381
774.381
774.381
774.382
774.382
774.383
774.383
774.384
774.385
774.386
774.386
774.387
774.388
774.389
774.39
774.39
774.391
774.391
774.391
774.391
774.391
774.391
774.391
774.39
774.39
774.389
774.389
774.388
774.387
774.387
774.386
774.385
774.385
774.384
774.384
774.381
774.385
774.255
774.453
774.453
774.453
774.453
774.453
774.452
774.452
774.452
774.452
774.452
774.452
774.451
774.451
774.451
774.451
774.451
774.45
774.45
774.448
774.445
774.442
774.439
774.437
774.436
774.436
774.435
774.435
774.435
774.434
774.432
774.43
774.427
774.424
774.421
774.417
774.414
774.41
774.407
774.405
774.404
774.403
774.402
774.402
774.4
774.398
774.396
774.393
774.39
774.387
774.385
774.383
774.381
774.38
774.38
774.379
774.379
774.379
774.379
774.379
774.379
774.379
774.379
774.379
774.379
774.379
774.38
774.38
774.38
774.38
774.38
774.38
774.381
774.381
774.381
774.381
774.381
774.38
774.38
774.38
774.38
774.38
774.38
774.379
774.379
774.379
774.379
774.378
774.378
774.378
774.378
774.378
774.378
774.378
774.378
774.378
774.378
774.379
774.379
774.379
774.379
774.38
774.38
774.38
774.381
774.381
774.381
774.382
774.382
774.382
774.382
774.382
774.382
774.382
774.382
774.382
774.382
774.381
774.381
774.381
774.381
774.38
774.38
774.38
774.38
774.38
774.379
774.379
774.38
774.38
774.38
774.38
774.38
774.381
774.381
774.382
774.383
774.383
774.384
774.384
774.385
774.385
774.386
774.386
774.387
774.387
774.387
774.387
774.387
774.387
774.387
774.387
774.386
774.386
774.386
774.385
774.385
774.384
774.384
774.384
774.383
774.383
774.383
774.383
774.383
774.383
774.383
774.384
774.384
774.385
774.386
774.386
774.387
774.388
774.389
774.39
774.391
774.391
774.392
774.393
774.393
774.393
774.393
774.393
774.393
774.392
774.392
774.391
774.391
774.39
774.39
774.389
774.388
774.388
774.387
774.387
774.386
774.386
774.382
774.395
774.165
774.442
774.456
774.454
774.454
774.452
774.452
774.452
774.446
774.437
774.427
774.408
774.386
774.382
774.39
774.404
774.407
774.365
774.328
774.265
774.22
774.428
774.431
774.43
774.426
774.422
774.419
774.418
774.409
774.396
774.386
774.368
774.337
774.325
774.333
774.35
774.357
774.312
774.245
774.214
774.179
774.387
774.386
774.383
774.379
774.373
774.367
774.358
774.352
774.345
774.338
774.331
774.32
774.311
774.304
774.297
774.291
774.293
774.302
774.304
774.293
774.312
774.314
774.32
774.319
774.314
774.299
774.283
774.261
774.246
774.222
774.204
774.185
774.166
774.157
774.142
774.126
774.114
774.105
774.092
774.086
774.257
774.236
774.234
774.236
774.236
774.232
774.219
774.205
774.19
774.175
774.158
774.147
774.13
774.122
774.107
774.102
774.091
774.091
774.097
774.126
774.024
774.069
774.067
774.074
774.081
774.057
774.046
774.049
774.057
774.057
774.053
774.051
774.052
774.052
774.052
774.051
774.051
774.05
774.05
774.05
774.05
774.049
774.049
774.048
774.048
774.047
774.047
774.046
774.045
774.045
774.044
774.044
774.043
774.043
774.043
774.043
774.043
774.043
774.044
774.044
774.044
774.045
774.046
774.047
774.048
774.049
774.05
774.051
774.051
774.052
774.052
774.053
774.054
774.056
774.057
774.056
774.056
774.055
774.054
774.053
774.052
774.052
774.051
774.051
774.052
774.052
774.054
774.055
774.056
774.056
774.057
774.058
774.058
774.061
774.067
774.073
774.078
774.08
774.082
774.086
774.098
774.147
774.253
774.325
774.349
774.346
774.298
774.177
774.082
774.029
774.005
773.998
773.998
774.002
774.009
774.015
774.019
774.022
774.024
774.025
774.026
774.027
774.027
774.027
774.027
774.027
774.026
774.026
774.025
774.024
774.023
774.023
774.022
774.021
774.019
774.018
774.017
774.016
774.015
774.014
774.012
774.011
774.01
774.009
774.008
774.007
774.006
774.005
774.005
774.004
774.003
774.003
774.003
774.002
774.002
774.002
774.002
774.002
774.003
774.003
774.003
774.003
774.004
774.004
774.005
774.005
774.006
774.006
774.007
774.007
774.007
774.008
774.008
774.009
774.009
774.009
774.01
774.01
774.01
774.011
774.011
774.011
774.011
774.012
774.012
774.012
774.013
774.013
774.014
774.015
774.016
774.016
774.018
774.019
774.02
774.022
774.024
774.026
774.028
774.03
774.032
774.035
774.038
774.041
774.044
774.047
774.051
774.054
774.058
774.061
774.065
774.069
774.073
774.076
774.081
774.084
774.09
774.09
774.1
773.922
774.018
774.068
774.074
774.089
774.093
774.07
774.063
774.067
774.073
774.073
774.069
774.068
774.068
774.068
774.068
774.068
774.068
774.068
774.067
774.067
774.067
774.066
774.066
774.065
774.064
774.063
774.062
774.061
774.06
774.06
774.059
774.058
774.058
774.058
774.058
774.058
774.058
774.058
774.059
774.059
774.06
774.061
774.062
774.064
774.065
774.066
774.067
774.068
774.07
774.071
774.073
774.076
774.077
774.079
774.079
774.077
774.074
774.072
774.071
774.07
774.07
774.07
774.07
774.072
774.074
774.075
774.077
774.078
774.079
774.079
774.081
774.084
774.09
774.096
774.102
774.105
774.107
774.109
774.113
774.129
774.183
774.264
774.315
774.332
774.329
774.291
774.19
774.104
774.051
774.022
774.01
774.007
774.008
774.011
774.015
774.018
774.021
774.023
774.024
774.025
774.025
774.026
774.026
774.026
774.026
774.025
774.025
774.024
774.023
774.023
774.022
774.021
774.02
774.019
774.018
774.017
774.015
774.014
774.013
774.012
774.011
774.01
774.008
774.007
774.006
774.005
774.004
774.004
774.003
774.002
774.002
774.001
774.001
774.001
774.001
774.001
774.001
774.001
774.001
774.001
774.002
774.002
774.002
774.003
774.003
774.004
774.004
774.005
774.005
774.005
774.006
774.006
774.007
774.007
774.007
774.008
774.008
774.008
774.009
774.009
774.009
774.01
774.01
774.01
774.01
774.011
774.011
774.012
774.012
774.013
774.014
774.015
774.016
774.017
774.019
774.02
774.022
774.024
774.026
774.028
774.031
774.033
774.036
774.039
774.042
774.046
774.049
774.052
774.056
774.06
774.063
774.067
774.071
774.075
774.079
774.082
774.088
774.089
774.093
773.994
774.266
774.298
774.329
774.331
774.328
774.327
774.328
774.329
774.328
774.327
774.326
774.326
774.326
774.326
774.325
774.325
774.324
774.322
774.32
774.317
774.315
774.313
774.31
774.308
774.306
774.305
774.303
774.302
774.301
774.301
774.301
774.301
774.302
774.303
774.303
774.304
774.305
774.305
774.305
774.305
774.305
774.306
774.306
774.308
774.309
774.312
774.314
774.316
774.319
774.322
774.325
774.329
774.333
774.337
774.339
774.341
774.343
774.343
774.343
774.34
774.325
774.282
774.232
774.186
774.148
774.118
774.097
774.082
774.072
774.067
774.065
774.064
774.064
774.066
774.068
774.07
774.071
774.072
774.071
774.069
774.064
774.06
774.054
774.048
774.043
774.039
774.035
774.033
774.032
774.031
774.031
774.03
774.03
774.03
774.029
774.029
774.029
774.028
774.028
774.028
774.028
774.027
774.027
774.027
774.026
774.026
774.025
774.024
774.024
774.023
774.022
774.021
774.02
774.019
774.018
774.017
774.015
774.014
774.013
774.012
774.011
774.01
774.008
774.007
774.006
774.005
774.004
774.004
774.003
774.002
774.002
774.001
774.001
774.001
774.001
774.001
774.001
774.001
774.001
774.001
774.002
774.002
774.002
774.003
774.003
774.004
774.004
774.005
774.005
774.005
774.006
774.006
774.007
774.007
774.007
774.008
774.008
774.008
774.009
774.009
774.009
774.01
774.01
774.01
774.01
774.011
774.011
774.012
774.012
774.013
774.014
774.015
774.016
774.017
774.019
774.02
774.022
774.024
774.026
774.028
774.031
774.033
774.036
774.039
774.042
774.046
774.049
774.053
774.056
774.06
774.063
774.067
774.071
774.075
774.079
774.083
774.087
774.092
774.095
774.102
774.07
774.065
774.066
774.067
774.063
774.06
774.061
774.064
774.064
774.063
774.062
774.062
774.061
774.061
774.06
774.059
774.058
774.058
774.057
774.057
774.057
774.057
774.057
774.057
774.056
774.056
774.056
774.056
774.056
774.055
774.055
774.055
774.054
774.054
774.054
774.054
774.054
774.054
774.054
774.054
774.054
774.055
774.055
774.055
774.055
774.055
774.055
774.056
774.056
774.057
774.058
774.06
774.061
774.061
774.061
774.062
774.062
774.062
774.062
774.063
774.063
774.063
774.063
774.064
774.065
774.066
774.068
774.071
774.073
774.076
774.08
774.09
774.103
774.112
774.117
774.123
774.136
774.168
774.203
774.226
774.235
774.235
774.226
774.187
774.12
774.069
774.036
774.018
774.01
774.008
774.008
774.01
774.014
774.017
774.02
774.022
774.023
774.025
774.025
774.026
774.026
774.026
774.026
774.026
774.026
774.025
774.025
774.024
774.024
774.023
774.022
774.021
774.02
774.019
774.018
774.017
774.015
774.014
774.013
774.012
774.011
774.01
774.008
774.007
774.006
774.005
774.004
774.004
774.003
774.002
774.002
774.001
774.001
774.001
774.001
774.001
774.001
774.001
774.001
774.001
774.002
774.002
774.002
774.003
774.003
774.004
774.004
774.005
774.005
774.005
774.006
774.006
774.007
774.007
774.007
774.008
774.008
774.008
774.009
774.009
774.009
774.01
774.01
774.01
774.01
774.011
774.011
774.012
774.012
774.013
774.014
774.015
774.016
774.017
774.019
774.02
774.022
774.024
774.026
774.028
774.031
774.033
774.036
774.039
774.042
774.046
774.049
774.053
774.056
774.06
774.063
774.067
774.071
774.075
774.079
774.083
774.087
774.093
774.097
774.155
774.194
774.198
774.196
774.197
774.194
774.191
774.192
774.193
774.193
774.191
774.19
774.19
774.189
774.188
774.186
774.185
774.184
774.184
774.184
774.183
774.183
774.183
774.183
774.182
774.182
774.181
774.181
774.18
774.179
774.178
774.178
774.177
774.176
774.175
774.175
774.174
774.173
774.173
774.172
774.171
774.171
774.171
774.171
774.171
774.171
774.172
774.173
774.173
774.175
774.176
774.177
774.178
774.179
774.179
774.178
774.178
774.177
774.177
774.177
774.177
774.177
774.177
774.177
774.177
774.178
774.179
774.18
774.182
774.189
774.196
774.201
774.203
774.204
774.205
774.213
774.253
774.35
774.421
774.451
774.453
774.433
774.353
774.253
774.179
774.127
774.092
774.068
774.054
774.044
774.039
774.035
774.033
774.032
774.031
774.03
774.03
774.03
774.03
774.029
774.029
774.029
774.029
774.028
774.028
774.028
774.027
774.027
774.026
774.025
774.024
774.024
774.023
774.022
774.021
774.019
774.018
774.017
774.016
774.015
774.014
774.012
774.011
774.01
774.009
774.008
774.007
774.006
774.005
774.005
774.004
774.003
774.003
774.003
774.002
774.002
774.002
774.002
774.002
774.003
774.003
774.003
774.003
774.004
774.004
774.005
774.005
774.006
774.006
774.007
774.007
774.007
774.008
774.008
774.009
774.009
774.009
774.01
774.01
774.01
774.011
774.011
774.011
774.011
774.012
774.012
774.012
774.013
774.013
774.014
774.015
774.016
774.017
774.018
774.019
774.02
774.022
774.024
774.026
774.028
774.03
774.032
774.035
774.038
774.041
774.044
774.047
774.051
774.054
774.058
774.061
774.065
774.069
774.073
774.077
774.08
774.085
774.088
774.095
774.099
774.16
773.988
773.967
773.964
773.966
773.966
773.961
773.949
773.94
773.923
773.914
773.898
773.886
773.872
773.863
773.852
773.846
773.841
773.844
773.852
773.885
774.037
774.039
774.045
774.043
774.038
774.025
774.007
773.994
773.974
773.958
773.946
773.921
773.907
773.897
773.884
773.871
773.86
773.851
773.844
773.837
774.106
774.105
774.105
774.101
774.097
774.092
774.086
774.08
774.074
774.066
774.058
774.053
774.051
774.052
774.054
774.048
774.032
774.027
774.018
774.014
774.146
774.151
774.15
774.148
774.145
774.142
774.136
774.127
774.117
774.113
774.121
774.135
774.114
774.069
774.056
774.05
774.021
773.954
773.94
773.948
774.158
774.174
774.173
774.174
774.174
774.172
774.169
774.163
774.156
774.157
774.165
774.176
774.156
774.124
774.102
774.09
774.048
774.005
774.007
773.999
773.937
773.952
773.953
773.953
773.955
773.964
773.971
773.975
773.98
773.987
773.992
773.997
774.003
774.009
774.014
774.02
774.026
774.032
774.038
774.045
774.051
774.058
774.065
774.072
774.079
774.087
774.094
774.103
774.111
774.12
774.129
774.138
774.147
774.157
774.166
774.176
774.185
774.194
774.204
774.213
774.222
774.232
774.241
774.251
774.261
774.271
774.282
774.292
774.302
774.313
774.324
774.335
774.346
774.357
774.368
774.379
774.39
774.402
774.413
774.425
774.437
774.448
774.46
774.473
774.486
774.5
774.513
774.528
774.545
774.564
774.584
774.603
774.618
774.628
774.638
774.658
774.718
774.832
774.923
774.972
774.985
774.977
774.925
774.84
774.78
774.741
774.721
774.716
774.717
774.721
774.731
774.742
774.76
774.772
774.791
774.802
774.823
774.833
774.862
774.746
773.82
773.824
773.827
773.827
773.829
773.838
773.846
773.849
773.852
773.859
773.866
773.872
773.877
773.883
773.889
773.895
773.902
773.908
773.915
773.922
773.929
773.936
773.944
773.952
773.959
773.967
773.975
773.984
773.992
774.001
774.01
774.019
774.028
774.038
774.048
774.057
774.067
774.077
774.087
774.097
774.107
774.117
774.127
774.137
774.147
774.157
774.167
774.178
774.189
774.199
774.21
774.221
774.232
774.243
774.254
774.266
774.277
774.288
774.3
774.312
774.324
774.336
774.349
774.362
774.375
774.388
774.401
774.417
774.434
774.45
774.466
774.484
774.507
774.535
774.558
774.573
774.589
774.62
774.666
774.715
774.759
774.787
774.799
774.799
774.786
774.741
774.703
774.687
774.685
774.688
774.697
774.715
774.737
774.755
774.777
774.792
774.815
774.826
774.853
774.799
774.041
774.065
774.075
774.084
774.095
774.102
774.106
774.109
774.114
774.118
774.122
774.126
774.131
774.136
774.141
774.146
774.152
774.158
774.165
774.172
774.179
774.187
774.194
774.201
774.208
774.215
774.222
774.229
774.236
774.244
774.252
774.261
774.27
774.28
774.289
774.299
774.309
774.319
774.329
774.339
774.35
774.36
774.37
774.381
774.392
774.404
774.416
774.429
774.441
774.453
774.465
774.477
774.491
774.505
774.52
774.534
774.548
774.563
774.576
774.587
774.591
774.589
774.574
774.536
774.504
774.478
774.46
774.453
774.453
774.455
774.461
774.472
774.485
774.499
774.515
774.531
774.547
774.563
774.577
774.591
774.603
774.615
774.626
774.636
774.646
774.657
774.668
774.681
774.694
774.709
774.724
774.74
774.755
774.772
774.787
774.804
774.82
774.835
774.851
774.873
773.853
773.847
773.861
773.85
773.831
773.836
773.86
773.867
773.864
773.864
773.868
773.879
773.884
773.888
773.894
773.9
773.907
773.914
773.921
773.928
773.935
773.942
773.95
773.958
773.966
773.974
773.983
773.992
774.001
774.01
774.019
774.028
774.037
774.046
774.056
774.065
774.074
774.083
774.093
774.102
774.112
774.122
774.132
774.143
774.153
774.164
774.175
774.186
774.198
774.209
774.219
774.23
774.242
774.253
774.265
774.276
774.287
774.298
774.309
774.321
774.333
774.345
774.358
774.372
774.386
774.399
774.413
774.426
774.439
774.454
774.47
774.488
774.506
774.524
774.543
774.562
774.579
774.593
774.604
774.618
774.648
774.726
774.823
774.895
774.931
774.938
774.921
774.849
774.774
774.735
774.723
774.724
774.729
774.748
774.766
774.792
774.806
774.832
774.846
774.9
773.868
773.851
773.851
773.839
773.818
773.82
773.841
773.85
773.848
773.847
773.851
773.862
773.869
773.872
773.878
773.885
773.892
773.898
773.905
773.912
773.92
773.927
773.935
773.942
773.95
773.958
773.967
773.975
773.984
773.993
774.003
774.012
774.021
774.031
774.04
774.05
774.059
774.069
774.078
774.088
774.097
774.107
774.117
774.128
774.138
774.148
774.159
774.17
774.181
774.192
774.204
774.215
774.225
774.236
774.247
774.259
774.271
774.282
774.293
774.305
774.316
774.327
774.339
774.352
774.365
774.378
774.391
774.405
774.418
774.431
774.445
774.459
774.475
774.492
774.51
774.528
774.548
774.567
774.584
774.596
774.608
774.63
774.69
774.812
774.911
774.96
774.969
774.948
774.861
774.775
774.734
774.723
774.724
774.735
774.756
774.786
774.803
774.83
774.846
774.9
774.788
774.773
774.774
774.776
774.778
774.776
774.768
774.761
774.752
774.746
774.735
774.73
774.722
774.716
774.711
774.708
774.708
774.71
774.717
774.742
774.822
774.828
774.835
774.834
774.832
774.825
774.813
774.802
774.791
774.783
774.766
774.762
774.753
774.741
774.736
774.729
774.723
774.716
774.714
774.708
774.88
774.884
774.885
774.885
774.885
774.883
774.883
774.881
774.878
774.877
774.879
774.881
774.884
774.884
774.88
774.88
774.881
774.884
774.886
774.892
774.911
774.921
774.924
774.925
774.925
774.925
774.925
774.927
774.932
774.944
774.936
774.912
774.903
774.907
774.893
774.857
774.857
774.87
774.899
774.877
774.917
774.938
774.943
774.947
774.951
774.953
774.956
774.959
774.966
774.978
774.97
774.953
774.94
774.939
774.923
774.903
774.907
774.92
774.952
774.889
774.788
774.817
774.839
774.862
774.886
774.907
774.931
774.953
774.975
774.995
775.015
775.034
775.053
775.073
775.092
775.111
775.13
775.149
775.169
775.189
775.209
775.229
775.249
775.269
775.289
775.31
775.33
775.35
775.37
775.39
775.41
775.43
775.449
775.47
775.49
775.51
775.531
775.552
775.573
775.594
775.615
775.636
775.658
775.679
775.701
775.722
775.744
775.766
775.789
775.81
775.833
775.855
775.878
775.9
775.923
775.947
775.97
775.993
776.016
776.039
776.063
776.088
776.113
776.137
776.162
776.19
776.224
776.26
776.289
776.307
776.32
776.345
776.414
776.552
776.668
776.733
776.754
776.75
776.708
776.626
776.57
776.545
776.539
776.54
776.544
776.559
776.58
776.603
776.627
776.651
776.675
776.7
776.725
776.75
776.775
776.801
776.826
776.851
776.876
776.902
776.927
776.953
776.979
777.004
777.03
777.056
777.082
777.108
777.134
777.16
777.186
777.212
777.239
777.265
777.292
777.318
777.345
777.372
777.399
777.426
777.453
777.48
777.507
777.534
777.561
777.589
777.616
777.644
777.671
777.698
777.726
777.753
777.781
777.808
777.836
777.863
777.891
777.918
777.946
777.973
778.001
778.028
778.055
778.083
778.11
778.137
778.164
778.191
778.218
778.246
778.273
778.3
778.327
778.354
778.381
778.408
778.435
778.462
778.489
778.516
778.543
778.57
778.597
778.624
778.651
778.678
778.705
778.732
778.759
778.786
778.813
778.84
778.867
778.894
778.921
778.948
778.975
779.002
779.029
779.056
779.082
779.11
779.135
779.164
779.188
779.217
779.24
779.271
779.292
779.324
779.344
779.377
779.396
779.429
779.448
779.478
779.504
779.525
779.558
779.581
774.71
774.722
774.734
774.758
774.783
774.799
774.817
774.838
774.858
774.878
774.897
774.916
774.935
774.954
774.973
774.992
775.011
775.03
775.049
775.069
775.089
775.109
775.129
775.149
775.17
775.19
775.211
775.232
775.252
775.273
775.293
775.314
775.334
775.354
775.375
775.395
775.416
775.436
775.457
775.478
775.5
775.521
775.542
775.564
775.586
775.607
775.629
775.652
775.674
775.695
775.718
775.741
775.763
775.786
775.809
775.833
775.856
775.878
775.902
775.927
775.952
775.976
776
776.025
776.053
776.082
776.108
776.133
776.167
776.21
776.246
776.27
776.295
776.334
776.392
776.459
776.519
776.56
776.578
776.58
776.57
776.537
776.515
776.51
776.512
776.521
776.547
776.578
776.607
776.636
776.664
776.692
776.719
776.745
776.771
776.797
776.823
776.849
776.874
776.9
776.926
776.951
776.977
777.003
777.028
777.054
777.08
777.106
777.132
777.158
777.184
777.211
777.237
777.264
777.29
777.317
777.343
777.37
777.397
777.424
777.451
777.478
777.505
777.533
777.56
777.587
777.615
777.642
777.669
777.697
777.724
777.752
777.779
777.807
777.834
777.862
777.889
777.917
777.944
777.972
777.999
778.026
778.054
778.081
778.108
778.136
778.163
778.19
778.217
778.244
778.271
778.298
778.325
778.352
778.379
778.407
778.433
778.46
778.487
778.514
778.541
778.569
778.596
778.623
778.65
778.677
778.704
778.731
778.758
778.785
778.812
778.839
778.866
778.893
778.92
778.947
778.974
779.001
779.027
779.055
779.081
779.109
779.134
779.162
779.186
779.216
779.239
779.269
779.291
779.322
779.343
779.375
779.394
779.428
779.446
779.48
779.497
779.531
779.549
779.582
774.937
774.952
774.986
775.021
775.045
775.062
775.079
775.098
775.115
775.132
775.149
775.167
775.185
775.203
775.222
775.242
775.261
775.279
775.298
775.316
775.334
775.353
775.372
775.392
775.412
775.432
775.453
775.474
775.494
775.515
775.536
775.557
775.577
775.598
775.619
775.64
775.661
775.682
775.703
775.724
775.745
775.766
775.788
775.811
775.833
775.855
775.878
775.901
775.926
775.952
775.979
776.005
776.032
776.059
776.086
776.111
776.13
776.141
776.144
776.139
776.116
776.09
776.081
776.081
776.084
776.092
776.108
776.129
776.153
776.178
776.205
776.232
776.259
776.285
776.31
776.334
776.357
776.379
776.4
776.42
776.44
776.46
776.481
776.503
776.526
776.55
776.575
776.6
776.625
776.649
776.674
776.699
776.724
776.749
776.774
776.799
776.824
776.85
776.875
776.9
776.926
776.952
776.977
777.003
777.028
777.054
777.08
777.106
777.132
777.158
777.184
777.211
777.237
777.264
777.29
777.317
777.343
777.37
777.397
777.424
777.451
777.478
777.505
777.533
777.56
777.587
777.615
777.642
777.669
777.697
777.724
777.752
777.779
777.807
777.834
777.862
777.889
777.917
777.944
777.972
777.999
778.026
778.054
778.081
778.108
778.136
778.163
778.19
778.217
778.244
778.271
778.298
778.325
778.352
778.379
778.407
778.433
778.46
778.487
778.514
778.541
778.569
778.596
778.623
778.65
778.677
778.704
778.731
778.758
778.785
778.812
778.839
778.866
778.893
778.92
778.947
778.974
779.001
779.027
779.054
779.081
779.108
779.134
779.162
779.187
779.215
779.241
779.267
779.294
779.32
779.345
779.374
779.396
779.425
779.45
779.475
779.502
779.527
779.551
779.578
774.761
774.775
774.786
774.775
774.795
774.837
774.849
774.852
774.861
774.888
774.907
774.922
774.94
774.958
774.977
774.997
775.016
775.036
775.056
775.076
775.097
775.117
775.137
775.157
775.177
775.197
775.217
775.237
775.257
775.278
775.298
775.318
775.339
775.36
775.381
775.402
775.423
775.445
775.466
775.488
775.51
775.532
775.553
775.575
775.596
775.618
775.639
775.661
775.683
775.705
775.727
775.749
775.772
775.795
775.817
775.84
775.863
775.887
775.91
775.934
775.96
775.986
776.011
776.034
776.058
776.082
776.108
776.137
776.166
776.197
776.23
776.264
776.296
776.32
776.335
776.353
776.395
776.495
776.61
776.695
776.735
776.74
776.719
776.647
776.592
776.57
776.567
776.572
776.594
776.627
776.658
776.688
776.716
776.743
776.77
776.796
776.822
776.848
776.874
776.9
776.925
776.951
776.977
777.003
777.028
777.054
777.08
777.106
777.132
777.158
777.184
777.211
777.237
777.264
777.29
777.317
777.343
777.37
777.397
777.424
777.451
777.478
777.505
777.533
777.56
777.587
777.615
777.642
777.669
777.697
777.724
777.752
777.779
777.807
777.834
777.862
777.889
777.917
777.944
777.972
777.999
778.026
778.054
778.081
778.108
778.136
778.163
778.19
778.217
778.244
778.271
778.298
778.325
778.352
778.379
778.406
778.434
778.46
778.487
778.514
778.541
778.569
778.596
778.623
778.65
778.677
778.704
778.731
778.758
778.785
778.812
778.839
778.866
778.893
778.92
778.947
778.974
779
779.028
779.054
779.082
779.107
779.136
779.16
779.189
779.212
779.243
779.265
779.296
779.317
779.349
779.368
779.402
779.419
779.454
779.471
779.505
779.523
779.554
779.582
774.772
774.767
774.776
774.761
774.773
774.814
774.831
774.835
774.843
774.867
774.889
774.906
774.923
774.942
774.962
774.981
775.001
775.02
775.04
775.06
775.081
775.101
775.121
775.142
775.162
775.182
775.203
775.223
775.243
775.263
775.283
775.304
775.325
775.345
775.366
775.387
775.408
775.429
775.451
775.472
775.494
775.515
775.537
775.558
775.58
775.601
775.623
775.645
775.667
775.689
775.712
775.734
775.756
775.779
775.802
775.825
775.848
775.871
775.894
775.918
775.941
775.965
775.991
776.016
776.041
776.065
776.088
776.113
776.139
776.166
776.194
776.224
776.259
776.294
776.322
776.339
776.355
776.385
776.471
776.619
776.731
776.78
776.784
776.753
776.659
776.596
776.574
776.573
776.582
776.614
776.651
776.683
776.713
776.742
776.77
776.797
776.823
776.849