/*--------------------------------*- C++ -*----------------------------------*\
| =========                 |                                                 |
| \\      /  F ield         | OpenFOAM: The Open Source CFD Toolbox           |
|  \\    /   O peration     | Version:  3.0.x                                 |
|   \\  /    A nd           | Web:      www.OpenFOAM.org                      |
|    \\/     M anipulation  |                                                 |
\*---------------------------------------------------------------------------*/
FoamFile
{
    version     2.0;
    format      ascii;
    class       surfaceScalarField;
    location    "0.7";
    object      phi;
}
// * * * * * * * * * * * * * * * * * * * * * * * * * * * * * * * * * * * * * //

dimensions      [1 0 -1 0 0 0 0];

internalField   nonuniform List<scalar> 
999
(
2523.38
2523.38
2523.38
2523.38
2523.38
2523.38
2523.38
2523.38
2523.38
2523.38
2523.38
2523.38
2523.38
2523.38
2523.38
2523.38
2523.38
2523.38
2523.38
2523.38
2523.38
2523.38
2523.38
2523.38
2523.38
2523.38
2523.38
2523.38
2523.38
2523.38
2523.38
2523.38
2523.38
2523.38
2523.38
2523.38
2523.38
2523.38
2523.38
2523.38
2523.38
2523.38
2523.38
2523.38
2523.38
2523.38
2523.38
2523.38
2523.38
2523.38
2523.38
2523.38
2523.38
2523.38
2523.38
2523.38
2523.38
2523.38
2523.38
2523.38
2523.38
2523.38
2523.38
2523.38
2523.38
2523.38
2523.38
2523.38
2523.38
2523.38
2523.38
2523.38
2523.38
2523.38
2523.38
2523.38
2523.38
2523.38
2523.38
2523.38
2523.38
2523.38
2523.38
2523.38
2523.38
2523.38
2523.38
2523.38
2523.38
2523.38
2523.38
2523.38
2523.38
2523.38
2523.38
2523.38
2523.38
2523.38
2523.38
2523.38
2523.38
2523.38
2523.38
2523.38
2523.38
2523.38
2523.38
2523.38
2523.38
2523.38
2523.38
2523.38
2523.38
2523.38
2523.38
2523.38
2523.38
2523.38
2523.38
2523.38
2523.38
2523.38
2523.38
2523.38
2523.38
2523.38
2523.38
2523.38
2523.38
2523.38
2523.38
2523.38
2523.38
2523.38
2523.38
2523.38
2523.38
2523.38
2523.38
2523.38
2523.38
2523.38
2523.38
2523.38
2523.38
2523.38
2523.38
2523.38
2523.38
2523.38
2523.38
2523.38
2523.38
2523.38
2523.38
2523.38
2523.38
2523.38
2523.38
2523.38
2523.38
2523.38
2523.38
2523.38
2523.38
2523.38
2523.38
2523.38
2523.38
2523.38
2523.38
2523.38
2523.38
2523.38
2523.38
2523.38
2523.38
2523.38
2523.38
2523.38
2523.38
2523.38
2523.38
2523.38
2523.38
2523.38
2523.38
2523.38
2523.38
2523.38
2523.38
2523.38
2523.38
2523.38
2523.38
2523.38
2523.38
2523.38
2523.38
2523.38
2523.38
2523.38
2523.38
2523.38
2523.38
2523.38
2523.38
2523.38
2523.38
2523.38
2523.38
2523.38
2523.38
2523.38
2523.38
2523.38
2523.38
2523.38
2523.38
2523.38
2523.38
2523.38
2523.38
2523.38
2523.38
2523.38
2523.38
2523.38
2523.38
2523.38
2523.38
2523.38
2523.38
2523.38
2523.38
2523.38
2523.38
2523.38
2523.38
2523.38
2523.38
2523.38
2523.38
2523.38
2523.38
2523.38
2523.38
2523.38
2523.38
2523.38
2523.38
2523.38
2523.38
2523.38
2523.38
2523.38
2523.38
2523.38
2523.38
2523.38
2523.38
2523.38
2523.38
2523.38
2523.38
2523.38
2523.38
2523.38
2523.38
2523.38
2523.38
2523.38
2523.38
2523.38
2523.38
2523.38
2523.38
2523.38
2523.38
2523.38
2523.38
2523.38
2523.38
2523.38
2523.38
2523.38
2523.38
2523.38
2523.38
2523.38
2523.38
2523.38
2523.38
2523.38
2523.38
2523.38
2523.38
2523.38
2523.38
2523.38
2523.38
2523.38
2523.38
2523.38
2523.38
2523.38
2523.38
2523.38
2523.38
2523.38
2523.38
2523.38
2523.38
2523.38
2523.38
2523.38
2523.38
2523.38
2523.38
2523.38
2523.38
2523.38
2523.38
2523.38
2523.38
2523.38
2523.38
2523.38
2523.38
2523.38
2523.38
2523.38
2523.38
2523.38
2523.38
2523.38
2523.38
2523.38
2523.38
2523.38
2523.38
2523.38
2523.38
2523.38
2523.38
2523.38
2523.38
2523.38
2523.38
2523.38
2523.38
2523.38
2523.38
2523.38
2523.38
2523.38
2523.38
2523.38
2523.38
2523.38
2523.38
2523.38
2523.38
2523.38
2523.38
2523.38
2523.38
2523.38
2523.38
2523.38
2523.38
2523.38
2523.38
2523.38
2523.38
2523.38
2523.38
2523.38
2523.38
2523.38
2523.38
2523.38
2523.38
2523.38
2523.38
2523.38
2523.38
2523.38
2523.38
2523.38
2523.38
2523.38
2523.38
2523.38
2523.38
2523.38
2523.38
2523.38
2523.38
2523.38
2523.38
2523.38
2523.38
2523.38
2523.38
2523.38
2523.38
2523.38
2523.38
2523.38
2523.38
2523.38
2523.38
2523.38
2523.38
2523.38
2523.38
2523.38
2523.38
2523.38
2523.38
2523.38
2523.38
2523.38
2523.38
2523.38
2523.38
2523.38
2523.38
2523.38
2523.38
2523.38
2523.38
2523.38
2523.38
2523.38
2523.38
2523.38
2523.38
2523.38
2523.38
2523.38
2523.38
2523.38
2523.38
2523.38
2523.38
2523.38
2523.38
2523.38
2523.38
2523.38
2523.38
2523.38
2523.38
2523.38
2523.38
2523.38
2523.38
2523.38
2523.38
2523.38
2523.38
2523.38
2523.38
2523.38
2523.38
2523.38
2523.38
2523.38
2523.38
2523.38
2523.38
2523.38
2523.38
2523.38
2523.38
2523.38
2523.38
2523.38
2523.38
2523.38
2523.38
2523.38
2523.38
2523.38
2523.38
2523.38
2523.38
2523.38
2523.38
2523.38
2523.38
2523.38
2523.38
2523.38
2523.38
2523.38
2523.38
2523.38
2523.38
2523.38
2523.38
2523.38
2523.38
2523.38
2523.38
2523.38
2523.38
2523.38
2523.38
2523.38
2523.38
2523.38
2523.38
2523.38
2523.38
2523.38
2523.38
2523.38
2523.38
2523.38
2523.38
2523.38
2523.38
2523.38
2523.38
2523.38
2523.38
2523.38
2523.38
2523.38
2523.38
2523.38
2523.38
2523.38
2523.38
2523.38
2523.38
2523.38
2523.38
2523.38
2523.38
2523.38
2523.38
2523.38
2523.38
2523.38
2523.38
2523.38
2523.38
2523.38
2523.38
2523.38
2523.38
2523.38
2523.38
2523.38
2523.38
2523.38
2523.38
2523.38
2523.38
2523.38
2523.38
2523.38
2523.38
2523.38
2523.38
2523.38
2523.38
2523.38
2523.38
2523.38
2523.38
2523.38
2523.38
2523.38
2523.38
2523.38
2523.38
2523.38
2523.38
2523.38
2523.38
2523.38
2523.38
2523.38
2523.38
2523.38
2523.38
2523.38
2523.38
2523.38
2523.38
2523.38
2523.38
2523.38
2523.38
2523.38
2523.38
2523.38
2523.38
2523.38
2523.38
2523.38
2523.38
2523.38
2523.38
2523.38
2523.38
2523.37
2523.37
2523.37
2523.36
2523.36
2523.35
2523.34
2523.32
2523.31
2523.29
2523.26
2523.23
2523.19
2523.14
2523.07
2523
2522.9
2522.79
2522.65
2522.48
2522.28
2522.03
2521.73
2521.38
2520.96
2520.46
2519.87
2519.17
2518.35
2517.39
2516.27
2514.97
2513.46
2511.72
2509.72
2507.42
2504.79
2501.79
2498.39
2494.53
2490.18
2485.3
2479.81
2473.69
2466.87
2459.3
2450.92
2441.68
2431.52
2420.38
2408.21
2394.95
2380.56
2364.98
2348.17
2330.09
2310.71
2289.99
2267.91
2244.45
2219.61
2193.38
2165.77
2136.78
2106.45
2074.8
2041.88
2007.71
1972.36
1935.87
1898.32
1859.77
1820.29
1779.95
1738.84
1697.03
1654.59
1611.61
1568.18
1524.36
1480.24
1435.88
1391.38
1346.79
1302.2
1257.66
1213.24
1169.01
1125.03
1081.35
1038.04
995.138
952.71
910.802
869.463
828.74
788.679
749.324
710.718
672.903
635.918
599.803
564.595
530.331
497.044
464.768
433.534
403.371
374.305
346.36
319.557
293.914
269.445
246.16
224.066
203.164
183.452
164.922
147.561
131.354
116.277
102.305
89.4067
77.5466
66.6863
56.7837
47.7941
39.6706
32.3648
25.8277
20.0101
14.8636
10.3415
6.3996
2.99853
0.118325
-2.16315
-3.93275
-5.44477
-6.70986
-7.76295
-8.63591
-9.3554
-9.94384
-10.4206
-10.8027
-11.1054
-11.3422
-11.5248
-11.6633
-11.7663
-11.8411
-11.8936
-11.9289
-11.9509
-11.963
-11.9676
-11.967
-11.9626
-11.9556
-11.9469
-11.9373
-11.9272
-11.9169
-11.9067
-11.8968
-11.8872
-11.8781
-11.8694
-11.8611
-11.8534
-11.8462
-11.8394
-11.8331
-11.8273
-11.8219
-11.8171
-11.8128
-11.809
-11.8056
-11.8025
-11.7997
-11.7971
-11.7945
-11.792
-11.7896
-11.7872
-11.7849
-11.7827
-11.7806
-11.7786
-11.7767
-11.7749
-11.7732
-11.7715
-11.7699
-11.7682
-11.7664
-11.7645
-11.7626
-11.7606
-11.7585
-11.7564
-11.7543
-11.7523
-11.7504
-11.7485
-11.7468
-11.7451
-11.7436
-11.7421
-11.7407
-11.7394
-11.7382
-11.737
-11.7359
-11.7349
-11.7338
-11.7328
-11.7319
-11.7309
-11.73
-11.7291
-11.7282
-11.7273
-11.7264
-11.7255
-11.7246
-11.7237
-11.7229
-11.722
-11.7212
-11.7204
-11.7196
-11.7189
-11.7182
-11.7176
-11.7171
-11.7166
-11.7163
-11.716
-11.7159
-11.7159
-11.7159
-11.7161
-11.7163
-11.7166
-11.7169
-11.7172
-11.7175
-11.7178
-11.7181
-11.7184
-11.7186
-11.7188
-11.7189
-11.719
-11.7191
-11.7192
-11.7192
-11.7192
-11.7191
-11.719
-11.7187
-11.7184
-11.718
-11.7175
-11.7169
-11.7163
-11.7156
-11.7148
-11.714
-11.7133
-11.7125
-11.7117
-11.7109
-11.7102
-11.7095
-11.7089
-11.7082
-11.7076
-11.7071
-11.7065
-11.706
-11.7055
-11.7051
-11.7046
-11.7042
-11.7038
-11.7034
-11.703
-11.7027
-11.7023
-11.702
-11.7016
-11.7013
-11.701
-11.7007
-11.7004
-11.7001
-11.6998
-11.6995
-11.6993
-11.699
-11.6988
-11.6985
-11.6983
-11.6981
-11.6979
-11.6977
-11.6976
-11.6975
-11.6974
-11.6973
-11.6973
-11.6973
-11.6974
-11.6975
-11.6977
-11.6979
-11.6982
-11.6985
-11.6988
-11.6991
-11.6995
-11.6998
-11.7002
-11.7005
-11.7009
-11.7012
-11.7016
-11.7019
-11.7022
-11.7025
-11.7027
-11.703
-11.7033
-11.7035
-11.7037
-11.7039
-11.7041
-11.7042
-11.7043
-11.7044
-11.7044
-11.7043
-11.7042
-11.7041
-11.7039
-11.7037
-11.7034
-11.7031
-11.7028
-11.7025
-11.7021
-11.7018
-11.7014
-11.701
-11.7007
-11.7004
-11.7
-11.6997
-11.6995
-11.6992
-11.699
-11.6987
-11.6985
-11.6984
-11.6982
-11.698
-11.6979
-11.6978
-11.6977
-11.6976
-11.6975
-11.6974
-11.6973
-11.6973
-11.6972
-11.6972
-11.6971
-11.6971
-11.6971
-11.697
-11.697
-11.697
-11.697
-11.6971
)
;

boundaryField
{
    inlet
    {
        type            calculated;
        value           uniform -2523.38;
    }
    backWall
    {
        type            calculated;
        value           uniform -11.6971;
    }
    sides
    {
        type            empty;
        value           nonuniform 0();
    }
}


// ************************************************************************* //
