/*--------------------------------*- C++ -*----------------------------------*\
| =========                 |                                                 |
| \\      /  F ield         | OpenFOAM: The Open Source CFD Toolbox           |
|  \\    /   O peration     | Version:  3.0.x                                 |
|   \\  /    A nd           | Web:      www.OpenFOAM.org                      |
|    \\/     M anipulation  |                                                 |
\*---------------------------------------------------------------------------*/
FoamFile
{
    version     2.0;
    format      ascii;
    class       volVectorField;
    location    "0.7";
    object      U;
}
// * * * * * * * * * * * * * * * * * * * * * * * * * * * * * * * * * * * * * //

dimensions      [0 1 -1 0 0 0 0];

internalField   nonuniform List<vector> 
1000
(
(50 0 0)
(50 0 0)
(50 0 0)
(50 0 0)
(50 0 0)
(50 0 0)
(50 0 0)
(50 0 0)
(50 0 0)
(50 0 0)
(50 0 0)
(50 0 0)
(50 0 0)
(50 0 0)
(50 0 0)
(50 0 0)
(50 0 0)
(50 0 0)
(50 0 0)
(50 0 0)
(50 0 0)
(50 0 0)
(50 0 0)
(50 0 0)
(50 0 0)
(50 0 0)
(50 0 0)
(50 0 0)
(50 0 0)
(50 0 0)
(50 0 0)
(50 0 0)
(50 0 0)
(50 0 0)
(50 0 0)
(50 0 0)
(50 0 0)
(50 0 0)
(50 0 0)
(50 0 0)
(50 0 0)
(50 0 0)
(50 0 0)
(50 0 0)
(50 0 0)
(50 0 0)
(50 0 0)
(50 0 0)
(50 0 0)
(50 0 0)
(50 0 0)
(50 0 0)
(50 0 0)
(50 0 0)
(50 0 0)
(50 0 0)
(50 0 0)
(50 0 0)
(50 0 0)
(50 0 0)
(50 0 0)
(50 0 0)
(50 0 0)
(50 0 0)
(50 0 0)
(50 0 0)
(50 0 0)
(50 0 0)
(50 0 0)
(50 0 0)
(50 0 0)
(50 0 0)
(50 0 0)
(50 0 0)
(50 0 0)
(50 0 0)
(50 0 0)
(50 0 0)
(50 0 0)
(50 0 0)
(50 0 0)
(50 0 0)
(50 0 0)
(50 0 0)
(50 0 0)
(50 0 0)
(50 0 0)
(50 0 0)
(50 0 0)
(50 0 0)
(50 0 0)
(50 0 0)
(50 0 0)
(50 0 0)
(50 0 0)
(50 0 0)
(50 0 0)
(50 0 0)
(50 0 0)
(50 0 0)
(50 0 0)
(50 0 0)
(50 0 0)
(50 0 0)
(50 0 0)
(50 0 0)
(50 0 0)
(50 0 0)
(50 0 0)
(50 0 0)
(50 0 0)
(50 0 0)
(50 0 0)
(50 0 0)
(50 0 0)
(50 0 0)
(50 0 0)
(50 0 0)
(50 0 0)
(50 0 0)
(50 0 0)
(50 0 0)
(50 0 0)
(50 0 0)
(50 0 0)
(50 0 0)
(50 0 0)
(50 0 0)
(50 0 0)
(50 0 0)
(50 0 0)
(50 0 0)
(50 0 0)
(50 0 0)
(50 0 0)
(50 0 0)
(50 0 0)
(50 0 0)
(50 0 0)
(50 0 0)
(50 0 0)
(50 0 0)
(50 0 0)
(50 0 0)
(50 0 0)
(50 0 0)
(50 0 0)
(50 0 0)
(50 0 0)
(50 0 0)
(50 0 0)
(50 0 0)
(50 0 0)
(50 0 0)
(50 0 0)
(50 0 0)
(50 0 0)
(50 0 0)
(50 0 0)
(50 0 0)
(50 0 0)
(50 0 0)
(50 0 0)
(50 0 0)
(50 0 0)
(50 0 0)
(50 0 0)
(50 0 0)
(50 0 0)
(50 0 0)
(50 0 0)
(50 0 0)
(50 0 0)
(50 0 0)
(50 0 0)
(50 0 0)
(50 0 0)
(50 0 0)
(50 0 0)
(50 0 0)
(50 0 0)
(50 0 0)
(50 0 0)
(50 0 0)
(50 0 0)
(50 0 0)
(50 0 0)
(50 0 0)
(50 0 0)
(50 0 0)
(50 0 0)
(50 0 0)
(50 0 0)
(50 0 0)
(50 0 0)
(50 0 0)
(50 0 0)
(50 0 0)
(50 0 0)
(50 0 0)
(50 0 0)
(50 0 0)
(50 0 0)
(50 0 0)
(50 0 0)
(50 0 0)
(50 0 0)
(50 0 0)
(50 0 0)
(50 0 0)
(50 0 0)
(50 0 0)
(50 0 0)
(50 0 0)
(50 0 0)
(50 0 0)
(50 0 0)
(50 0 0)
(50 0 0)
(50 0 0)
(50 0 0)
(50 0 0)
(50 0 0)
(50 0 0)
(50 0 0)
(50 0 0)
(50 0 0)
(50 0 0)
(50 0 0)
(50 0 0)
(50 0 0)
(50 0 0)
(50 0 0)
(50 0 0)
(50 0 0)
(50 0 0)
(50 0 0)
(50 0 0)
(50 0 0)
(50 0 0)
(50 0 0)
(50 0 0)
(50 0 0)
(50 0 0)
(50 0 0)
(50 0 0)
(50 0 0)
(50 0 0)
(50 0 0)
(50 0 0)
(50 0 0)
(50 0 0)
(50 0 0)
(50 0 0)
(50 0 0)
(50 0 0)
(50 0 0)
(50 0 0)
(50 0 0)
(50 0 0)
(50 0 0)
(50 0 0)
(50 0 0)
(50 0 0)
(50 0 0)
(50 0 0)
(50 0 0)
(50 0 0)
(50 0 0)
(50 0 0)
(50 0 0)
(50 0 0)
(50 0 0)
(50 0 0)
(50 0 0)
(50 0 0)
(50 0 0)
(50 0 0)
(50 0 0)
(50 0 0)
(50 0 0)
(50 0 0)
(50 0 0)
(50 0 0)
(50 0 0)
(50 0 0)
(50 0 0)
(50 0 0)
(50 0 0)
(50 0 0)
(50 0 0)
(50 0 0)
(50 0 0)
(50 0 0)
(50 0 0)
(50 0 0)
(50 0 0)
(50 0 0)
(50 0 0)
(50 0 0)
(50 0 0)
(50 0 0)
(50 0 0)
(50 0 0)
(50 0 0)
(50 0 0)
(50 0 0)
(50 0 0)
(50 0 0)
(50 0 0)
(50 0 0)
(50 0 0)
(50 0 0)
(50 0 0)
(50 0 0)
(50 0 0)
(50 0 0)
(50 0 0)
(50 0 0)
(50 0 0)
(50 0 0)
(50 0 0)
(50 0 0)
(50 0 0)
(50 0 0)
(50 0 0)
(50 0 0)
(50 0 0)
(50 0 0)
(50 0 0)
(50 0 0)
(50 0 0)
(50 0 0)
(50 0 0)
(50 0 0)
(50 0 0)
(50 0 0)
(50 0 0)
(50 0 0)
(50 0 0)
(50 0 0)
(50 0 0)
(50 0 0)
(50 0 0)
(50 0 0)
(50 0 0)
(50 0 0)
(50 0 0)
(50 0 0)
(50 0 0)
(50 0 0)
(50 0 0)
(50 0 0)
(50 0 0)
(50 0 0)
(50 0 0)
(50 0 0)
(50 0 0)
(50 0 0)
(50 0 0)
(50 0 0)
(50 0 0)
(50 0 0)
(50 0 0)
(50 0 0)
(50 0 0)
(50 0 0)
(50 0 0)
(50 0 0)
(50 0 0)
(50 0 0)
(50 0 0)
(50 0 0)
(50 0 0)
(50 0 0)
(50 0 0)
(50 0 0)
(50 0 0)
(50 0 0)
(50 0 0)
(50 0 0)
(50 0 0)
(50 0 0)
(50 0 0)
(50 0 0)
(50 0 0)
(50 0 0)
(50 0 0)
(50 0 0)
(50 0 0)
(50 0 0)
(50 0 0)
(50 0 0)
(50 0 0)
(50 0 0)
(50 0 0)
(50 0 0)
(50 0 0)
(50 0 0)
(50 0 0)
(50 0 0)
(50 0 0)
(50 0 0)
(50 0 0)
(50 0 0)
(50 0 0)
(50 0 0)
(50 0 0)
(50 0 0)
(50 0 0)
(50 0 0)
(50 0 0)
(50 0 0)
(50 0 0)
(50 0 0)
(50 0 0)
(50 0 0)
(50 0 0)
(50 0 0)
(50 0 0)
(50 0 0)
(50 0 0)
(50 0 0)
(50 0 0)
(50 0 0)
(50 0 0)
(50 0 0)
(50 0 0)
(50 0 0)
(50 0 0)
(50 0 0)
(50 0 0)
(50 0 0)
(50 0 0)
(50 0 0)
(50 0 0)
(50 0 0)
(50 0 0)
(50 0 0)
(50 0 0)
(50 0 0)
(50 0 0)
(50 0 0)
(50 0 0)
(50 0 0)
(50 0 0)
(50 0 0)
(50 0 0)
(50 0 0)
(50 0 0)
(50 0 0)
(50 0 0)
(50 0 0)
(50 0 0)
(50 0 0)
(50 0 0)
(50 0 0)
(50 0 0)
(50 0 0)
(50 0 0)
(50 0 0)
(50 0 0)
(50 0 0)
(50 0 0)
(50 0 0)
(50 0 0)
(50 0 0)
(50 0 0)
(50 0 0)
(50 0 0)
(50 0 0)
(50 0 0)
(50 0 0)
(50 0 0)
(50 0 0)
(50 0 0)
(50 0 0)
(50 0 0)
(50 0 0)
(50 0 0)
(50 0 0)
(50 0 0)
(50 0 0)
(50 0 0)
(50 0 0)
(50 0 0)
(50 0 0)
(50 0 0)
(50 0 0)
(50 0 0)
(50 0 0)
(50 0 0)
(50 0 0)
(50 0 0)
(50 0 0)
(50 0 0)
(50 0 0)
(50 0 0)
(50 0 0)
(50 0 0)
(50 0 0)
(50 0 0)
(50 0 0)
(50 0 0)
(50 0 0)
(50 0 0)
(50 0 0)
(50 0 0)
(50 0 0)
(50 0 0)
(50 0 0)
(50 0 0)
(50 0 0)
(50 0 0)
(50 0 0)
(50 0 0)
(50 0 0)
(50 0 0)
(50 0 0)
(50 0 0)
(50 0 0)
(50 0 0)
(50 0 0)
(50 0 0)
(50 0 0)
(50 0 0)
(50 0 0)
(50 0 0)
(50 0 0)
(50 0 0)
(50 0 0)
(50 0 0)
(50 0 0)
(50 0 0)
(50 0 0)
(50 0 0)
(50 0 0)
(50 0 0)
(50 0 0)
(50 0 0)
(50 0 0)
(50 0 0)
(50 0 0)
(50 0 0)
(50 0 0)
(50 0 0)
(50 0 0)
(50 0 0)
(50 0 0)
(50 0 0)
(50 0 0)
(50 0 0)
(50 0 0)
(50 0 0)
(50 0 0)
(50 0 0)
(50 0 0)
(50 0 0)
(50 0 0)
(50 0 0)
(50 0 0)
(50 0 0)
(50 0 0)
(50 0 0)
(50 0 0)
(50 0 0)
(50 0 0)
(50 0 0)
(50 0 0)
(50 0 0)
(50 0 0)
(50 0 0)
(50 0 0)
(50 0 0)
(50 0 0)
(50 0 0)
(50 0 0)
(50 0 0)
(50 0 0)
(50 0 0)
(50 0 0)
(50 0 0)
(50 0 0)
(50 0 0)
(50 0 0)
(50 0 0)
(50 0 0)
(50 0 0)
(50 0 0)
(50 0 0)
(50 0 0)
(50 0 0)
(50 0 0)
(50 0 0)
(50 0 0)
(50 0 0)
(50 0 0)
(50 0 0)
(50 0 0)
(50 0 0)
(50 0 0)
(50 0 0)
(50 0 0)
(50 0 0)
(50 0 0)
(50 0 0)
(50 0 0)
(49.9999 0 0)
(49.9999 0 0)
(49.9999 0 0)
(49.9999 0 0)
(49.9998 0 0)
(49.9998 0 0)
(49.9997 0 0)
(49.9996 0 0)
(49.9995 0 0)
(49.9993 0 0)
(49.9991 0 0)
(49.9989 0 0)
(49.9985 0 0)
(49.9981 0 0)
(49.9976 0 0)
(49.997 0 0)
(49.9962 0 0)
(49.9952 0 0)
(49.994 0 0)
(49.9926 0 0)
(49.9907 0 0)
(49.9885 0 0)
(49.9858 0 0)
(49.9825 0 0)
(49.9785 0 0)
(49.9737 0 0)
(49.9679 0 0)
(49.9609 0 0)
(49.9526 0 0)
(49.9428 0 0)
(49.9311 0 0)
(49.9173 0 0)
(49.9011 0 0)
(49.8821 0 0)
(49.8598 0 0)
(49.8339 0 0)
(49.8038 0 0)
(49.769 0 0)
(49.7289 0 0)
(49.6829 0 0)
(49.6301 0 0)
(49.5699 0 0)
(49.5015 0 0)
(49.4239 0 0)
(49.3362 0 0)
(49.2375 0 0)
(49.1267 0 0)
(49.0027 0 0)
(48.8645 0 0)
(48.7109 0 0)
(48.5407 0 0)
(48.3528 0 0)
(48.146 0 0)
(47.9192 0 0)
(47.6711 0 0)
(47.4007 0 0)
(47.1069 0 0)
(46.7887 0 0)
(46.4452 0 0)
(46.0756 0 0)
(45.6791 0 0)
(45.2552 0 0)
(44.8035 0 0)
(44.3235 0 0)
(43.8152 0 0)
(43.2785 0 0)
(42.7137 0 0)
(42.1211 0 0)
(41.5012 0 0)
(40.8547 0 0)
(40.1824 0 0)
(39.4854 0 0)
(38.7648 0 0)
(38.0219 0 0)
(37.258 0 0)
(36.4747 0 0)
(35.6735 0 0)
(34.856 0 0)
(34.0239 0 0)
(33.179 0 0)
(32.3228 0 0)
(31.4572 0 0)
(30.5838 0 0)
(29.7042 0 0)
(28.8202 0 0)
(27.9333 0 0)
(27.045 0 0)
(26.1569 0 0)
(25.2703 0 0)
(24.3865 0 0)
(23.507 0 0)
(22.6329 0 0)
(21.7655 0 0)
(20.9058 0 0)
(20.0549 0 0)
(19.2139 0 0)
(18.3836 0 0)
(17.5651 0 0)
(16.7592 0 0)
(15.9667 0 0)
(15.1885 0 0)
(14.4253 0 0)
(13.6778 0 0)
(12.9467 0 0)
(12.2327 0 0)
(11.5365 0 0)
(10.8586 0 0)
(10.1997 0 0)
(9.56033 0 0)
(8.94095 0 0)
(8.34209 0 0)
(7.7642 0 0)
(7.20769 0 0)
(6.67292 0 0)
(6.16021 0 0)
(5.66982 0 0)
(5.20194 0 0)
(4.75671 0 0)
(4.33419 0 0)
(3.93436 0 0)
(3.55714 0 0)
(3.20236 0 0)
(2.86975 0 0)
(2.55898 0 0)
(2.26963 0 0)
(2.0012 0 0)
(1.7531 0 0)
(1.52468 0 0)
(1.31522 0 0)
(1.12395 0 0)
(0.950038 0 0)
(0.792613 0 0)
(0.650784 0 0)
(0.52364 0 0)
(0.410274 0 0)
(0.30979 0 0)
(0.221328 0 0)
(0.144083 0 0)
(0.0773687 0 0)
(0.020848 0 0)
(-0.0239297 0 0)
(-0.0591936 0 0)
(-0.0894143 0 0)
(-0.115091 0 0)
(-0.136431 0 0)
(-0.154111 0 0)
(-0.168696 0 0)
(-0.180649 0 0)
(-0.190362 0 0)
(-0.198174 0 0)
(-0.204385 0 0)
(-0.209258 0 0)
(-0.213027 0 0)
(-0.215892 0 0)
(-0.218027 0 0)
(-0.219576 0 0)
(-0.220661 0 0)
(-0.221383 0 0)
(-0.221822 0 0)
(-0.222052 0 0)
(-0.222102 0 0)
(-0.222066 0 0)
(-0.221866 0 0)
(-0.221588 0 0)
(-0.221407 0 0)
(-0.221214 0 0)
(-0.220997 0 0)
(-0.22078 0 0)
(-0.220554 0 0)
(-0.220356 0 0)
(-0.220102 0 0)
(-0.219925 0 0)
(-0.219854 0 0)
(-0.219711 0 0)
(-0.219562 0 0)
(-0.219413 0 0)
(-0.219266 0 0)
(-0.219125 0 0)
(-0.218991 0 0)
(-0.218864 0 0)
(-0.218746 0 0)
(-0.218636 0 0)
(-0.218535 0 0)
(-0.218442 0 0)
(-0.218355 0 0)
(-0.218274 0 0)
(-0.218197 0 0)
(-0.218123 0 0)
(-0.218049 0 0)
(-0.217977 0 0)
(-0.217904 0 0)
(-0.217833 0 0)
(-0.21776 0 0)
(-0.217688 0 0)
(-0.217622 0 0)
(-0.217508 0 0)
(-0.217436 0 0)
(-0.217414 0 0)
(-0.217362 0 0)
(-0.217319 0 0)
(-0.217277 0 0)
(-0.217223 0 0)
(-0.217196 0 0)
(-0.217114 0 0)
(-0.217072 0 0)
(-0.217088 0 0)
(-0.217042 0 0)
(-0.217003 0 0)
(-0.216959 0 0)
(-0.216915 0 0)
(-0.216872 0 0)
(-0.216829 0 0)
(-0.216787 0 0)
(-0.216747 0 0)
(-0.216708 0 0)
(-0.216671 0 0)
(-0.216636 0 0)
(-0.216601 0 0)
(-0.216568 0 0)
(-0.216535 0 0)
(-0.216504 0 0)
(-0.216473 0 0)
(-0.216444 0 0)
(-0.216414 0 0)
(-0.216385 0 0)
(-0.216356 0 0)
(-0.216328 0 0)
(-0.216299 0 0)
(-0.216272 0 0)
(-0.216241 0 0)
(-0.216219 0 0)
(-0.216175 0 0)
(-0.216168 0 0)
(-0.216113 0 0)
(-0.21606 0 0)
(-0.21607 0 0)
(-0.216035 0 0)
(-0.216017 0 0)
(-0.215996 0 0)
(-0.215976 0 0)
(-0.215959 0 0)
(-0.215937 0 0)
(-0.215934 0 0)
(-0.215897 0 0)
(-0.215894 0 0)
(-0.21592 0 0)
(-0.215903 0 0)
(-0.215906 0 0)
(-0.215904 0 0)
(-0.215903 0 0)
(-0.215903 0 0)
(-0.215904 0 0)
(-0.215905 0 0)
(-0.215905 0 0)
(-0.215905 0 0)
(-0.215905 0 0)
(-0.215905 0 0)
(-0.215903 0 0)
(-0.215902 0 0)
(-0.215899 0 0)
(-0.215896 0 0)
(-0.215893 0 0)
(-0.215889 0 0)
(-0.215885 0 0)
(-0.215879 0 0)
(-0.215873 0 0)
(-0.215865 0 0)
(-0.215856 0 0)
(-0.215846 0 0)
(-0.215834 0 0)
(-0.21582 0 0)
(-0.215805 0 0)
(-0.215789 0 0)
(-0.215772 0 0)
(-0.215754 0 0)
(-0.215735 0 0)
(-0.215716 0 0)
(-0.215697 0 0)
(-0.215678 0 0)
(-0.215659 0 0)
(-0.215641 0 0)
(-0.215623 0 0)
(-0.215606 0 0)
(-0.215589 0 0)
(-0.215573 0 0)
(-0.215558 0 0)
(-0.215543 0 0)
(-0.215529 0 0)
(-0.215516 0 0)
(-0.215502 0 0)
(-0.21549 0 0)
(-0.215477 0 0)
(-0.215466 0 0)
(-0.215453 0 0)
(-0.215441 0 0)
(-0.215432 0 0)
(-0.215414 0 0)
(-0.215405 0 0)
(-0.2154 0 0)
(-0.215388 0 0)
(-0.21538 0 0)
(-0.215371 0 0)
(-0.215363 0 0)
(-0.215354 0 0)
(-0.215346 0 0)
(-0.215338 0 0)
(-0.21533 0 0)
(-0.215322 0 0)
(-0.215315 0 0)
(-0.215307 0 0)
(-0.2153 0 0)
(-0.215294 0 0)
(-0.215287 0 0)
(-0.215281 0 0)
(-0.215275 0 0)
(-0.21527 0 0)
(-0.215266 0 0)
(-0.215262 0 0)
(-0.215259 0 0)
(-0.215256 0 0)
(-0.215255 0 0)
(-0.215254 0 0)
(-0.215254 0 0)
(-0.215255 0 0)
(-0.215257 0 0)
(-0.21526 0 0)
(-0.215263 0 0)
(-0.215266 0 0)
(-0.21527 0 0)
(-0.215274 0 0)
(-0.215279 0 0)
(-0.215283 0 0)
(-0.215287 0 0)
(-0.215291 0 0)
(-0.215295 0 0)
(-0.215299 0 0)
(-0.215302 0 0)
(-0.215306 0 0)
(-0.215308 0 0)
(-0.215313 0 0)
(-0.215311 0 0)
(-0.215321 0 0)
(-0.215316 0 0)
(-0.215317 0 0)
(-0.215328 0 0)
(-0.215323 0 0)
(-0.215327 0 0)
(-0.215326 0 0)
(-0.215325 0 0)
(-0.215323 0 0)
(-0.21532 0 0)
(-0.215316 0 0)
(-0.215312 0 0)
(-0.215306 0 0)
(-0.2153 0 0)
(-0.215293 0 0)
(-0.215285 0 0)
(-0.215277 0 0)
(-0.215269 0 0)
(-0.215261 0 0)
(-0.215252 0 0)
(-0.215244 0 0)
(-0.215235 0 0)
(-0.215227 0 0)
(-0.215219 0 0)
(-0.215212 0 0)
(-0.215205 0 0)
(-0.215198 0 0)
(-0.215191 0 0)
(-0.215185 0 0)
(-0.215179 0 0)
(-0.215177 0 0)
(-0.215158 0 0)
(-0.215184 0 0)
(-0.215142 0 0)
(-0.215147 0 0)
(-0.215172 0 0)
(-0.215134 0 0)
(-0.215151 0 0)
(-0.215139 0 0)
(-0.215139 0 0)
(-0.215135 0 0)
(-0.215134 0 0)
(-0.215121 0 0)
(-0.215164 0 0)
(-0.214984 0 0)
(-0.215532 0 0)
(-0.21296 0 0)
(-0.218906 0 0)
(-0.207922 0 0)
(-0.222674 0 0)
(-0.210193 0 0)
(-0.214741 0 0)
)
;

boundaryField
{
    inlet
    {
        type            fixedValue;
        value           uniform (50 0 0);
    }
    backWall
    {
        type            zeroGradient;
    }
    sides
    {
        type            empty;
    }
}


// ************************************************************************* //
