/*--------------------------------*- C++ -*----------------------------------*\
| =========                 |                                                 |
| \\      /  F ield         | OpenFOAM: The Open Source CFD Toolbox           |
|  \\    /   O peration     | Version:  3.0.x                                 |
|   \\  /    A nd           | Web:      www.OpenFOAM.org                      |
|    \\/     M anipulation  |                                                 |
\*---------------------------------------------------------------------------*/
FoamFile
{
    version     2.0;
    format      ascii;
    class       volScalarField;
    location    "0.41";
    object      p;
}
// * * * * * * * * * * * * * * * * * * * * * * * * * * * * * * * * * * * * * //

dimensions      [1 -1 -2 0 0 0 0];

internalField   nonuniform List<scalar> 
6900
(
1.81944e+07
1.81944e+07
1.81944e+07
1.81944e+07
1.81944e+07
1.81945e+07
1.81945e+07
1.81945e+07
1.81946e+07
1.81946e+07
1.81946e+07
1.81947e+07
1.81947e+07
1.81947e+07
1.81948e+07
1.81948e+07
1.81948e+07
1.81948e+07
1.81949e+07
1.81949e+07
1.81949e+07
1.81949e+07
1.81949e+07
1.81949e+07
1.81949e+07
1.81949e+07
1.81949e+07
1.81948e+07
1.81948e+07
1.81948e+07
1.81948e+07
1.81948e+07
1.81948e+07
1.81947e+07
1.81947e+07
1.81947e+07
1.81947e+07
1.81947e+07
1.81947e+07
1.81948e+07
1.81948e+07
1.81948e+07
1.81948e+07
1.81949e+07
1.81949e+07
1.8195e+07
1.8195e+07
1.81951e+07
1.81951e+07
1.81952e+07
1.81952e+07
1.81953e+07
1.81953e+07
1.81953e+07
1.81954e+07
1.81954e+07
1.81954e+07
1.81954e+07
1.81954e+07
1.81954e+07
1.81954e+07
1.81954e+07
1.81954e+07
1.81954e+07
1.81954e+07
1.81953e+07
1.81953e+07
1.81953e+07
1.81953e+07
1.81952e+07
1.81952e+07
1.81952e+07
1.81952e+07
1.81952e+07
1.81952e+07
1.81952e+07
1.81952e+07
1.81952e+07
1.81953e+07
1.81953e+07
1.81954e+07
1.81954e+07
1.81955e+07
1.81955e+07
1.81956e+07
1.81956e+07
1.81957e+07
1.81957e+07
1.81958e+07
1.81958e+07
1.81959e+07
1.81959e+07
1.81959e+07
1.81959e+07
1.81959e+07
1.81959e+07
1.81959e+07
1.81959e+07
1.81959e+07
1.81958e+07
1.81958e+07
1.81958e+07
1.81957e+07
1.81957e+07
1.81956e+07
1.81956e+07
1.81956e+07
1.81955e+07
1.81955e+07
1.81955e+07
1.81955e+07
1.81955e+07
1.81955e+07
1.81955e+07
1.81955e+07
1.81956e+07
1.81956e+07
1.81957e+07
1.81958e+07
1.81958e+07
1.81959e+07
1.8196e+07
1.8196e+07
1.81961e+07
1.81961e+07
1.81962e+07
1.81962e+07
1.81962e+07
1.81963e+07
1.81963e+07
1.81962e+07
1.81962e+07
1.81962e+07
1.81962e+07
1.81961e+07
1.81961e+07
1.8196e+07
1.81959e+07
1.81959e+07
1.81958e+07
1.81957e+07
1.81957e+07
1.81956e+07
1.81956e+07
1.81955e+07
1.81955e+07
1.81955e+07
1.81955e+07
1.81956e+07
1.81956e+07
1.81956e+07
1.81957e+07
1.81958e+07
1.81959e+07
1.8196e+07
1.81961e+07
1.81962e+07
1.81963e+07
1.81964e+07
1.81965e+07
1.81966e+07
1.81967e+07
1.81968e+07
1.81968e+07
1.81969e+07
1.81969e+07
1.81969e+07
1.81969e+07
1.81969e+07
1.81969e+07
1.81968e+07
1.81968e+07
1.81968e+07
1.81967e+07
1.81967e+07
1.81967e+07
1.81967e+07
1.81967e+07
1.81967e+07
1.81967e+07
1.81967e+07
1.81968e+07
1.81969e+07
1.8197e+07
1.81972e+07
1.81973e+07
1.81976e+07
1.81978e+07
1.81981e+07
1.81984e+07
1.81987e+07
1.8199e+07
1.81993e+07
1.81997e+07
1.82e+07
1.82004e+07
1.82007e+07
1.8201e+07
1.82014e+07
1.82023e+07
1.81944e+07
1.81944e+07
1.81944e+07
1.81944e+07
1.81944e+07
1.81945e+07
1.81945e+07
1.81945e+07
1.81946e+07
1.81946e+07
1.81946e+07
1.81947e+07
1.81947e+07
1.81947e+07
1.81948e+07
1.81948e+07
1.81948e+07
1.81948e+07
1.81949e+07
1.81949e+07
1.81949e+07
1.81949e+07
1.81949e+07
1.81949e+07
1.81949e+07
1.81949e+07
1.81949e+07
1.81948e+07
1.81948e+07
1.81948e+07
1.81948e+07
1.81948e+07
1.81948e+07
1.81947e+07
1.81947e+07
1.81947e+07
1.81947e+07
1.81947e+07
1.81947e+07
1.81948e+07
1.81948e+07
1.81948e+07
1.81948e+07
1.81949e+07
1.81949e+07
1.8195e+07
1.8195e+07
1.81951e+07
1.81951e+07
1.81952e+07
1.81952e+07
1.81953e+07
1.81953e+07
1.81953e+07
1.81954e+07
1.81954e+07
1.81954e+07
1.81954e+07
1.81954e+07
1.81954e+07
1.81954e+07
1.81954e+07
1.81954e+07
1.81954e+07
1.81954e+07
1.81953e+07
1.81953e+07
1.81953e+07
1.81953e+07
1.81952e+07
1.81952e+07
1.81952e+07
1.81952e+07
1.81952e+07
1.81952e+07
1.81952e+07
1.81952e+07
1.81952e+07
1.81953e+07
1.81953e+07
1.81954e+07
1.81954e+07
1.81955e+07
1.81955e+07
1.81956e+07
1.81956e+07
1.81957e+07
1.81957e+07
1.81958e+07
1.81958e+07
1.81959e+07
1.81959e+07
1.81959e+07
1.81959e+07
1.81959e+07
1.81959e+07
1.81959e+07
1.81959e+07
1.81959e+07
1.81958e+07
1.81958e+07
1.81958e+07
1.81957e+07
1.81957e+07
1.81956e+07
1.81956e+07
1.81956e+07
1.81955e+07
1.81955e+07
1.81955e+07
1.81955e+07
1.81955e+07
1.81955e+07
1.81955e+07
1.81955e+07
1.81956e+07
1.81956e+07
1.81957e+07
1.81958e+07
1.81958e+07
1.81959e+07
1.8196e+07
1.8196e+07
1.81961e+07
1.81961e+07
1.81962e+07
1.81962e+07
1.81962e+07
1.81963e+07
1.81963e+07
1.81962e+07
1.81962e+07
1.81962e+07
1.81962e+07
1.81961e+07
1.81961e+07
1.8196e+07
1.81959e+07
1.81959e+07
1.81958e+07
1.81957e+07
1.81957e+07
1.81956e+07
1.81956e+07
1.81955e+07
1.81955e+07
1.81955e+07
1.81955e+07
1.81956e+07
1.81956e+07
1.81956e+07
1.81957e+07
1.81958e+07
1.81959e+07
1.8196e+07
1.81961e+07
1.81962e+07
1.81963e+07
1.81964e+07
1.81965e+07
1.81966e+07
1.81967e+07
1.81968e+07
1.81968e+07
1.81969e+07
1.81969e+07
1.81969e+07
1.81969e+07
1.81969e+07
1.81969e+07
1.81968e+07
1.81968e+07
1.81968e+07
1.81967e+07
1.81967e+07
1.81967e+07
1.81967e+07
1.81967e+07
1.81967e+07
1.81967e+07
1.81967e+07
1.81968e+07
1.81969e+07
1.8197e+07
1.81972e+07
1.81973e+07
1.81976e+07
1.81978e+07
1.81981e+07
1.81984e+07
1.81987e+07
1.8199e+07
1.81993e+07
1.81997e+07
1.82e+07
1.82004e+07
1.82007e+07
1.8201e+07
1.82014e+07
1.82023e+07
1.81944e+07
1.81944e+07
1.81944e+07
1.81944e+07
1.81944e+07
1.81945e+07
1.81945e+07
1.81945e+07
1.81946e+07
1.81946e+07
1.81946e+07
1.81947e+07
1.81947e+07
1.81947e+07
1.81948e+07
1.81948e+07
1.81948e+07
1.81948e+07
1.81949e+07
1.81949e+07
1.81949e+07
1.81949e+07
1.81949e+07
1.81949e+07
1.81949e+07
1.81949e+07
1.81949e+07
1.81948e+07
1.81948e+07
1.81948e+07
1.81948e+07
1.81948e+07
1.81948e+07
1.81947e+07
1.81947e+07
1.81947e+07
1.81947e+07
1.81947e+07
1.81947e+07
1.81948e+07
1.81948e+07
1.81948e+07
1.81948e+07
1.81949e+07
1.81949e+07
1.8195e+07
1.8195e+07
1.81951e+07
1.81951e+07
1.81952e+07
1.81952e+07
1.81953e+07
1.81953e+07
1.81953e+07
1.81954e+07
1.81954e+07
1.81954e+07
1.81954e+07
1.81954e+07
1.81954e+07
1.81954e+07
1.81954e+07
1.81954e+07
1.81954e+07
1.81954e+07
1.81953e+07
1.81953e+07
1.81953e+07
1.81953e+07
1.81952e+07
1.81952e+07
1.81952e+07
1.81952e+07
1.81952e+07
1.81952e+07
1.81952e+07
1.81952e+07
1.81952e+07
1.81953e+07
1.81953e+07
1.81954e+07
1.81954e+07
1.81955e+07
1.81955e+07
1.81956e+07
1.81956e+07
1.81957e+07
1.81957e+07
1.81958e+07
1.81958e+07
1.81959e+07
1.81959e+07
1.81959e+07
1.81959e+07
1.81959e+07
1.81959e+07
1.81959e+07
1.81959e+07
1.81959e+07
1.81958e+07
1.81958e+07
1.81958e+07
1.81957e+07
1.81957e+07
1.81956e+07
1.81956e+07
1.81956e+07
1.81955e+07
1.81955e+07
1.81955e+07
1.81955e+07
1.81955e+07
1.81955e+07
1.81955e+07
1.81955e+07
1.81956e+07
1.81956e+07
1.81957e+07
1.81958e+07
1.81958e+07
1.81959e+07
1.8196e+07
1.8196e+07
1.81961e+07
1.81961e+07
1.81962e+07
1.81962e+07
1.81962e+07
1.81963e+07
1.81963e+07
1.81962e+07
1.81962e+07
1.81962e+07
1.81962e+07
1.81961e+07
1.81961e+07
1.8196e+07
1.81959e+07
1.81959e+07
1.81958e+07
1.81957e+07
1.81957e+07
1.81956e+07
1.81956e+07
1.81955e+07
1.81955e+07
1.81955e+07
1.81955e+07
1.81956e+07
1.81956e+07
1.81956e+07
1.81957e+07
1.81958e+07
1.81959e+07
1.8196e+07
1.81961e+07
1.81962e+07
1.81963e+07
1.81964e+07
1.81965e+07
1.81966e+07
1.81967e+07
1.81968e+07
1.81968e+07
1.81969e+07
1.81969e+07
1.81969e+07
1.81969e+07
1.81969e+07
1.81969e+07
1.81968e+07
1.81968e+07
1.81968e+07
1.81967e+07
1.81967e+07
1.81967e+07
1.81967e+07
1.81967e+07
1.81967e+07
1.81967e+07
1.81967e+07
1.81968e+07
1.81969e+07
1.8197e+07
1.81972e+07
1.81973e+07
1.81976e+07
1.81978e+07
1.81981e+07
1.81984e+07
1.81987e+07
1.8199e+07
1.81993e+07
1.81997e+07
1.82e+07
1.82004e+07
1.82007e+07
1.8201e+07
1.82013e+07
1.82016e+07
1.81944e+07
1.81944e+07
1.81944e+07
1.81944e+07
1.81944e+07
1.81945e+07
1.81945e+07
1.81945e+07
1.81946e+07
1.81946e+07
1.81946e+07
1.81947e+07
1.81947e+07
1.81947e+07
1.81948e+07
1.81948e+07
1.81948e+07
1.81948e+07
1.81949e+07
1.81949e+07
1.81949e+07
1.81949e+07
1.81949e+07
1.81949e+07
1.81949e+07
1.81949e+07
1.81949e+07
1.81948e+07
1.81948e+07
1.81948e+07
1.81948e+07
1.81948e+07
1.81948e+07
1.81947e+07
1.81947e+07
1.81947e+07
1.81947e+07
1.81947e+07
1.81947e+07
1.81948e+07
1.81948e+07
1.81948e+07
1.81948e+07
1.81949e+07
1.81949e+07
1.8195e+07
1.8195e+07
1.81951e+07
1.81951e+07
1.81952e+07
1.81952e+07
1.81953e+07
1.81953e+07
1.81953e+07
1.81954e+07
1.81954e+07
1.81954e+07
1.81954e+07
1.81954e+07
1.81954e+07
1.81954e+07
1.81954e+07
1.81954e+07
1.81954e+07
1.81954e+07
1.81953e+07
1.81953e+07
1.81953e+07
1.81953e+07
1.81952e+07
1.81952e+07
1.81952e+07
1.81952e+07
1.81952e+07
1.81952e+07
1.81952e+07
1.81952e+07
1.81952e+07
1.81953e+07
1.81953e+07
1.81954e+07
1.81954e+07
1.81955e+07
1.81955e+07
1.81956e+07
1.81956e+07
1.81957e+07
1.81957e+07
1.81958e+07
1.81958e+07
1.81959e+07
1.81959e+07
1.81959e+07
1.81959e+07
1.81959e+07
1.81959e+07
1.81959e+07
1.81959e+07
1.81959e+07
1.81958e+07
1.81958e+07
1.81958e+07
1.81957e+07
1.81957e+07
1.81956e+07
1.81956e+07
1.81956e+07
1.81955e+07
1.81955e+07
1.81955e+07
1.81955e+07
1.81955e+07
1.81955e+07
1.81955e+07
1.81955e+07
1.81956e+07
1.81956e+07
1.81957e+07
1.81958e+07
1.81958e+07
1.81959e+07
1.8196e+07
1.8196e+07
1.81961e+07
1.81961e+07
1.81962e+07
1.81962e+07
1.81962e+07
1.81963e+07
1.81963e+07
1.81962e+07
1.81962e+07
1.81962e+07
1.81962e+07
1.81961e+07
1.81961e+07
1.8196e+07
1.81959e+07
1.81959e+07
1.81958e+07
1.81957e+07
1.81957e+07
1.81956e+07
1.81956e+07
1.81955e+07
1.81955e+07
1.81955e+07
1.81955e+07
1.81956e+07
1.81956e+07
1.81956e+07
1.81957e+07
1.81958e+07
1.81959e+07
1.8196e+07
1.81961e+07
1.81962e+07
1.81963e+07
1.81964e+07
1.81965e+07
1.81966e+07
1.81967e+07
1.81968e+07
1.81968e+07
1.81969e+07
1.81969e+07
1.81969e+07
1.81969e+07
1.81969e+07
1.81969e+07
1.81968e+07
1.81968e+07
1.81968e+07
1.81967e+07
1.81967e+07
1.81967e+07
1.81967e+07
1.81967e+07
1.81967e+07
1.81967e+07
1.81967e+07
1.81968e+07
1.81969e+07
1.8197e+07
1.81972e+07
1.81973e+07
1.81976e+07
1.81978e+07
1.81981e+07
1.81984e+07
1.81987e+07
1.8199e+07
1.81993e+07
1.81997e+07
1.82e+07
1.82004e+07
1.82007e+07
1.82009e+07
1.8201e+07
1.82005e+07
1.81944e+07
1.81944e+07
1.81944e+07
1.81944e+07
1.81944e+07
1.81945e+07
1.81945e+07
1.81945e+07
1.81946e+07
1.81946e+07
1.81946e+07
1.81947e+07
1.81947e+07
1.81947e+07
1.81948e+07
1.81948e+07
1.81948e+07
1.81948e+07
1.81949e+07
1.81949e+07
1.81949e+07
1.81949e+07
1.81949e+07
1.81949e+07
1.81949e+07
1.81949e+07
1.81949e+07
1.81948e+07
1.81948e+07
1.81948e+07
1.81948e+07
1.81948e+07
1.81948e+07
1.81947e+07
1.81947e+07
1.81947e+07
1.81947e+07
1.81947e+07
1.81947e+07
1.81948e+07
1.81948e+07
1.81948e+07
1.81948e+07
1.81949e+07
1.81949e+07
1.8195e+07
1.8195e+07
1.81951e+07
1.81951e+07
1.81952e+07
1.81952e+07
1.81953e+07
1.81953e+07
1.81953e+07
1.81954e+07
1.81954e+07
1.81954e+07
1.81954e+07
1.81954e+07
1.81954e+07
1.81954e+07
1.81954e+07
1.81954e+07
1.81954e+07
1.81954e+07
1.81953e+07
1.81953e+07
1.81953e+07
1.81953e+07
1.81952e+07
1.81952e+07
1.81952e+07
1.81952e+07
1.81952e+07
1.81952e+07
1.81952e+07
1.81952e+07
1.81952e+07
1.81953e+07
1.81953e+07
1.81954e+07
1.81954e+07
1.81955e+07
1.81955e+07
1.81956e+07
1.81956e+07
1.81957e+07
1.81957e+07
1.81958e+07
1.81958e+07
1.81959e+07
1.81959e+07
1.81959e+07
1.81959e+07
1.81959e+07
1.81959e+07
1.81959e+07
1.81959e+07
1.81959e+07
1.81958e+07
1.81958e+07
1.81958e+07
1.81957e+07
1.81957e+07
1.81956e+07
1.81956e+07
1.81956e+07
1.81955e+07
1.81955e+07
1.81955e+07
1.81955e+07
1.81955e+07
1.81955e+07
1.81955e+07
1.81955e+07
1.81956e+07
1.81956e+07
1.81957e+07
1.81958e+07
1.81958e+07
1.81959e+07
1.8196e+07
1.8196e+07
1.81961e+07
1.81961e+07
1.81962e+07
1.81962e+07
1.81962e+07
1.81963e+07
1.81963e+07
1.81962e+07
1.81962e+07
1.81962e+07
1.81962e+07
1.81961e+07
1.81961e+07
1.8196e+07
1.81959e+07
1.81959e+07
1.81958e+07
1.81957e+07
1.81957e+07
1.81956e+07
1.81956e+07
1.81955e+07
1.81955e+07
1.81955e+07
1.81955e+07
1.81956e+07
1.81956e+07
1.81956e+07
1.81957e+07
1.81958e+07
1.81959e+07
1.8196e+07
1.81961e+07
1.81962e+07
1.81963e+07
1.81964e+07
1.81965e+07
1.81966e+07
1.81967e+07
1.81968e+07
1.81968e+07
1.81969e+07
1.81969e+07
1.81969e+07
1.81969e+07
1.81969e+07
1.81969e+07
1.81968e+07
1.81968e+07
1.81968e+07
1.81967e+07
1.81967e+07
1.81967e+07
1.81967e+07
1.81967e+07
1.81967e+07
1.81967e+07
1.81967e+07
1.81968e+07
1.81969e+07
1.8197e+07
1.81972e+07
1.81973e+07
1.81976e+07
1.81978e+07
1.81981e+07
1.81984e+07
1.81987e+07
1.8199e+07
1.81993e+07
1.81997e+07
1.82e+07
1.82004e+07
1.82007e+07
1.82009e+07
1.8201e+07
1.82005e+07
1.82088e+07
1.82117e+07
1.8212e+07
1.82114e+07
1.82108e+07
1.82103e+07
1.82094e+07
1.82079e+07
1.82063e+07
1.82052e+07
1.82048e+07
1.82058e+07
1.82075e+07
1.82073e+07
1.82033e+07
1.81958e+07
1.81898e+07
1.81862e+07
1.81831e+07
1.818e+07
1.82072e+07
1.82086e+07
1.82086e+07
1.82079e+07
1.82073e+07
1.82068e+07
1.82059e+07
1.82043e+07
1.82026e+07
1.82015e+07
1.82012e+07
1.82023e+07
1.8204e+07
1.82034e+07
1.81985e+07
1.81902e+07
1.81841e+07
1.81808e+07
1.81781e+07
1.8176e+07
1.8202e+07
1.8202e+07
1.82016e+07
1.82008e+07
1.81997e+07
1.81983e+07
1.81966e+07
1.81947e+07
1.81925e+07
1.81898e+07
1.81868e+07
1.81834e+07
1.81798e+07
1.81763e+07
1.81732e+07
1.81701e+07
1.81667e+07
1.81627e+07
1.81584e+07
1.81537e+07
1.81918e+07
1.81908e+07
1.81913e+07
1.81919e+07
1.81914e+07
1.81898e+07
1.81875e+07
1.81843e+07
1.81818e+07
1.81786e+07
1.81757e+07
1.81728e+07
1.817e+07
1.81672e+07
1.81646e+07
1.81622e+07
1.81601e+07
1.81584e+07
1.81571e+07
1.81562e+07
1.8187e+07
1.81821e+07
1.81804e+07
1.81802e+07
1.81795e+07
1.81777e+07
1.8175e+07
1.81717e+07
1.81685e+07
1.8165e+07
1.81617e+07
1.81584e+07
1.81551e+07
1.8152e+07
1.8149e+07
1.81463e+07
1.8144e+07
1.81422e+07
1.81411e+07
1.81411e+07
1.8168e+07
1.81582e+07
1.81535e+07
1.81522e+07
1.81519e+07
1.81524e+07
1.81523e+07
1.81522e+07
1.81523e+07
1.81527e+07
1.81531e+07
1.81534e+07
1.81538e+07
1.81542e+07
1.81547e+07
1.81551e+07
1.81556e+07
1.81561e+07
1.81566e+07
1.81572e+07
1.81577e+07
1.81583e+07
1.81589e+07
1.81594e+07
1.816e+07
1.81606e+07
1.81612e+07
1.81618e+07
1.81625e+07
1.81631e+07
1.81637e+07
1.81643e+07
1.81649e+07
1.81655e+07
1.81662e+07
1.81668e+07
1.81675e+07
1.81681e+07
1.81688e+07
1.81695e+07
1.81701e+07
1.81708e+07
1.81715e+07
1.81722e+07
1.8173e+07
1.81737e+07
1.81745e+07
1.81752e+07
1.8176e+07
1.81768e+07
1.81776e+07
1.81785e+07
1.81793e+07
1.81802e+07
1.81811e+07
1.8182e+07
1.81829e+07
1.81839e+07
1.81848e+07
1.81858e+07
1.81869e+07
1.81879e+07
1.8189e+07
1.81901e+07
1.81912e+07
1.81924e+07
1.81936e+07
1.81949e+07
1.81962e+07
1.81973e+07
1.81985e+07
1.81996e+07
1.82009e+07
1.82022e+07
1.82035e+07
1.82048e+07
1.82062e+07
1.82076e+07
1.8209e+07
1.82104e+07
1.82118e+07
1.82133e+07
1.82148e+07
1.82163e+07
1.82178e+07
1.82194e+07
1.8221e+07
1.82225e+07
1.82241e+07
1.82257e+07
1.82273e+07
1.82289e+07
1.82306e+07
1.82322e+07
1.82338e+07
1.82355e+07
1.82371e+07
1.82388e+07
1.82404e+07
1.82421e+07
1.82437e+07
1.82454e+07
1.8247e+07
1.82487e+07
1.82504e+07
1.82522e+07
1.82539e+07
1.82557e+07
1.82575e+07
1.82593e+07
1.82611e+07
1.8263e+07
1.82649e+07
1.82668e+07
1.82687e+07
1.82707e+07
1.82727e+07
1.82747e+07
1.82768e+07
1.82788e+07
1.82809e+07
1.8283e+07
1.82851e+07
1.82873e+07
1.82894e+07
1.82916e+07
1.82938e+07
1.8296e+07
1.82982e+07
1.83004e+07
1.83027e+07
1.83049e+07
1.83071e+07
1.83094e+07
1.83117e+07
1.8314e+07
1.83163e+07
1.83186e+07
1.83209e+07
1.83232e+07
1.83255e+07
1.83279e+07
1.83302e+07
1.83326e+07
1.8335e+07
1.83374e+07
1.83398e+07
1.83422e+07
1.83447e+07
1.83471e+07
1.83496e+07
1.83521e+07
1.83546e+07
1.83572e+07
1.83597e+07
1.83623e+07
1.83649e+07
1.83675e+07
1.83702e+07
1.83728e+07
1.83756e+07
1.83783e+07
1.8381e+07
1.83838e+07
1.83866e+07
1.83895e+07
1.83923e+07
1.83952e+07
1.83981e+07
1.8401e+07
1.8404e+07
1.84069e+07
1.84099e+07
1.84129e+07
1.8416e+07
1.8419e+07
1.8422e+07
1.84251e+07
1.84282e+07
1.84313e+07
1.84344e+07
1.84375e+07
1.84406e+07
1.84437e+07
1.84468e+07
1.845e+07
1.84531e+07
1.84563e+07
1.84595e+07
1.84627e+07
1.84659e+07
1.84691e+07
1.84723e+07
1.84756e+07
1.84788e+07
1.84821e+07
1.84854e+07
1.84886e+07
1.84918e+07
1.84946e+07
1.81669e+07
1.8158e+07
1.81536e+07
1.81522e+07
1.8152e+07
1.81524e+07
1.81523e+07
1.81522e+07
1.81523e+07
1.81527e+07
1.81531e+07
1.81534e+07
1.81538e+07
1.81542e+07
1.81547e+07
1.81551e+07
1.81556e+07
1.81561e+07
1.81566e+07
1.81572e+07
1.81577e+07
1.81583e+07
1.81589e+07
1.81594e+07
1.816e+07
1.81606e+07
1.81612e+07
1.81618e+07
1.81624e+07
1.81631e+07
1.81637e+07
1.81643e+07
1.81649e+07
1.81655e+07
1.81662e+07
1.81668e+07
1.81675e+07
1.81681e+07
1.81688e+07
1.81694e+07
1.81701e+07
1.81708e+07
1.81715e+07
1.81722e+07
1.8173e+07
1.81737e+07
1.81745e+07
1.81752e+07
1.8176e+07
1.81768e+07
1.81776e+07
1.81785e+07
1.81793e+07
1.81802e+07
1.81811e+07
1.8182e+07
1.81829e+07
1.81839e+07
1.81848e+07
1.81858e+07
1.81869e+07
1.81879e+07
1.8189e+07
1.81901e+07
1.81912e+07
1.81924e+07
1.81936e+07
1.81949e+07
1.81962e+07
1.81973e+07
1.81985e+07
1.81996e+07
1.82009e+07
1.82022e+07
1.82035e+07
1.82048e+07
1.82062e+07
1.82076e+07
1.8209e+07
1.82104e+07
1.82118e+07
1.82133e+07
1.82148e+07
1.82163e+07
1.82178e+07
1.82194e+07
1.8221e+07
1.82225e+07
1.82241e+07
1.82257e+07
1.82273e+07
1.82289e+07
1.82306e+07
1.82322e+07
1.82338e+07
1.82355e+07
1.82371e+07
1.82388e+07
1.82404e+07
1.82421e+07
1.82437e+07
1.82454e+07
1.8247e+07
1.82487e+07
1.82504e+07
1.82522e+07
1.82539e+07
1.82557e+07
1.82575e+07
1.82593e+07
1.82611e+07
1.8263e+07
1.82649e+07
1.82668e+07
1.82687e+07
1.82707e+07
1.82727e+07
1.82747e+07
1.82768e+07
1.82788e+07
1.82809e+07
1.8283e+07
1.82851e+07
1.82873e+07
1.82894e+07
1.82916e+07
1.82938e+07
1.8296e+07
1.82982e+07
1.83004e+07
1.83027e+07
1.83049e+07
1.83071e+07
1.83094e+07
1.83117e+07
1.8314e+07
1.83163e+07
1.83186e+07
1.83209e+07
1.83232e+07
1.83255e+07
1.83279e+07
1.83302e+07
1.83326e+07
1.8335e+07
1.83374e+07
1.83398e+07
1.83422e+07
1.83447e+07
1.83471e+07
1.83496e+07
1.83521e+07
1.83546e+07
1.83572e+07
1.83597e+07
1.83623e+07
1.83649e+07
1.83675e+07
1.83702e+07
1.83728e+07
1.83756e+07
1.83783e+07
1.8381e+07
1.83838e+07
1.83866e+07
1.83895e+07
1.83923e+07
1.83952e+07
1.83981e+07
1.8401e+07
1.8404e+07
1.84069e+07
1.84099e+07
1.84129e+07
1.8416e+07
1.8419e+07
1.8422e+07
1.84251e+07
1.84282e+07
1.84313e+07
1.84344e+07
1.84375e+07
1.84406e+07
1.84437e+07
1.84468e+07
1.845e+07
1.84531e+07
1.84563e+07
1.84595e+07
1.84627e+07
1.84659e+07
1.84691e+07
1.84723e+07
1.84756e+07
1.84788e+07
1.84821e+07
1.84854e+07
1.84886e+07
1.84918e+07
1.84946e+07
1.81413e+07
1.81463e+07
1.81503e+07
1.81513e+07
1.81514e+07
1.81514e+07
1.81516e+07
1.81519e+07
1.81523e+07
1.81526e+07
1.8153e+07
1.81534e+07
1.81538e+07
1.81542e+07
1.81547e+07
1.81551e+07
1.81556e+07
1.81561e+07
1.81566e+07
1.81572e+07
1.81577e+07
1.81583e+07
1.81589e+07
1.81595e+07
1.816e+07
1.81606e+07
1.81612e+07
1.81618e+07
1.81625e+07
1.81631e+07
1.81637e+07
1.81643e+07
1.81649e+07
1.81656e+07
1.81662e+07
1.81668e+07
1.81675e+07
1.81681e+07
1.81688e+07
1.81695e+07
1.81701e+07
1.81708e+07
1.81715e+07
1.81723e+07
1.8173e+07
1.81737e+07
1.81745e+07
1.81752e+07
1.8176e+07
1.81768e+07
1.81776e+07
1.81785e+07
1.81793e+07
1.81802e+07
1.81811e+07
1.8182e+07
1.81829e+07
1.81839e+07
1.81848e+07
1.81858e+07
1.81869e+07
1.81879e+07
1.8189e+07
1.81901e+07
1.81912e+07
1.81924e+07
1.81935e+07
1.81947e+07
1.81959e+07
1.81971e+07
1.81984e+07
1.81996e+07
1.82009e+07
1.82022e+07
1.82036e+07
1.82049e+07
1.82063e+07
1.82077e+07
1.82091e+07
1.82105e+07
1.8212e+07
1.82134e+07
1.82149e+07
1.82164e+07
1.8218e+07
1.82195e+07
1.82211e+07
1.82227e+07
1.82242e+07
1.82258e+07
1.82274e+07
1.8229e+07
1.82306e+07
1.82322e+07
1.82339e+07
1.82355e+07
1.82371e+07
1.82388e+07
1.82404e+07
1.82421e+07
1.82437e+07
1.82454e+07
1.8247e+07
1.82487e+07
1.82504e+07
1.82522e+07
1.82539e+07
1.82557e+07
1.82575e+07
1.82593e+07
1.82611e+07
1.8263e+07
1.82649e+07
1.82668e+07
1.82687e+07
1.82707e+07
1.82727e+07
1.82747e+07
1.82768e+07
1.82788e+07
1.82809e+07
1.8283e+07
1.82851e+07
1.82873e+07
1.82894e+07
1.82916e+07
1.82938e+07
1.8296e+07
1.82982e+07
1.83004e+07
1.83027e+07
1.83049e+07
1.83071e+07
1.83094e+07
1.83117e+07
1.8314e+07
1.83163e+07
1.83186e+07
1.83209e+07
1.83232e+07
1.83255e+07
1.83279e+07
1.83302e+07
1.83326e+07
1.8335e+07
1.83374e+07
1.83398e+07
1.83422e+07
1.83447e+07
1.83471e+07
1.83496e+07
1.83521e+07
1.83546e+07
1.83572e+07
1.83597e+07
1.83623e+07
1.83649e+07
1.83675e+07
1.83702e+07
1.83728e+07
1.83756e+07
1.83783e+07
1.8381e+07
1.83838e+07
1.83866e+07
1.83895e+07
1.83923e+07
1.83952e+07
1.83981e+07
1.8401e+07
1.8404e+07
1.84069e+07
1.84099e+07
1.84129e+07
1.8416e+07
1.8419e+07
1.8422e+07
1.84251e+07
1.84282e+07
1.84313e+07
1.84344e+07
1.84375e+07
1.84406e+07
1.84437e+07
1.84468e+07
1.845e+07
1.84531e+07
1.84563e+07
1.84595e+07
1.84627e+07
1.84659e+07
1.84691e+07
1.84723e+07
1.84756e+07
1.84788e+07
1.84821e+07
1.84854e+07
1.84887e+07
1.8492e+07
1.84953e+07
1.81534e+07
1.81524e+07
1.81518e+07
1.81515e+07
1.81514e+07
1.81514e+07
1.81516e+07
1.81519e+07
1.81523e+07
1.81526e+07
1.8153e+07
1.81534e+07
1.81538e+07
1.81542e+07
1.81547e+07
1.81551e+07
1.81556e+07
1.81561e+07
1.81566e+07
1.81572e+07
1.81577e+07
1.81583e+07
1.81589e+07
1.81595e+07
1.816e+07
1.81606e+07
1.81612e+07
1.81619e+07
1.81625e+07
1.81631e+07
1.81637e+07
1.81643e+07
1.81649e+07
1.81656e+07
1.81662e+07
1.81668e+07
1.81675e+07
1.81681e+07
1.81688e+07
1.81695e+07
1.81701e+07
1.81708e+07
1.81715e+07
1.81723e+07
1.8173e+07
1.81737e+07
1.81745e+07
1.81753e+07
1.8176e+07
1.81768e+07
1.81776e+07
1.81785e+07
1.81793e+07
1.81802e+07
1.81811e+07
1.8182e+07
1.81829e+07
1.81839e+07
1.81849e+07
1.81859e+07
1.81869e+07
1.81879e+07
1.8189e+07
1.81901e+07
1.81912e+07
1.81924e+07
1.81936e+07
1.81948e+07
1.81959e+07
1.81972e+07
1.81984e+07
1.81997e+07
1.8201e+07
1.82023e+07
1.82037e+07
1.8205e+07
1.82064e+07
1.82078e+07
1.82092e+07
1.82107e+07
1.82121e+07
1.82136e+07
1.82151e+07
1.82166e+07
1.82181e+07
1.82196e+07
1.82212e+07
1.82227e+07
1.82243e+07
1.82259e+07
1.82275e+07
1.82291e+07
1.82307e+07
1.82323e+07
1.82339e+07
1.82355e+07
1.82371e+07
1.82388e+07
1.82404e+07
1.82421e+07
1.82437e+07
1.82454e+07
1.8247e+07
1.82487e+07
1.82504e+07
1.82522e+07
1.82539e+07
1.82557e+07
1.82575e+07
1.82593e+07
1.82611e+07
1.8263e+07
1.82649e+07
1.82668e+07
1.82687e+07
1.82707e+07
1.82727e+07
1.82747e+07
1.82768e+07
1.82788e+07
1.82809e+07
1.8283e+07
1.82851e+07
1.82873e+07
1.82894e+07
1.82916e+07
1.82938e+07
1.8296e+07
1.82982e+07
1.83004e+07
1.83027e+07
1.83049e+07
1.83071e+07
1.83094e+07
1.83117e+07
1.8314e+07
1.83163e+07
1.83186e+07
1.83209e+07
1.83232e+07
1.83255e+07
1.83279e+07
1.83302e+07
1.83326e+07
1.8335e+07
1.83374e+07
1.83398e+07
1.83422e+07
1.83447e+07
1.83471e+07
1.83496e+07
1.83521e+07
1.83546e+07
1.83572e+07
1.83597e+07
1.83623e+07
1.83649e+07
1.83675e+07
1.83702e+07
1.83728e+07
1.83756e+07
1.83783e+07
1.8381e+07
1.83838e+07
1.83866e+07
1.83895e+07
1.83923e+07
1.83952e+07
1.83981e+07
1.8401e+07
1.8404e+07
1.84069e+07
1.84099e+07
1.84129e+07
1.8416e+07
1.8419e+07
1.8422e+07
1.84251e+07
1.84282e+07
1.84313e+07
1.84344e+07
1.84375e+07
1.84406e+07
1.84437e+07
1.84468e+07
1.845e+07
1.84531e+07
1.84563e+07
1.84595e+07
1.84627e+07
1.84659e+07
1.84691e+07
1.84723e+07
1.84756e+07
1.84788e+07
1.84821e+07
1.84854e+07
1.84887e+07
1.84921e+07
1.84958e+07
1.81505e+07
1.8152e+07
1.81517e+07
1.81515e+07
1.81514e+07
1.81514e+07
1.81516e+07
1.81519e+07
1.81523e+07
1.81526e+07
1.8153e+07
1.81534e+07
1.81538e+07
1.81542e+07
1.81547e+07
1.81551e+07
1.81556e+07
1.81561e+07
1.81566e+07
1.81572e+07
1.81577e+07
1.81583e+07
1.81589e+07
1.81595e+07
1.816e+07
1.81606e+07
1.81612e+07
1.81618e+07
1.81625e+07
1.81631e+07
1.81637e+07
1.81643e+07
1.81649e+07
1.81656e+07
1.81662e+07
1.81668e+07
1.81675e+07
1.81681e+07
1.81688e+07
1.81695e+07
1.81701e+07
1.81708e+07
1.81715e+07
1.81723e+07
1.8173e+07
1.81737e+07
1.81745e+07
1.81753e+07
1.8176e+07
1.81768e+07
1.81776e+07
1.81785e+07
1.81793e+07
1.81802e+07
1.81811e+07
1.8182e+07
1.81829e+07
1.81839e+07
1.81849e+07
1.81859e+07
1.81869e+07
1.81879e+07
1.8189e+07
1.81901e+07
1.81912e+07
1.81924e+07
1.81936e+07
1.81948e+07
1.81959e+07
1.81972e+07
1.81984e+07
1.81997e+07
1.8201e+07
1.82023e+07
1.82037e+07
1.8205e+07
1.82064e+07
1.82078e+07
1.82092e+07
1.82107e+07
1.82121e+07
1.82136e+07
1.82151e+07
1.82166e+07
1.82181e+07
1.82196e+07
1.82212e+07
1.82227e+07
1.82243e+07
1.82259e+07
1.82275e+07
1.82291e+07
1.82307e+07
1.82323e+07
1.82339e+07
1.82355e+07
1.82371e+07
1.82388e+07
1.82404e+07
1.82421e+07
1.82437e+07
1.82454e+07
1.8247e+07
1.82487e+07
1.82504e+07
1.82522e+07
1.82539e+07
1.82557e+07
1.82575e+07
1.82593e+07
1.82611e+07
1.8263e+07
1.82649e+07
1.82668e+07
1.82687e+07
1.82707e+07
1.82727e+07
1.82747e+07
1.82768e+07
1.82788e+07
1.82809e+07
1.8283e+07
1.82851e+07
1.82873e+07
1.82894e+07
1.82916e+07
1.82938e+07
1.8296e+07
1.82982e+07
1.83004e+07
1.83027e+07
1.83049e+07
1.83071e+07
1.83094e+07
1.83117e+07
1.8314e+07
1.83163e+07
1.83186e+07
1.83209e+07
1.83232e+07
1.83255e+07
1.83279e+07
1.83302e+07
1.83326e+07
1.8335e+07
1.83374e+07
1.83398e+07
1.83422e+07
1.83447e+07
1.83471e+07
1.83496e+07
1.83521e+07
1.83546e+07
1.83572e+07
1.83597e+07
1.83623e+07
1.83649e+07
1.83675e+07
1.83702e+07
1.83728e+07
1.83756e+07
1.83783e+07
1.8381e+07
1.83838e+07
1.83866e+07
1.83895e+07
1.83923e+07
1.83952e+07
1.83981e+07
1.8401e+07
1.8404e+07
1.84069e+07
1.84099e+07
1.84129e+07
1.8416e+07
1.8419e+07
1.8422e+07
1.84251e+07
1.84282e+07
1.84313e+07
1.84344e+07
1.84375e+07
1.84406e+07
1.84437e+07
1.84468e+07
1.845e+07
1.84531e+07
1.84563e+07
1.84595e+07
1.84627e+07
1.84659e+07
1.84691e+07
1.84723e+07
1.84756e+07
1.84788e+07
1.84821e+07
1.84854e+07
1.84887e+07
1.84921e+07
1.84958e+07
1.84904e+07
1.84882e+07
1.84878e+07
1.84882e+07
1.84882e+07
1.84876e+07
1.84866e+07
1.84855e+07
1.84842e+07
1.84829e+07
1.84816e+07
1.84805e+07
1.84792e+07
1.8478e+07
1.84769e+07
1.84759e+07
1.84751e+07
1.84744e+07
1.84742e+07
1.84748e+07
1.84932e+07
1.84934e+07
1.84942e+07
1.84949e+07
1.8495e+07
1.84947e+07
1.84938e+07
1.84929e+07
1.84919e+07
1.84909e+07
1.84897e+07
1.8489e+07
1.84878e+07
1.8487e+07
1.84861e+07
1.84853e+07
1.84846e+07
1.8484e+07
1.84837e+07
1.84837e+07
1.84975e+07
1.84983e+07
1.84988e+07
1.84991e+07
1.84992e+07
1.84991e+07
1.84988e+07
1.84984e+07
1.84978e+07
1.84971e+07
1.84962e+07
1.84949e+07
1.84935e+07
1.84918e+07
1.849e+07
1.84883e+07
1.84869e+07
1.84856e+07
1.84845e+07
1.84831e+07
1.85002e+07
1.85019e+07
1.85027e+07
1.85033e+07
1.85039e+07
1.85046e+07
1.85053e+07
1.85056e+07
1.8505e+07
1.85039e+07
1.85034e+07
1.85035e+07
1.8504e+07
1.85056e+07
1.85087e+07
1.85108e+07
1.85099e+07
1.85049e+07
1.84976e+07
1.8493e+07
1.85011e+07
1.85037e+07
1.85048e+07
1.85053e+07
1.85059e+07
1.85066e+07
1.85074e+07
1.85077e+07
1.85073e+07
1.85063e+07
1.85058e+07
1.85057e+07
1.85061e+07
1.85076e+07
1.85107e+07
1.85132e+07
1.85129e+07
1.85089e+07
1.85022e+07
1.84972e+07
1.84822e+07
1.84866e+07
1.84897e+07
1.84928e+07
1.84959e+07
1.84991e+07
1.85024e+07
1.85058e+07
1.85092e+07
1.85126e+07
1.8516e+07
1.85195e+07
1.85229e+07
1.85264e+07
1.85299e+07
1.85334e+07
1.85369e+07
1.85405e+07
1.8544e+07
1.85475e+07
1.85511e+07
1.85547e+07
1.85583e+07
1.85619e+07
1.85655e+07
1.85692e+07
1.85728e+07
1.85765e+07
1.85802e+07
1.85838e+07
1.85875e+07
1.85913e+07
1.8595e+07
1.85987e+07
1.86025e+07
1.86062e+07
1.861e+07
1.86138e+07
1.86176e+07
1.86214e+07
1.86252e+07
1.86291e+07
1.86329e+07
1.86368e+07
1.86406e+07
1.86445e+07
1.86483e+07
1.86522e+07
1.8656e+07
1.86599e+07
1.86638e+07
1.86676e+07
1.86715e+07
1.86754e+07
1.86792e+07
1.86831e+07
1.86869e+07
1.86908e+07
1.86947e+07
1.86985e+07
1.87024e+07
1.87063e+07
1.87102e+07
1.8714e+07
1.87179e+07
1.87218e+07
1.87257e+07
1.87295e+07
1.87334e+07
1.87373e+07
1.87413e+07
1.87452e+07
1.87491e+07
1.8753e+07
1.87569e+07
1.87609e+07
1.87648e+07
1.87688e+07
1.87728e+07
1.87768e+07
1.87808e+07
1.87848e+07
1.87888e+07
1.87929e+07
1.87969e+07
1.8801e+07
1.8805e+07
1.88091e+07
1.88132e+07
1.88172e+07
1.88213e+07
1.88253e+07
1.88293e+07
1.88334e+07
1.88374e+07
1.88414e+07
1.88454e+07
1.88494e+07
1.88532e+07
1.88569e+07
1.84838e+07
1.84868e+07
1.84898e+07
1.84928e+07
1.84959e+07
1.84991e+07
1.85024e+07
1.85058e+07
1.85092e+07
1.85126e+07
1.8516e+07
1.85195e+07
1.85229e+07
1.85264e+07
1.85299e+07
1.85334e+07
1.85369e+07
1.85405e+07
1.8544e+07
1.85475e+07
1.85511e+07
1.85547e+07
1.85583e+07
1.85619e+07
1.85655e+07
1.85692e+07
1.85728e+07
1.85765e+07
1.85802e+07
1.85838e+07
1.85875e+07
1.85913e+07
1.8595e+07
1.85987e+07
1.86025e+07
1.86062e+07
1.861e+07
1.86138e+07
1.86176e+07
1.86214e+07
1.86252e+07
1.86291e+07
1.86329e+07
1.86368e+07
1.86406e+07
1.86445e+07
1.86483e+07
1.86522e+07
1.8656e+07
1.86599e+07
1.86638e+07
1.86676e+07
1.86715e+07
1.86754e+07
1.86792e+07
1.86831e+07
1.86869e+07
1.86908e+07
1.86947e+07
1.86985e+07
1.87024e+07
1.87063e+07
1.87102e+07
1.8714e+07
1.87179e+07
1.87218e+07
1.87257e+07
1.87296e+07
1.87334e+07
1.87373e+07
1.87413e+07
1.87452e+07
1.87491e+07
1.8753e+07
1.87569e+07
1.87609e+07
1.87648e+07
1.87688e+07
1.87728e+07
1.87768e+07
1.87808e+07
1.87848e+07
1.87888e+07
1.87929e+07
1.87969e+07
1.8801e+07
1.8805e+07
1.88091e+07
1.88132e+07
1.88172e+07
1.88213e+07
1.88253e+07
1.88293e+07
1.88334e+07
1.88374e+07
1.88414e+07
1.88454e+07
1.88494e+07
1.88532e+07
1.88569e+07
1.84788e+07
1.8485e+07
1.84897e+07
1.84932e+07
1.84964e+07
1.84997e+07
1.8503e+07
1.85063e+07
1.85097e+07
1.85131e+07
1.85165e+07
1.85199e+07
1.85233e+07
1.85267e+07
1.85302e+07
1.85337e+07
1.85371e+07
1.85406e+07
1.85442e+07
1.85477e+07
1.85512e+07
1.85548e+07
1.85584e+07
1.8562e+07
1.85656e+07
1.85692e+07
1.85728e+07
1.85765e+07
1.85802e+07
1.85838e+07
1.85875e+07
1.85912e+07
1.8595e+07
1.85987e+07
1.86025e+07
1.86062e+07
1.861e+07
1.86138e+07
1.86176e+07
1.86214e+07
1.86252e+07
1.86291e+07
1.86329e+07
1.86367e+07
1.86406e+07
1.86444e+07
1.86483e+07