/*--------------------------------*- C++ -*----------------------------------*\
| =========                 |                                                 |
| \\      /  F ield         | OpenFOAM: The Open Source CFD Toolbox           |
|  \\    /   O peration     | Version:  3.0.x                                 |
|   \\  /    A nd           | Web:      www.OpenFOAM.org                      |
|    \\/     M anipulation  |                                                 |
\*---------------------------------------------------------------------------*/
FoamFile
{
    version     2.0;
    format      ascii;
    class       surfaceScalarField;
    location    "0.41";
    object      phi;
}
// * * * * * * * * * * * * * * * * * * * * * * * * * * * * * * * * * * * * * //

dimensions      [1 0 -1 0 0 0 0];

internalField   nonuniform List<scalar> 
12415
(
5.7973
0.000327745
5.797
0.00023512
5.79671
0.000224596
5.79642
0.000226728
5.79611
0.000227103
5.7958
0.000226913
5.79547
0.000226852
5.79514
0.000226854
5.79479
0.000226853
5.79444
0.00022685
5.79407
0.000226849
5.7937
0.000226848
5.79332
0.000226846
5.79294
0.000226846
5.79255
0.000226845
5.79216
0.000226846
5.79176
0.000226847
5.79138
0.000226852
5.79099
0.000226861
5.79061
0.000226875
5.79024
0.000226892
5.78988
0.000226915
5.78952
0.000226929
5.78918
0.000227023
5.78885
0.000227014
5.78853
0.000227047
5.78823
0.000227301
5.78795
0.000227105
5.78768
0.000227287
5.78741
0.000227371
5.78714
0.000227453
5.78687
0.000227539
5.7866
0.000227629
5.78632
0.000227722
5.78605
0.000227818
5.78577
0.000227917
5.78549
0.000228019
5.7852
0.000228123
5.78491
0.000228241
5.78462
0.000228351
5.78432
0.000228459
5.78401
0.000228564
5.78369
0.000228662
5.78336
0.000228747
5.78302
0.000228809
5.78266
0.000228835
5.7823
0.00022881
5.78193
0.000228712
5.78155
0.000228516
5.78117
0.000228174
5.78081
0.000227731
5.78045
0.000226949
5.78011
0.000225983
5.77978
0.000224659
5.77947
0.000222928
5.77918
0.00022072
5.7789
0.000217961
5.77865
0.000214578
5.77841
0.000210507
5.77818
0.000205693
5.77798
0.00020009
5.77779
0.000193688
5.77763
0.000186478
5.77748
0.000178488
5.77734
0.000169773
5.77722
0.000160404
5.77711
0.000150482
5.777
0.000140125
5.7769
0.000129469
5.7768
0.000118656
5.77671
0.000107837
5.7766
9.71591e-05
5.77649
8.67587e-05
5.77637
7.67628e-05
5.77624
6.72453e-05
5.7761
5.83958e-05
5.77594
5.01703e-05
5.77577
4.26658e-05
5.77559
3.58948e-05
5.7754
2.98575e-05
5.77519
2.45413e-05
5.77498
1.99129e-05
5.77477
1.59305e-05
5.77456
1.25425e-05
5.77435
9.69217e-06
5.77415
7.32002e-06
5.77396
5.36717e-06
5.77378
3.77597e-06
5.77363
2.49311e-06
5.7735
1.46757e-06
5.77339
6.56217e-07
5.77332
2.22608e-08
5.77327
-4.72115e-07
5.77325
-8.50125e-07
5.77326
-1.13572e-06
5.77329
-1.35481e-06
5.77335
-1.51507e-06
5.77343
-1.64496e-06
5.77353
-1.73404e-06
5.77364
-1.79969e-06
5.77376
-1.84732e-06
5.77389
-1.8804e-06
5.77402
-1.90221e-06
5.77413
-1.91593e-06
5.77424
-1.92267e-06
5.77432
-1.92415e-06
5.77439
-1.92093e-06
5.77442
-1.91509e-06
5.77443
-1.90452e-06
5.7744
-1.89609e-06
5.77433
-1.88367e-06
5.77423
-1.86864e-06
5.77409
-1.85845e-06
5.77391
-1.83889e-06
5.7737
-1.82582e-06
5.77346
-1.81282e-06
5.77319
-1.80183e-06
5.77291
-1.79222e-06
5.77261
-1.78561e-06
5.7723
-1.78196e-06
5.77199
-1.78019e-06
5.7717
-1.78305e-06
5.77142
-1.78733e-06
5.77116
-1.79612e-06
5.77093
-1.80588e-06
5.77074
-1.81962e-06
5.77059
-1.83401e-06
5.77049
-1.85067e-06
5.77042
-1.86762e-06
5.7704
-1.88233e-06
5.77042
-1.89264e-06
5.77048
-1.92222e-06
5.77058
-1.93448e-06
5.77071
-1.94775e-06
5.77087
-1.95959e-06
5.77105
-1.96886e-06
5.77124
-1.97519e-06
5.77143
-1.97943e-06
5.77163
-1.97995e-06
5.77181
-1.97714e-06
5.77197
-1.97274e-06
5.77211
-1.96338e-06
5.77221
-1.95264e-06
5.77227
-1.93801e-06
5.77228
-1.92061e-06
5.77224
-1.90378e-06
5.77214
-1.88996e-06
5.77198
-1.86353e-06
5.77177
-1.83915e-06
5.77149
-1.81244e-06
5.77116
-1.79287e-06
5.77077
-1.77286e-06
5.77034
-1.75556e-06
5.76987
-1.73936e-06
5.76937
-1.72894e-06
5.76886
-1.72291e-06
5.76835
-1.72008e-06
5.76785
-1.72339e-06
5.76738
-1.73211e-06
5.76694
-1.74265e-06
5.76654
-1.75978e-06
5.7662
-1.77785e-06
5.76591
-1.79953e-06
5.76569
-1.82123e-06
5.76552
-1.84331e-06
5.7654
-1.86456e-06
5.76533
-1.88031e-06
5.76531
-1.90308e-06
5.76532
-1.90735e-06
5.76535
-1.92769e-06
5.76541
-1.93328e-06
5.76547
-1.93761e-06
5.76554
-1.94035e-06
5.76561
-1.93885e-06
5.76566
-1.93438e-06
5.76568
-1.92524e-06
5.76568
-1.91443e-06
5.76562
-1.90489e-06
5.76552
-1.87577e-06
5.76534
-1.86562e-06
5.76508
-1.82419e-06
5.76473
-1.78819e-06
5.76428
-1.75494e-06
5.76371
-1.7129e-06
5.76302
-1.67388e-06
5.76222
-1.62466e-06
5.7613
-1.59208e-06
5.76028
-1.53967e-06
5.75915
-1.51911e-06
5.75793
-1.46524e-06
5.75665
-1.45327e-06
5.75532
-1.31245e-06
5.75396
-7.46231e-07
5.75259
3.4563e-06
5.75122
3.24791e-05
5.7497
0.000234856
5.74684
0.00164329
5.73428
0.011424
5.64322
0.089999
0.445145
5.19707
11.5954
0.000260505
11.5953
0.00021588
11.5952
0.000189278
11.5951
0.000194023
11.5949
0.000195321
11.5948
0.000194726
11.5946
0.000194559
11.5944
0.000194572
11.5942
0.000194579
11.594
0.000194579
11.5938
0.000194584
11.5935
0.000194591
11.5932
0.000194598
11.5929
0.000194607
11.5927
0.000194616
11.5924
0.000194626
11.5921
0.000194638
11.5918
0.000194652
11.5915
0.00019467
11.5912
0.000194693
11.591
0.000194719
11.5907
0.000194749
11.5905
0.000194778
11.5903
0.000194852
11.5901
0.000194871
11.59
0.000194917
11.5899
0.000195101
11.5898
0.000195005
11.5897
0.000195137
11.5897
0.000195228
11.5896
0.000195309
11.5896
0.000195394
11.5895
0.000195483
11.5894
0.000195574
11.5894
0.000195668
11.5893
0.000195763
11.5892
0.000195867
11.5891
0.000195961
11.5891
0.000196077
11.589
0.000196182
11.5888
0.000196286
11.5887
0.000196388
11.5886
0.000196484
11.5884
0.000196568
11.5882
0.000196632
11.588
0.000196665
11.5877
0.000196653
11.5875
0.000196578
11.5872
0.000196416
11.587
0.000196131
11.5867
0.000195739
11.5865
0.000195099
11.5863
0.000194249
11.5861
0.00019311
11.586
0.000191613
11.5858
0.000189703
11.5858
0.000187313
11.5857
0.000184383
11.5857
0.000180856
11.5857
0.000176685
11.5857
0.000171833
11.5857
0.000166289
11.5858
0.000160051
11.5859
0.00015314
11.586
0.000145607
11.5861
0.000137513
11.5862
0.000128948
11.5863
0.000120014
11.5863
0.000110829
11.5864
0.000101516
11.5864
9.22058e-05
11.5864
8.30246e-05
11.5864
7.40902e-05
11.5863
6.551e-05
11.5862
5.73476e-05
11.586
4.97675e-05
11.5858
4.27246e-05
11.5856
3.63063e-05
11.5853
3.05214e-05
11.585
2.53654e-05
11.5846
2.08321e-05
11.5842
1.68877e-05
11.5839
1.34971e-05
11.5835
1.06153e-05
11.5831
8.19303e-06
11.5827
6.17921e-06
11.5823
4.52279e-06
11.582
3.17446e-06
11.5817
2.08948e-06
11.5814
1.22117e-06
11.5812
5.3666e-07
11.581
3.96426e-09
11.5809
-4.15637e-07
11.5809
-7.35079e-07
11.5809
-9.7779e-07
11.581
-1.16288e-06
11.5811
-1.30206e-06
11.5812
-1.4092e-06
11.5814
-1.48722e-06
11.5817
-1.54331e-06
11.5819
-1.584e-06
11.5822
-1.61241e-06
11.5824
-1.63122e-06
11.5826
-1.64293e-06
11.5828
-1.64886e-06
11.583
-1.65001e-06
11.5831
-1.64742e-06
11.5832
-1.64225e-06
11.5832
-1.63362e-06
11.5831
-1.62569e-06
11.583
-1.61545e-06
11.5828
-1.60311e-06
11.5825
-1.59342e-06
11.5821
-1.5769e-06
11.5817
-1.56603e-06
11.5812
-1.55479e-06
11.5807
-1.54527e-06
11.5801
-1.53705e-06
11.5795
-1.53142e-06
11.5789
-1.52818e-06
11.5783
-1.52686e-06
11.5777
-1.52912e-06
11.5771
-1.53297e-06
11.5766
-1.54024e-06
11.5761
-1.54896e-06
11.5758
-1.56037e-06
11.5754
-1.57305e-06
11.5752
-1.58706e-06
11.5751
-1.60176e-06
11.5751
-1.61464e-06
11.5751
-1.62195e-06
11.5752
-1.64922e-06
11.5754
-1.65938e-06
11.5757
-1.67039e-06
11.576
-1.68063e-06
11.5763
-1.6885e-06
11.5767
-1.69391e-06
11.5771
-1.69757e-06
11.5775
-1.69801e-06
11.5778
-1.69571e-06
11.5781
-1.69178e-06
11.5784
-1.68377e-06
11.5786
-1.67465e-06
11.5787
-1.6621e-06
11.5787
-1.64727e-06
11.5786
-1.63259e-06
11.5784
-1.61985e-06
11.5781
-1.60357e-06
11.5777
-1.57434e-06
11.5771
-1.55221e-06
11.5765
-1.53844e-06
11.5757
-1.52003e-06
11.5748
-1.50589e-06
11.5739
-1.4919e-06
11.5729
-1.48268e-06
11.5719
-1.47767e-06
11.5708
-1.47532e-06
11.5698
-1.47772e-06
11.5689
-1.48578e-06
11.568
-1.49456e-06
11.5672
-1.50921e-06
11.5665
-1.52475e-06
11.5659
-1.54339e-06
11.5655
-1.56182e-06
11.5651
-1.58101e-06
11.5649
-1.59868e-06
11.5647
-1.61172e-06
11.5647
-1.64302e-06
11.5647
-1.62924e-06
11.5648
-1.65041e-06
11.5649
-1.65769e-06
11.565
-1.66159e-06
11.5651
-1.66431e-06
11.5653
-1.66234e-06
11.5654
-1.65972e-06
11.5654
-1.65024e-06
11.5654
-1.64438e-06
11.5653
-1.63534e-06
11.5651
-1.58714e-06
11.5647
-1.62773e-06
11.5642
-1.56107e-06
11.5635
-1.52522e-06
11.5626
-1.50778e-06
11.5614
-1.46537e-06
11.5601
-1.44131e-06
11.5584
-1.3836e-06
11.5566
-1.37689e-06
11.5545
-1.30521e-06
11.5523
-1.32212e-06
11.5499
-1.22884e-06
11.5473
-1.24737e-06
11.5446
-8.71413e-07
11.5419
7.80519e-07
11.5392
1.32269e-05
11.5364
9.92487e-05
11.5334
0.00069896
11.5277
0.00487088
11.5032
0.0336918
11.3529
0.238172
1.1208
10.6752
139.144
-0.000260505
139.143
-0.00021588
139.142
-0.000189278
139.141
-0.000194023
139.139
-0.000195321
139.137
-0.000194726
139.135
-0.000194559
139.133
-0.000194572
139.131
-0.000194579
139.128
-0.000194579
139.125
-0.000194584
139.122
-0.000194591
139.119
-0.000194598
139.115
-0.000194607
139.112
-0.000194616
139.108
-0.000194626
139.105
-0.000194638
139.101
-0.000194652
139.098
-0.00019467
139.094
-0.000194693
139.091
-0.000194719
139.088
-0.000194749
139.086
-0.000194778
139.083
-0.000194852
139.081
-0.000194871
139.079
-0.000194917
139.078
-0.000195101
139.077
-0.000195005
139.077
-0.000195137
139.076
-0.000195228
139.075
-0.000195309
139.075
-0.000195394
139.074
-0.000195483
139.073
-0.000195574
139.072
-0.000195668
139.072
-0.000195763
139.071
-0.000195867
139.07
-0.000195961
139.069
-0.000196077
139.067
-0.000196182
139.066
-0.000196286
139.064
-0.000196388
139.063
-0.000196484
139.061
-0.000196568
139.058
-0.000196632
139.056
-0.000196665
139.053
-0.000196653
139.05
-0.000196578
139.047
-0.000196416
139.044
-0.000196131
139.041
-0.000195739
139.038
-0.000195099
139.035
-0.000194249
139.033
-0.00019311
139.032
-0.000191613
139.03
-0.000189703
139.029
-0.000187313
139.029
-0.000184383
139.028
-0.000180856
139.028
-0.000176685
139.028
-0.000171833
139.029
-0.000166289
139.03
-0.000160051
139.031
-0.00015314
139.032
-0.000145607
139.033
-0.000137513
139.034
-0.000128948
139.035
-0.000120014
139.036
-0.000110829
139.037
-0.000101516
139.037
-9.22058e-05
139.037
-8.30246e-05
139.037
-7.40902e-05
139.036
-6.551e-05
139.035
-5.73476e-05
139.033
-4.97675e-05
139.03
-4.27246e-05
139.027
-3.63063e-05
139.024
-3.05214e-05
139.02
-2.53654e-05
139.016
-2.08321e-05
139.011
-1.68877e-05
139.006
-1.34971e-05
139.002
-1.06153e-05
138.997
-8.19303e-06
138.992
-6.17921e-06
138.988
-4.52279e-06
138.984
-3.17446e-06
138.98
-2.08948e-06
138.977
-1.22117e-06
138.974
-5.36661e-07
138.973
-3.96335e-09
138.971
4.15635e-07
138.971
7.3508e-07
138.971
9.77793e-07
138.972
1.16288e-06
138.973
1.30206e-06
138.975
1.4092e-06
138.977
1.48722e-06
138.98
1.54331e-06
138.983
1.584e-06
138.986
1.61241e-06
138.989
1.63122e-06
138.992
1.64293e-06
138.994
1.64886e-06
138.996
1.65001e-06
138.998
1.64743e-06
138.998
1.64224e-06
138.998
1.63362e-06
138.998
1.62569e-06
138.996
1.61545e-06
138.993
1.6031e-06
138.99
1.59342e-06
138.986
1.5769e-06
138.981
1.56603e-06
138.975
1.55479e-06
138.968
1.54527e-06
138.961
1.53705e-06
138.954
1.53142e-06
138.947
1.52818e-06
138.939
1.52686e-06
138.932
1.52912e-06
138.925
1.53296e-06
138.919
1.54026e-06
138.914
1.54894e-06
138.909
1.5604e-06
138.905
1.573e-06
138.903
1.58713e-06
138.901
1.60156e-06
138.901
1.61372e-06
138.901
1.62703e-06
138.903
1.6467e-06
138.905
1.65789e-06
138.908
1.67058e-06
138.912
1.68014e-06
138.916
1.68899e-06
138.92
1.6936e-06
138.925
1.69781e-06
138.93
1.69772e-06
138.934
1.69604e-06
138.938
1.69135e-06
138.941
1.68485e-06
138.943
1.67388e-06
138.945
1.66198e-06
138.945
1.64754e-06
138.944
1.63405e-06
138.941
1.63134e-06
138.938
1.5662e-06
138.932
1.58461e-06
138.926
1.56997e-06
138.918
1.53431e-06
138.908
1.52213e-06
138.898
1.50324e-06
138.887
1.49282e-06
138.875
1.48218e-06
138.862
1.47791e-06
138.85
1.47497e-06
138.838
1.4796e-06
138.827
1.48354e-06
138.816
1.49607e-06
138.806
1.50798e-06
138.798
1.52616e-06
138.791
1.54267e-06
138.786
1.56191e-06
138.782
1.58035e-06
138.779
1.60109e-06
138.777
1.62111e-06
138.776
1.5688e-06
138.777
1.67314e-06
138.777
1.67002e-06
138.779
1.65693e-06
138.78
1.66287e-06
138.782
1.66276e-06
138.783
1.66426e-06
138.784
1.65527e-06
138.785
1.65654e-06
138.785
1.62801e-06
138.783
1.59315e-06
138.781
1.86881e-06
138.777
1.27311e-06
138.77
1.63361e-06
138.762
1.59663e-06
138.751
1.47728e-06
138.737
1.49752e-06
138.721
1.40385e-06
138.701
1.44232e-06
138.679
1.30644e-06
138.655
1.38827e-06
138.628
1.21223e-06
138.598
1.36664e-06
138.567
1.19953e-06
138.535
1.70778e-06
138.503
3.76429e-06
138.47
2.01631e-05
138.438
0.000135133
138.407
0.000955712
138.376
0.00681682
138.333
0.049033
138.157
0.388894
1.66558
137.588
11.5954
-0.000327745
11.5953
-0.00023512
11.5952
-0.000224596
11.5951
-0.000226728
11.5949
-0.000227103
11.5948
-0.000226913
11.5946
-0.000226852
11.5944
-0.000226854
11.5942
-0.000226853
11.594
-0.00022685
11.5938
-0.000226849
11.5935
-0.000226848
11.5932
-0.000226846
11.5929
-0.000226846
11.5927
-0.000226845
11.5924
-0.000226846
11.5921
-0.000226847
11.5918
-0.000226852
11.5915
-0.000226861
11.5912
-0.000226875
11.591
-0.000226892
11.5907
-0.000226915
11.5905
-0.000226929
11.5903
-0.000227023
11.5901
-0.000227014
11.59
-0.000227047
11.5899
-0.000227301
11.5898
-0.000227105
11.5897
-0.000227287
11.5897
-0.000227371
11.5896
-0.000227453
11.5896
-0.000227539
11.5895
-0.000227629
11.5894
-0.000227722
11.5894
-0.000227818
11.5893
-0.000227917
11.5892
-0.000228019
11.5891
-0.000228123
11.5891
-0.000228241
11.589
-0.000228351
11.5888
-0.000228459
11.5887
-0.000228564
11.5886
-0.000228662
11.5884
-0.000228747
11.5882
-0.000228809
11.588
-0.000228835
11.5877
-0.00022881
11.5875
-0.000228712
11.5872
-0.000228516
11.587
-0.000228174
11.5867
-0.000227731
11.5865
-0.000226949
11.5863
-0.000225983
11.5861
-0.000224659
11.586
-0.000222928
11.5858
-0.00022072
11.5858
-0.000217961
11.5857
-0.000214578
11.5857
-0.000210507
11.5857
-0.000205693
11.5857
-0.00020009
11.5857
-0.000193688
11.5858
-0.000186478
11.5859
-0.000178488
11.586
-0.000169773
11.5861
-0.000160404
11.5862
-0.000150482
11.5863
-0.000140125
11.5863
-0.000129469
11.5864
-0.000118656
11.5864
-0.000107837
11.5864
-9.71591e-05
11.5864
-8.67587e-05
11.5863
-7.67628e-05
11.5862
-6.72453e-05
11.586
-5.83958e-05
11.5858
-5.01703e-05
11.5856
-4.26658e-05
11.5853
-3.58948e-05
11.585
-2.98575e-05
11.5846
-2.45413e-05
11.5842
-1.99129e-05
11.5839
-1.59305e-05
11.5835
-1.25425e-05
11.5831
-9.69216e-06
11.5827
-7.32002e-06
11.5823
-5.36717e-06
11.582
-3.77597e-06
11.5817
-2.49311e-06
11.5814
-1.46757e-06
11.5812
-6.56217e-07
11.581
-2.22608e-08
11.5809
4.72113e-07
11.5809
8.50125e-07
11.5809
1.13572e-06
11.581
1.35481e-06
11.5811
1.51507e-06
11.5812
1.64496e-06
11.5814
1.73404e-06
11.5817
1.79969e-06
11.5819
1.84732e-06
11.5822
1.88041e-06
11.5824
1.90221e-06
11.5826
1.91593e-06
11.5828
1.92268e-06
11.583
1.92415e-06
11.5831
1.92093e-06
11.5832
1.91509e-06
11.5832
1.90452e-06
11.5831
1.89609e-06
11.583
1.88367e-06
11.5828
1.86864e-06
11.5825
1.85845e-06
11.5821
1.83889e-06
11.5817
1.82582e-06
11.5812
1.81282e-06
11.5807
1.80183e-06
11.5801
1.79222e-06
11.5795
1.78561e-06
11.5789
1.78196e-06
11.5783
1.78019e-06
11.5777
1.78305e-06
11.5771
1.78732e-06
11.5766
1.79612e-06
11.5761
1.80587e-06
11.5758
1.81964e-06
11.5754
1.83399e-06
11.5752
1.8507e-06
11.5751
1.86755e-06
11.5751
1.88164e-06
11.5751
1.89562e-06
11.5752
1.92051e-06
11.5754
1.93395e-06
11.5757
1.94782e-06
11.576
1.95943e-06
11.5763
1.96903e-06
11.5767
1.97509e-06
11.5771
1.97951e-06
11.5775
1.97985e-06
11.5778
1.97727e-06
11.5781
1.97259e-06
11.5784
1.96378e-06
11.5786
1.95236e-06
11.5787
1.93797e-06
11.5787
1.9207e-06
11.5786
1.90426e-06
11.5784
1.89268e-06
11.5781
1.85144e-06
11.5777
1.84156e-06
11.5771
1.82014e-06
11.5765
1.79146e-06
11.5757
1.77359e-06
11.5748
1.75465e-06
11.5739
1.73968e-06
11.5729
1.72876e-06
11.5719
1.72299e-06
11.5708
1.71996e-06
11.5698
1.72404e-06
11.5689
1.73135e-06
11.568
1.74316e-06
11.5672
1.75935e-06
11.5665
1.77833e-06
11.5659
1.79929e-06
11.5655
1.82126e-06
11.5651
1.84309e-06
11.5649
1.86538e-06
11.5647
1.8854e-06
11.5647
1.8736e-06
11.5647
1.92564e-06
11.5648
1.93339e-06
11.5649
1.93298e-06
11.565
1.93805e-06
11.5651
1.93982e-06
11.5653
1.93952e-06
11.5654
1.93284e-06
11.5654
1.9274e-06
11.5654
1.90881e-06
11.5653
1.89226e-06
11.5651
1.96551e-06
11.5647
1.75138e-06
11.5642
1.84678e-06
11.5635
1.81256e-06
11.5626
1.74453e-06
11.5614
1.7239e-06
11.5601
1.66109e-06
11.5584
1.64467e-06
11.5566
1.56813e-06
11.5545
1.56788e-06
11.5523
1.48181e-06
11.5499
1.51197e-06
11.5473
1.43743e-06
11.5446
1.59758e-06
11.5419
2.29343e-06
11.5392
7.89366e-06
11.5366
4.71712e-05
11.5346
0.000327846
11.5367
0.00235126
11.5659
0.0175512
11.7628
0.1899
0.71955
12.7068
5.7973
5.797
5.79671
5.79642
5.79611
5.7958
5.79547
5.79514
5.79479
5.79444
5.79407
5.7937
5.79332
5.79294
5.79255
5.79216
5.79176
5.79138
5.79099
5.79061
5.79024
5.78988
5.78952
5.78918
5.78885
5.78853
5.78823
5.78795
5.78768
5.78741
5.78714
5.78687
5.7866
5.78632
5.78605
5.78577
5.78549
5.7852
5.78491
5.78462
5.78432
5.78401
5.78369
5.78336
5.78302
5.78266
5.7823
5.78193
5.78155
5.78117
5.78081
5.78045
5.78011
5.77978
5.77947
5.77918
5.7789
5.77865
5.77841
5.77818
5.77798
5.77779
5.77763
5.77748
5.77734
5.77722
5.77711
5.777
5.7769
5.7768
5.77671
5.7766
5.77649
5.77637
5.77624
5.7761
5.77594
5.77577
5.77559
5.7754
5.77519
5.77498
5.77477
5.77456
5.77435
5.77415
5.77396
5.77378
5.77363
5.7735
5.77339
5.77332
5.77327
5.77325
5.77326
5.77329
5.77335
5.77343
5.77353
5.77364
5.77376
5.77389
5.77402
5.77413
5.77424
5.77432
5.77439
5.77442
5.77443
5.7744
5.77433
5.77423
5.77409
5.77391
5.7737
5.77346
5.77319
5.77291
5.77261
5.7723
5.77199
5.7717
5.77142
5.77116
5.77093
5.77074
5.77059
5.77049
5.77042
5.7704
5.77042
5.77048
5.77058
5.77071
5.77087
5.77105
5.77124
5.77143
5.77163
5.77181
5.77197
5.77211
5.77221
5.77227
5.77228
5.77224
5.77214
5.77198
5.77177
5.77149
5.77116
5.77077
5.77034
5.76987
5.76937
5.76886
5.76835
5.76785
5.76738
5.76694
5.76654
5.7662
5.76591
5.76569
5.76552
5.7654
5.76533
5.76531
5.76532
5.76535
5.76541
5.76547
5.76554
5.76561
5.76566
5.76568
5.76568
5.76562
5.76552
5.76534
5.76508
5.76473
5.76428
5.76371
5.76302
5.76222
5.7613
5.76028
5.75915
5.75793
5.75665
5.75532
5.75396
5.7526
5.75132
5.75035
5.75149
5.76791
5.95674
6.6753
5.07035
0.126479
5.07842
-0.00830959
5.07699
0.00119093
5.0866
-0.0098428
5.1125
-0.0261518
5.16036
-0.0481295
5.21812
-0.0581045
5.23618
-0.018463
5.20081
0.0349873
5.12786
0.0725785
5.07745
0.0500863
5.24645
-0.168376
5.63437
-0.387484
6.1065
-0.472687
6.43422
-0.328979
6.44373
-0.010915
6.30275
0.140306
6.09849
0.20387
5.89867
0.199611
-0.47296
6.37235
10.622
0.179214
10.6432
-0.0299837
10.696
-0.0520927
10.7623
-0.0765357
10.853
-0.117413
10.9921
-0.187753
11.1573
-0.223963
11.2447
-0.106634
11.2271
0.0519026
11.1214
0.177592
11.0023
0.168473
11.2575
-0.422006
11.9253
-1.0547
12.8497
-1.39859
13.648
-1.13048
13.9057
-0.270887
13.835
0.210155
13.5446
0.493883
13.0065
0.737688
-0.811943
13.3468
137.638
0.124738
137.711
-0.107203
137.713
-0.0580537
137.54
0.0921299
137.189
0.229114
136.676
0.322285
136.075
0.373985
135.599
0.364373
135.254
0.394204
135.061
0.364959
134.862
0.362285
134.093
0.341444
132.713
0.32017
131.019
0.293457
129.632
0.256734
129.149
0.212105
129.191
0.163966
129.571
0.108593
130.268
0.0342251
-0.166909
129.614
12.65
0.181262
12.5497
-0.0071318
12.5003
-0.0090471
12.5694
0.0227677
12.7419
0.0561694
12.9806
0.0829937
13.253
0.100699
13.5156
0.102012
13.7988
0.110281
14.0598
0.104112
14.3198
0.102171
14.565
0.0959269
14.797
0.0878244
15.0138
0.0764273
15.2101
0.0601541
15.3825
0.0393414
15.5324
0.0137698
15.6612
-0.020411
15.7737
-0.0785911
-0.256315
15.8628
6.85644
6.84917
6.83997
6.86257
6.91852
7.00124
7.10161
7.20361
7.31366
7.41776
7.51986
7.61567
7.70336
7.77963
7.83963
7.87881
7.89244
7.87188
7.79315
7.53669
7.59654
-1.22059
7.97671
-0.381252
7.99816
-0.0239962
7.92691
0.0702168
7.91837
0.00809392
7.96889
-0.0517043
7.9976
-0.0301151
7.99669
-0.000333767
7.98913
0.00637821
7.98653
0.00136478
7.98914
-0.00385481
7.99038
-0.00248032
7.98899
0.000159558
7.98753
0.000227301
7.98716
-0.000896832
7.98603
-0.000176487
7.9839
0.000804073
7.98111
0.00142026
7.97775
0.00193281
7.97396
0.00230272
7.96986
0.00255753
7.96551
0.00272693
7.961
0.00280944
7.95643
0.00279906
7.95187
0.00269511
7.94742
0.0025077
7.94312
0.00225869
7.93901
0.00197858
7.93509
0.00170146
7.93132
0.00146006
7.92763
0.00128151
7.92396
0.00118448
7.92022
0.00117785
7.91632
0.00126113
7.91219
0.00142583
7.90776
0.00165709
7.903
0.00193544
7.89788
0.00223895
7.8924
0.00254546
7.8866
0.00283451
7.8805
0.00308868
7.87415
0.00329451
7.86762
0.00344292
7.86096
0.00352911
7.85425
0.00355239
7.84753
0.00351565
7.84087
0.0034249
7.83431
0.00328843
7.82788
0.00311646
7.82161
0.00292033
7.81551
0.00271207
7.80958
0.00250362
7.8038
0.00230601
7.79817
0.00212898
7.79264
0.00197957
7.78718
0.00186394
7.78176
0.00178657
7.77633
0.00175097
7.77085
0.00175998
7.76528
0.00181603
7.75955
0.00192148
7.75361
0.00207557
7.74745
0.00226113
7.74109
0.00241707
7.73478
0.0023052
7.72969
0.00101691
7.73021
-0.00460008
7.73969
-0.013655
7.75155
-0.0161392
7.75801
-0.010835
7.75597
-0.00241849
7.7473
0.00416577
7.73682
0.00593301
7.72519
0.00700841
7.71261
0.00786531
7.69888
0.00894552
7.68359
0.0104146
7.66636
0.0122833
7.6468
0.0145245
7.62462
0.0170755
7.59957
0.0198503
7.57155
0.0227622
7.54049
0.0257407
7.50636
0.0287577
7.46905
0.031853
7.42837
0.03515
7.38389
0.0388563
7.33496
0.0432301
7.28066
0.0485377
7.21988
0.0549995
7.15134
0.0627292
7.07375
0.0717027
6.98592
0.0817687
6.88712
0.0923087
6.77757
0.102877
6.65851
0.112557
6.53183
0.120395
6.40028
0.125398
6.26752
0.126761
6.13739
0.124542
6.01339
0.118169
5.89858
0.108666
5.79532
0.0968869
5.7049
0.0839223
5.6275
0.0707945
5.56245
0.0582812
5.50859
0.0470327
5.46445
0.0372643
5.42845
0.0290675
5.39909
0.022371
5.37501
0.017018
5.35508
0.0128146
5.33833
0.00956269
5.32399
0.00707814
5.31146
0.00520018
5.30026
0.00379403
5.29004
0.00274998
5.28051
0.00198074
5.27147
0.00141803
5.26276
0.00100918
5.25428
0.000714046
5.24593
0.000502351
5.23766
0.000351441
5.22943
0.000244517
5.2212
0.000169215
5.21295
0.0001165
5.20467
7.98155e-05
5.19634
5.44387e-05
5.18796
3.6987e-05
5.17952
2.5056e-05
5.17101
1.69466e-05
5.16245
1.14669e-05
5.15381
7.7855e-06
5.14512
5.32647e-06
5.13635
3.69232e-06
5.12752
2.61259e-06
5.11862
1.90212e-06
5.10965
1.43743e-06
5.10062
1.13424e-06
5.09152
9.37149e-07
5.08236
8.08945e-07
5.07314
7.25455e-07
5.06386
6.71138e-07
5.05451
6.35911e-07
5.04511
6.1275e-07
5.03565
5.97716e-07
5.02613
5.87725e-07
5.01656
5.81362e-07
5.00693
5.77164e-07
4.99724
5.75468e-07
4.98749
5.7577e-07
4.97768
5.78491e-07
4.96781
5.82493e-07
4.95787
5.87615e-07
4.94787
5.92654e-07
4.9378
5.9951e-07
4.92766
6.06487e-07
4.91745
6.16661e-07
4.90717
6.26569e-07
4.89681
6.39133e-07
4.88637
6.49336e-07
4.87586
6.61723e-07
4.86526
6.70405e-07
4.85459
6.82534e-07
4.84383
6.89843e-07
4.833
7.00922e-07
4.82208
7.07572e-07
4.81109
7.15014e-07
4.80001
7.19461e-07
4.78886
7.24396e-07
4.77764
7.24951e-07
4.76634
7.28922e-07
4.75497
7.2243e-07
4.74353
7.23827e-07
4.73203
7.09957e-07
4.72046
7.08013e-07
4.70882
6.88118e-07
4.69713
6.8496e-07
4.68538
6.59566e-07
4.67357
6.60541e-07
4.6617
6.24599e-07
4.64977
6.38858e-07
4.63778
5.77542e-07
4.62573
6.30393e-07
4.61361
5.09561e-07
4.60143
6.43999e-07
4.58918
4.1995e-07
4.57687
6.85392e-07
4.56448
3.06278e-07
4.55203
7.06532e-07
4.53951
2.02708e-08
4.52693
-1.83729e-07
4.51429
-4.66749e-06
4.50161
-2.37417e-05
4.48898
-0.000123606
4.47678
-0.000624635
4.46709
-0.00318751
4.47104
-0.0168951
4.58547
-0.127414
-0.475494
5.048
14.6641
-2.53064
15.3484
-1.06796
15.4648
-0.145338
15.3026
0.230339
15.2255
0.0843813
15.2912
-0.11975
15.3531
-0.0947853
15.3591
-0.00880501
15.3415
0.0215489
15.3307
0.00964742
15.3329
-0.00852377
15.336
-0.00805287
15.3341
-0.000413918
15.3312
0.000701089
15.331
-0.003214
15.3306
-0.00242765
15.3289
-8.05104e-05
15.3257
0.001817
15.3213
0.0035308
15.3157
0.00488338
15.3093
0.00591858
15.3021
0.00671556
15.2942
0.00726814
15.2859
0.00755112
15.2773
0.00754709
15.2687
0.00726596
15.2601
0.0067527
15.2517
0.00608194
15.2437
0.00534579
15.2358
0.00463979
15.2283
0.00405016
15.2208
0.00364383
15.2134
0.00346271
15.2059
0.00352302
15.1981
0.00381725
15.1899
0.00431734
15.1812
0.00497843
15.1719
0.00574484
15.1621
0.00655658
15.1516
0.00735536
15.1406
0.00808939
15.1291
0.00871668
15.1171
0.00920705
15.1049
0.00954261
15.0924
0.00971777
15.0797
0.00973807
15.0671
0.00961939
15.0544
0.00938556
15.0419
0.00906749
15.0294
0.00870103
15.017
0.00832563
15.0046
0.00798212
14.9923
0.00771028
14.9799
0.00754761
14.9672
0.00752513
14.9542
0.00767288
14.9407
0.00801775
14.9265
0.00858553
14.9114
0.00940239
14.8952
0.0104956
14.8776
0.0118956
14.8583
0.0136281
14.8371
0.0156748
14.8137
0.0178943
14.7883
0.0196199
14.7629
0.0182317
14.7471
0.00305314
14.7534
-0.0283307
14.7762
-0.0474881
14.8
-0.043337
14.8125
-0.0237069
14.8097
-0.00204417
14.7985
0.00808806
14.781
0.0152954
14.7583
0.0211276
14.7305
0.0271027
14.6973
0.0338483
14.6582
0.0414907
14.6126
0.0500056
14.5602
0.0592354
14.5008
0.0689297
14.4342
0.0788189
14.3607
0.0886697
14.2802
0.0983658
14.1931
0.107985
14.0993
0.117839
13.9984
0.128469
13.8898
0.140531
13.7722
0.154657
13.6444
0.171292
13.5049
0.190536
13.3523
0.212079
13.1861
0.234988
13.0074
0.258158
12.8178
0.279842
12.62
0.29807
12.4175
0.310785
12.2148
0.316248
12.0168
0.313545
11.8277
0.302007
11.6513
0.282431
11.4907
0.256628
11.348
0.226784
11.2236
0.195234
11.117
0.164056
11.0268
0.134945
10.9513
0.108936
10.8884
0.0864888
10.8359
0.0676851
10.792
0.0523099
10.755
0.0399856
10.7233
0.0302687
10.6958
0.0227134
10.6714
0.0169083
10.6495
0.0124937
10.6293
0.00916741
10.6104
0.00668186
10.5924
0.00483886
10.5751
0.00348219
10.5583
0.00249043
10.5417
0.00177029
10.5252
0.00125081
10.5089
0.000878481
10.4925
0.000613323
10.4761
0.000425682
10.4597
0.00029373
10.4432
0.000201521
10.4265
0.000137487
10.4098
9.32961e-05
10.3929
6.29896e-05
10.3759
4.23333e-05
10.3588
2.83423e-05
10.3415
1.8924e-05
10.3241
1.2624e-05
10.3066
8.4336e-06
10.2889
5.66451e-06
10.2711
3.84375e-06
10.2532
2.65481e-06
10.2352
1.88131e-06
10.217
1.38119e-06
10.1986
1.05881e-06
10.1802
8.51629e-07
10.1616
7.19035e-07
10.1429
6.34862e-07
10.1241
5.80834e-07
10.1052
5.46997e-07
10.0862
5.25163e-07
10.067
5.11875e-07
10.0478
5.03135e-07
10.0284
4.98988e-07
10.0089
4.97124e-07
9.98928
4.98599e-07
9.96954
5.01287e-07
9.94967
5.05717e-07
9.92967
5.08831e-07
9.90954
5.15881e-07
9.88926
5.20326e-07
9.86884
5.30808e-07
9.84828
5.37309e-07
9.82756
5.50037e-07
9.80669
5.5652e-07
9.78566
5.70047e-07
9.76447
5.73929e-07
9.74312
5.88779e-07
9.72161
5.90138e-07
9.69994
6.03942e-07
9.67811
6.06509e-07
9.65612
6.14738e-07
9.63398
6.17194e-07
9.61168
6.23764e-07
9.58923
6.19948e-07
9.56663
6.30267e-07
9.54389
6.14932e-07
9.52102
6.28683e-07
9.49801
6.02722e-07
9.47487
6.16375e-07
9.45161
5.82593e-07
9.42823
5.9796e-07
9.40472
5.55188e-07
9.3811
5.82619e-07
9.35737
5.15496e-07
9.33351
5.80335e-07
9.30953
4.4549e-07
9.28543
6.22325e-07
9.2612
3.12933e-07
9.23683
7.27664e-07
9.21234
1.20615e-07
9.1877
8.89903e-07
9.16294
-1.15383e-07
9.13803
9.55207e-07
9.113
-8.53004e-07
9.08783
-1.61906e-06
9.06256
-1.4539e-05
9.0372
-7.05409e-05
9.01192
-0.000362803
8.98747
-0.00182739
8.96778
-0.00924934
8.97215
-0.0471467
9.08164
-0.262879
-1.03849
9.61865
126.979
0.0650064
125.904
-0.0224542
125.72
0.012785
125.881
0.0410865
125.897
0.0368093
125.729
0.0181077
125.6
0.0046598
125.561
8.7997e-05
125.552
0.000609316
125.531
0.0013209
125.492
0.000890982
125.455
0.000224173
125.425
6.81768e-05
125.396
0.000151282
125.363
-0.000241252
125.33
-0.00111536
125.301
-0.00188495
125.272
-0.00232608
125.244
-0.00261485
125.216
-0.00284308
125.188
-0.00304174
125.159
-0.00320868
125.129
-0.00334039
125.097
-0.00344835
125.064
-0.00355539
125.028
-0.0036861
124.99
-0.00385893
124.949
-0.00408237
124.906
-0.00435497
124.86
-0.00466657
124.812
-0.005001
124.761
-0.00533922
124.709
-0.00566214
124.656
-0.00595306
124.601
-0.00619921
124.546
-0.00639236
124.489
-0.00652885
124.433
-0.00660916
124.376
-0.00663701
124.318
-0.00661826
124.26
-0.00655981
124.202
-0.00646842
124.143
-0.00635011
124.084
-0.00620982
124.023
-0.00605123
123.962
-0.00587675
123.9
-0.00568775
123.836
-0.00548472
123.771
-0.00526719
123.704
-0.00503421
123.636
-0.00478434
123.566
-0.00451681
123.495
-0.00424562
123.422
-0.00397832
123.348
-0.00373667
123.273
-0.00350003
123.197
-0.00326266
123.12
-0.00301076
123.043
-0.00273441
122.965
-0.00241757
122.887
-0.00201392
122.809
-0.00157718
122.731
-0.00110023
122.654
-0.000528522
122.577
-3.14768e-05
122.497
0.000238418
122.401
-0.000703928
122.278
-0.00526427
122.141
-0.0120948
122.013
-0.0182149
121.91
-0.0223788
121.834
-0.0249702
121.768
-0.0281686
121.711
-0.0328781
121.664
-0.0397167
121.629
-0.0490429
121.61
-0.061156
121.611
-0.0763809
121.637
-0.0950098
121.692
-0.11722
121.78
-0.142941
121.905
-0.171721
122.068
-0.202601
122.271
-0.234062
122.512
-0.264109
122.787
-0.290485
123.093
-0.310912
123.422
-0.323954
123.768
-0.329017
124.128
-0.326546
124.497
-0.317835
124.873
-0.304482
125.254
-0.288048
125.638
-0.269169
126.022
-0.248532
126.401
-0.226616
126.768
-0.203406
127.115
-0.179636
127.435
-0.156063
127.718
-0.133369
127.959
-0.112189
128.154
-0.0931058
128.301
-0.0764173
128.401
-0.0621983
128.456
-0.0502615
128.47
-0.0403592
128.449
-0.0322094
128.397
-0.0255463
128.319
-0.0201291
128.22
-0.0157495
128.103
-0.0122317
127.972
-0.00942667
127.83
-0.00720757
127.678
-0.00546671
127.519
-0.00411289
127.354
-0.00306937