/*--------------------------------*- C++ -*----------------------------------*\
| =========                 |                                                 |
| \\      /  F ield         | OpenFOAM: The Open Source CFD Toolbox           |
|  \\    /   O peration     | Version:  3.0.x                                 |
|   \\  /    A nd           | Web:      www.OpenFOAM.org                      |
|    \\/     M anipulation  |                                                 |
\*---------------------------------------------------------------------------*/
FoamFile
{
    version     2.0;
    format      ascii;
    class       surfaceScalarField;
    location    "0.52";
    object      phi;
}
// * * * * * * * * * * * * * * * * * * * * * * * * * * * * * * * * * * * * * //

dimensions      [1 0 -1 0 0 0 0];

internalField   nonuniform List<scalar> 
12415
(
5.82626
0.000328564
5.81164
0.000236297
5.79698
0.00022743
5.78228
0.000229346
5.76753
0.000229957
5.75274
0.000229973
5.73793
0.000230103
5.72309
0.000230226
5.70821
0.000230268
5.6933
0.000230342
5.67837
0.000230395
5.66341
0.000230444
5.64841
0.000230493
5.63339
0.000230542
5.61833
0.000230594
5.60324
0.000230649
5.58812
0.000230707
5.57296
0.000230768
5.55776
0.000230833
5.54253
0.0002309
5.52726
0.00023097
5.51195
0.000231044
5.49661
0.00023112
5.48123
0.000231199
5.46582
0.00023128
5.45038
0.000231366
5.4349
0.000231452
5.41939
0.000231543
5.40385
0.000231637
5.38828
0.000231733
5.37269
0.000231832
5.35706
0.000231937
5.3414
0.000232041
5.32572
0.000232154
5.31001
0.000232268
5.29427
0.000232389
5.2785
0.000232517
5.2627
0.00023265
5.24686
0.000232796
5.23099
0.000232944
5.21508
0.000233095
5.19914
0.000233252
5.18315
0.000233416
5.16713
0.000233591
5.15107
0.000233785
5.13496
0.000233997
5.11879
0.000234226
5.10257
0.000234461
5.08629
0.0002347
5.06994
0.000234936
5.05352
0.000235171
5.03704
0.000235415
5.02049
0.00023566
5.00387
0.000235921
4.98718
0.000236186
4.97042
0.000236453
4.95358
0.000236718
4.93668
0.000236984
4.9197
0.000237248
4.90265
0.000237509
4.88553
0.00023776
4.86833
0.000237985
4.85106
0.000238158
4.83371
0.000238251
4.81629
0.000238239
4.7988
0.000238098
4.78124
0.000237803
4.76363
0.000237324
4.74595
0.000236627
4.72822
0.000235668
4.71044
0.000234395
4.69261
0.00023275
4.67473
0.000230673
4.65679
0.0002281
4.63881
0.000224975
4.62078
0.000221245
4.6027
0.000216868
4.58457
0.000211812
4.5664
0.00020606
4.54817
0.000199608
4.5299
0.000192471
4.51158
0.00018468
4.49321
0.000176285
4.47479
0.000167352
4.45632
0.000157962
4.43779
0.000148208
4.41921
0.000138196
4.40057
0.000128036
4.38187
0.000117844
4.3631
0.000107734
4.34428
9.78185e-05
4.32539
8.81993e-05
4.30643
7.89694e-05
4.28739
7.02086e-05
4.26829
6.19817e-05
4.24911
5.43374e-05
4.22985
4.73082e-05
4.21052
4.09107e-05
4.1911
3.51474e-05
4.1716
3.00078e-05
4.15201
2.54704e-05
4.13235
2.1504e-05
4.11259
1.807e-05
4.09275
1.51251e-05
4.07283
1.26238e-05
4.05282
1.05189e-05
4.03273
8.76399e-06
4.01255
7.31345e-06
3.9923
6.12479e-06
3.97197
5.15816e-06
3.95156
4.37795e-06
3.93108
3.75213e-06
3.91054
3.25352e-06
3.88993
2.85802e-06
3.86925
2.54529e-06
3.84852
2.29721e-06
3.82773
2.09932e-06
3.80689
1.94016e-06
3.786
1.81058e-06
3.76507
1.70354e-06
3.74409
1.61273e-06
3.72307
1.53361e-06
3.70201
1.46289e-06
3.68092
1.39844e-06
3.65979
1.33926e-06
3.63862
1.28342e-06
3.61742
1.22958e-06
3.59619
1.17647e-06
3.57492
1.12353e-06
3.55362
1.07138e-06
3.53229
1.01996e-06
3.51093
9.69048e-07
3.48954
9.18377e-07
3.46812
8.67181e-07
3.44667
8.15386e-07
3.4252
7.62857e-07
3.40369
7.10035e-07
3.38216
6.57352e-07
3.3606
6.04805e-07
3.33902
5.522e-07
3.31742
4.98683e-07
3.29579
4.43823e-07
3.27415
3.88038e-07
3.25248
3.31167e-07
3.2308
2.72801e-07
3.2091
2.13315e-07
3.18739
1.52897e-07
3.16566
9.18571e-08
3.14391
3.06918e-08
3.12215
-3.08755e-08
3.10038
-9.39945e-08
3.07859
-1.56919e-07
3.0568
-2.21347e-07
3.03499
-2.87288e-07
3.01316
-3.53739e-07
2.99133
-4.21194e-07
2.96949
-4.88631e-07
2.94763
-5.56669e-07
2.92577
-6.25585e-07
2.9039
-6.97313e-07
2.88203
-7.69642e-07
2.86015
-8.43364e-07
2.83827
-9.16412e-07
2.81639
-9.91444e-07
2.79452
-1.06669e-06
2.77265
-1.14441e-06
2.75079
-1.22299e-06
2.72895
-1.3043e-06
2.70712
-1.38506e-06
2.68531
-1.47074e-06
2.66353
-1.5516e-06
2.64178
-1.64159e-06
2.62005
-1.7216e-06
2.59836
-1.81853e-06
2.57671
-1.89692e-06
2.55509
-2.00481e-06
2.53353
-2.07351e-06
2.51201
-2.20102e-06
2.49054
-2.23838e-06
2.46912
-2.42177e-06
2.44776
-2.37297e-06
2.42647
-2.70282e-06
2.40523
-2.44359e-06
2.38406
-3.06603e-06
2.36296
-2.43212e-06
2.34192
-3.52952e-06
2.32095
-2.29746e-06
2.30006
-4.21844e-06
2.27924
-1.81929e-06
2.2585
-5.29125e-06
2.23782
-1.09893e-06
2.21723
-6.12559e-06
2.19671
-7.80119e-07
2.17627
-3.24133e-06
2.15589
1.5024e-05
2.1355
0.000105652
2.11459
0.000709672
2.08989
0.00457107
2.03068
0.0391714
0.136693
1.87405
11.6533
0.000261058
11.6246
0.000215851
11.5957
0.000192606
11.5668
0.000196507
11.5378
0.000197704
11.5087
0.000197336
11.4796
0.00019734
11.4504
0.000197452
11.4211
0.000197507
11.3918
0.000197568
11.3624
0.000197622
11.333
0.000197672
11.3035
0.000197723
11.274
0.000197776
11.2443
0.000197831
11.2147
0.000197888
11.1849
0.000197948
11.1551
0.000198012
11.1252
0.000198078
11.0952
0.000198147
11.0651
0.000198219
11.035
0.000198293
11.0048
0.000198369
10.9746
0.000198449
10.9443
0.00019853
10.9139
0.000198615
10.8834
0.000198701
10.8529
0.00019879
10.8223
0.000198882
10.7917
0.000198976
10.761
0.000199073
10.7302
0.000199174
10.6994
0.000199275
10.6685
0.000199383
10.6376
0.000199493
10.6066
0.000199609
10.5756
0.00019973
10.5444
0.000199856
10.5133
0.000199992
10.482
0.000200132
10.4507
0.000200273
10.4193
0.00020042
10.3879
0.000200573
10.3563
0.000200737
10.3247
0.000200916
10.293
0.000201109
10.2611
0.000201316
10.2292
0.000201529
10.1971
0.000201745
10.1649
0.000201961
10.1326
0.000202177
10.1001
0.000202399
10.0675
0.000202624
10.0348
0.00020286
10.0019
0.000203099
9.96891
0.00020334
9.93575
0.000203579
9.90245
0.00020382
9.869
0.000204059
9.83541
0.000204294
9.80167
0.00020452
9.76779
0.000204721
9.73375
0.000204877
9.69956
0.000204963
9.66523
0.000204957
9.63076
0.000204838
9.59616
0.000204584
9.56143
0.000204167
9.52659
0.000203558
9.49163
0.000202718
9.45657
0.000201601
9.4214
0.000200159
9.38613
0.000198337
9.35075
0.000196082
9.31527
0.000193346
9.27968
0.000190082
9.24398
0.000186255
9.20818
0.000181839
9.17227
0.00017682
9.13625
0.000171196
9.10012
0.000164983
9.06388
0.000158208
9.02751
0.000150916
8.99103
0.000143167
8.95442
0.000135031
8.91768
0.000126592
8.88081
0.00011794
8.84381
0.000109173
8.80666
0.000100391
8.76937
9.16927e-05
8.73193
8.31729e-05
8.69433
7.492e-05
8.65658
6.70127e-05
8.61867
5.95181e-05
8.58059
5.24906e-05
8.54235
4.59704e-05
8.50393
3.99835e-05
8.46535
3.45429e-05
8.42659
2.96487e-05
8.38765
2.52906e-05
8.34854
2.14489e-05
8.30925
1.80955e-05
8.26978
1.51967e-05
8.23013
1.27146e-05
8.19031
1.06095e-05
8.15032
8.84069e-06
8.11015
7.36816e-06
8.06982
6.15282e-06
8.02933
5.15822e-06
7.98867
4.35033e-06
7.94787
3.69883e-06
7.90692
3.17653e-06
7.86584
2.76045e-06
7.82462
2.43025e-06
7.78328
2.1689e-06
7.74182
1.96124e-06
7.70025
1.79527e-06
7.65857
1.66137e-06
7.6168
1.55213e-06
7.57493
1.46152e-06
7.53298
1.38453e-06
7.49094
1.31721e-06
7.44883
1.25695e-06
7.40664
1.20195e-06
7.36438
1.15133e-06
7.32205
1.10354e-06
7.27965
1.05742e-06
7.23718
1.0119e-06
7.19465
9.66592e-07
7.15206
9.21839e-07
7.1094
8.7783e-07
7.06669
8.34111e-07
7.02391
7.90705e-07
6.98107
7.46767e-07
6.93817
7.02376e-07
6.89522
6.57349e-07
6.85221
6.12031e-07
6.80915
5.66896e-07
6.76603
5.21817e-07
6.72287
4.76657e-07
6.67967
4.30863e-07
6.63642
3.8367e-07
6.59313
3.36033e-07
6.5498
2.87019e-07
6.50644
2.37098e-07
6.46304
1.86095e-07
6.41961
1.3419e-07
6.37614
8.16713e-08
6.33265
2.98164e-08
6.28914
-2.25004e-08
6.24559
-7.82493e-08
6.20202
-1.31608e-07
6.15842
-1.86429e-07
6.1148
-2.43228e-07
6.07116
-2.99961e-07
6.02749
-3.58015e-07
5.9838
-4.1555e-07
5.94009
-4.74366e-07
5.89637
-5.32734e-07
5.85263
-5.94867e-07
5.80888
-6.56067e-07
5.76512
-7.20775e-07
5.72136
-7.82114e-07
5.6776
-8.47094e-07
5.63385
-9.10443e-07
5.59011
-9.78638e-07
5.54639
-1.04484e-06
5.5027
-1.11604e-06
5.45904
-1.18188e-06
5.41542
-1.26136e-06
5.37185
-1.32276e-06
5.32834
-1.41025e-06
5.28488
-1.46419e-06
5.2415
-1.56703e-06
5.19819
-1.60822e-06
5.15496
-1.73731e-06
5.11182
-1.74294e-06
5.06877
-1.93191e-06
5.02583
-1.83928e-06
4.983
-2.19725e-06
4.94027
-1.83143e-06
4.89767
-2.62984e-06
4.85519
-1.61696e-06
4.81285
-3.29805e-06
4.77063
-1.15074e-06
4.72856
-4.26107e-06
4.68662
-3.0058e-07
4.64483
-5.90651e-06
4.60317
1.60487e-06
4.56168
-8.72305e-06
4.52033
4.25709e-06
4.47914
-1.08614e-05
4.43809
5.77542e-06
4.3972
-2.20771e-06
4.35643
5.45524e-05
4.31564
0.000320403
4.27381
0.00213717
4.22463
0.0135007
4.13108
0.0926509
0.315025
3.91282
139.839
-0.000261058
139.495
-0.000215851
139.149
-0.000192606
138.802
-0.000196507
138.453
-0.000197704
138.104
-0.000197336
137.755
-0.00019734
137.405
-0.000197452
137.053
-0.000197507
136.702
-0.000197568
136.349
-0.000197622
135.996
-0.000197672
135.642
-0.000197723
135.287
-0.000197776
134.932
-0.000197831
134.576
-0.000197888
134.219
-0.000197948
133.861
-0.000198012
133.502
-0.000198078
133.142
-0.000198147
132.782
-0.000198219
132.42
-0.000198293
132.058
-0.000198369
131.695
-0.000198449
131.331
-0.00019853
130.966
-0.000198615
130.601
-0.000198701
130.234
-0.00019879
129.867
-0.000198882
129.5
-0.000198976
129.131
-0.000199073
128.762
-0.000199174
128.393
-0.000199275
128.022
-0.000199383
127.651
-0.000199493
127.279
-0.000199609
126.907
-0.00019973
126.533
-0.000199856
126.159
-0.000199992
125.784
-0.000200132
125.409
-0.000200273
125.032
-0.00020042
124.654
-0.000200573
124.276
-0.000200737
123.896
-0.000200916
123.516
-0.000201109
123.134
-0.000201316
122.75
-0.000201529
122.366
-0.000201745
121.979
-0.000201961
121.591
-0.000202177
121.202
-0.000202399
120.811
-0.000202624
120.418
-0.00020286
120.023
-0.000203099
119.627
-0.00020334
119.229
-0.000203579
118.829
-0.00020382
118.428
-0.000204059
118.025
-0.000204294
117.62
-0.00020452
117.214
-0.000204721
116.805
-0.000204877
116.395
-0.000204963
115.983
-0.000204957
115.569
-0.000204838
115.154
-0.000204584
114.737
-0.000204167
114.319
-0.000203558
113.9
-0.000202718
113.479
-0.000201601
113.057
-0.000200159
112.634
-0.000198337
112.209
-0.000196082
111.784
-0.000193346
111.356
-0.000190082
110.928
-0.000186255
110.499
-0.000181839
110.068
-0.00017682
109.635
-0.000171196
109.202
-0.000164983
108.767
-0.000158208
108.33
-0.000150916
107.893
-0.000143167
107.453
-0.000135031
107.013
-0.000126592
106.57
-0.00011794
106.126
-0.000109173
105.68
-0.000100391
105.233
-9.16927e-05
104.783
-8.31729e-05
104.332
-7.492e-05
103.879
-6.70127e-05
103.424
-5.95181e-05
102.967
-5.24906e-05
102.508
-4.59704e-05
102.047
-3.99835e-05
101.584
-3.45429e-05
101.119
-2.96487e-05
100.652
-2.52906e-05
100.183
-2.14489e-05
99.7112
-1.80956e-05
99.2376
-1.51967e-05
98.7618
-1.27146e-05
98.2839
-1.06094e-05
97.804
-8.8407e-06
97.322
-7.36814e-06
96.838
-6.15284e-06
96.3521
-5.15818e-06
95.8643
-4.35037e-06
95.3746
-3.69878e-06
94.8832
-3.17659e-06
94.3902
-2.76039e-06
93.8956
-2.43032e-06
93.3995
-2.16884e-06
92.902
-1.9613e-06
92.4031
-1.7952e-06
91.903
-1.66144e-06
91.4017
-1.55206e-06
90.8993
-1.46158e-06
90.3959
-1.38447e-06
89.8915
-1.31726e-06
89.3861
-1.2569e-06
88.8799
-1.20201e-06
88.3727
-1.15127e-06
87.8648
-1.10358e-06
87.356
-1.05742e-06
86.8464
-1.01191e-06
86.336
-9.66528e-07
85.8249
-9.22012e-07
85.313
-8.77559e-07
84.8004
-8.3441e-07
84.287
-7.90417e-07
83.773
-7.47003e-07
83.2582
-7.02229e-07
82.7428
-6.57388e-07
82.2267
-6.12043e-07
81.7099
-5.66892e-07
81.1926
-5.21819e-07
80.6747
-4.76743e-07
80.1562
-4.30474e-07
79.6372
-3.84357e-07
79.1177
-3.35417e-07
78.5978
-2.87284e-07
78.0774
-2.37123e-07
77.5566
-1.86039e-07
77.0354
-1.34043e-07
76.5139
-8.20883e-08
75.992
-2.92216e-08
75.4698
2.20462e-08
74.9473
7.84116e-08
74.4244
1.31151e-07
73.9013
1.87194e-07
73.3778
2.42719e-07
72.8541
3.00456e-07
72.3301
3.57334e-07
71.8058
4.16477e-07
71.2813
4.72214e-07
70.7566
5.35357e-07
70.2317
5.93115e-07
69.7067
6.60175e-07
69.1816
7.1371e-07
68.6564
7.86031e-07
68.1313
8.44153e-07
67.6063
9.17661e-07
67.0815
9.71589e-07
66.5569
1.05057e-06
66.0326
1.10722e-06
65.5087
1.19586e-06
64.9853
1.24318e-06
64.4624
1.34424e-06
63.9402
1.37965e-06
63.4188
1.50741e-06
62.8982
1.51245e-06
62.3784
1.68295e-06
61.8597
1.62924e-06
61.342
1.89823e-06
60.8255
1.69679e-06
60.3102
2.21501e-06
59.7961
1.59229e-06
59.2835
2.78007e-06
58.7723
1.15141e-06
58.2625
3.79591e-06
57.7544
2.11047e-07
57.2478
5.39245e-06
56.7429
-1.24812e-06
56.2396
7.19206e-06
55.7381
-2.49803e-06
55.2383
8.48652e-06
54.7403
-3.25579e-06
54.2441
9.87064e-06
53.7498
-5.00778e-06
53.2572
1.48393e-05
52.7666
-1.80294e-06
52.2778
6.83907e-05
51.7909
0.000307191
51.3062
0.00203954
50.8241
0.0126831
50.3387
0.0970836
0.279832
49.8948
11.6533
-0.000328564
11.6246
-0.000236297
11.5957
-0.00022743
11.5668
-0.000229346
11.5378
-0.000229957
11.5087
-0.000229973
11.4796
-0.000230103
11.4504
-0.000230226
11.4211
-0.000230268
11.3918
-0.000230342
11.3624
-0.000230395
11.333
-0.000230444
11.3035
-0.000230493
11.274
-0.000230542
11.2443
-0.000230594
11.2147
-0.000230649
11.1849
-0.000230707
11.1551
-0.000230768
11.1252
-0.000230833
11.0952
-0.0002309
11.0651
-0.00023097
11.035
-0.000231044
11.0048
-0.00023112
10.9746
-0.000231199
10.9443
-0.00023128
10.9139
-0.000231366
10.8834
-0.000231452
10.8529
-0.000231543
10.8223
-0.000231637
10.7917
-0.000231733
10.761
-0.000231832
10.7302
-0.000231937
10.6994
-0.000232041
10.6685
-0.000232154
10.6376
-0.000232268
10.6066
-0.000232389
10.5756
-0.000232517
10.5444
-0.00023265
10.5133
-0.000232796
10.482
-0.000232944
10.4507
-0.000233095
10.4193
-0.000233252
10.3879
-0.000233416
10.3563
-0.000233591
10.3247
-0.000233785
10.293
-0.000233997
10.2611
-0.000234226
10.2292
-0.000234461
10.1971
-0.0002347
10.1649
-0.000234936
10.1326
-0.000235171
10.1001
-0.000235415
10.0675
-0.00023566
10.0348
-0.000235921
10.0019
-0.000236186
9.96891
-0.000236453
9.93575
-0.000236718
9.90245
-0.000236984
9.869
-0.000237248
9.83541
-0.000237509
9.80167
-0.00023776
9.76779
-0.000237985
9.73375
-0.000238158
9.69956
-0.000238251
9.66523
-0.000238239
9.63076
-0.000238098
9.59616
-0.000237803
9.56143
-0.000237324
9.52659
-0.000236627
9.49163
-0.000235668
9.45657
-0.000234395
9.4214
-0.00023275
9.38613
-0.000230673
9.35075
-0.0002281
9.31527
-0.000224975
9.27968
-0.000221245
9.24398
-0.000216868
9.20818
-0.000211812
9.17227
-0.00020606
9.13625
-0.000199608
9.10012
-0.000192471
9.06388
-0.00018468
9.02751
-0.000176285
8.99103
-0.000167352
8.95442
-0.000157962
8.91768
-0.000148208
8.88081
-0.000138196
8.84381
-0.000128036
8.80666
-0.000117844
8.76937
-0.000107734
8.73193
-9.78185e-05
8.69433
-8.81993e-05
8.65658
-7.89694e-05
8.61867
-7.02086e-05
8.58059
-6.19817e-05
8.54235
-5.43374e-05
8.50393
-4.73082e-05
8.46535
-4.09107e-05
8.42659
-3.51474e-05
8.38765
-3.00078e-05
8.34854
-2.54704e-05
8.30925
-2.1504e-05
8.26978
-1.807e-05
8.23013
-1.51251e-05
8.19031
-1.26238e-05
8.15032
-1.05189e-05
8.11015
-8.76397e-06
8.06982
-7.31347e-06
8.02933
-6.12476e-06
7.98867
-5.1582e-06
7.94787
-4.37791e-06
7.90692
-3.75217e-06
7.86584
-3.25347e-06
7.82462
-2.85806e-06
7.78328
-2.54526e-06
7.74182
-2.29723e-06
7.70025
-2.09932e-06
7.65857
-1.94015e-06
7.6168
-1.8106e-06
7.57493
-1.70351e-06
7.53298
-1.61275e-06
7.49094
-1.53362e-06
7.44883
-1.46283e-06
7.40664
-1.39853e-06
7.36438
-1.33917e-06
7.32205
-1.28347e-06
7.27965
-1.22959e-06
7.23718
-1.17642e-06
7.19465
-1.12356e-06
7.15206
-1.07143e-06
7.1094
-1.01984e-06
7.06669
-9.69181e-07
7.02391
-9.18257e-07
6.98107
-8.67278e-07
6.93817
-8.15326e-07
6.89522
-7.62871e-07
6.85221
-7.10035e-07
6.80915
-6.57359e-07
6.76603
-6.04832e-07
6.72287
-5.52182e-07
6.67967
-4.98532e-07
6.63642
-4.44106e-07
6.59313
-3.8791e-07
6.5498
-3.31082e-07
6.50644
-2.72814e-07
6.46304
-2.13407e-07
6.41961
-1.52899e-07
6.37614
-9.18844e-08
6.33265
-3.03862e-08
6.28914
3.065e-08
6.24559
9.38999e-08
6.20202
1.56788e-07
6.15842
2.21718e-07
6.1148
2.87124e-07
6.07116
3.53932e-07
6.02749
4.209e-07
5.9838
4.88773e-07
5.94009
5.56101e-07
5.89637
6.26744e-07
5.85263
6.96768e-07
5.80888
7.70651e-07
5.76512
8.40753e-07
5.72136
9.17771e-07
5.6776
9.90753e-07
5.63385
1.06929e-06
5.59011
1.142e-06
5.54639
1.22469e-06
5.5027
1.30136e-06
5.45904
1.38991e-06
5.41542
1.46468e-06
5.37185
1.55872e-06
5.32834
1.6309e-06
5.28488
1.73618e-06
5.2415
1.80025e-06
5.19819
1.92267e-06
5.15496
1.96852e-06
5.11182
2.12562e-06
5.06877
2.12135e-06
5.02583
2.36501e-06
4.983
2.2164e-06
4.94028
2.69719e-06
4.89767
2.19484e-06
4.8552
3.19921e-06
4.81285
1.98843e-06
4.77064
3.92195e-06
4.72855
1.58579e-06
4.68662
4.73371e-06
4.64482
1.25626e-06
4.60318
5.34681e-06
4.56168
1.15524e-06
4.52033
5.9137e-06
4.47913
7.77327e-07
4.4381
7.69348e-06
4.3972
2.10837e-06
4.35651
2.63743e-05
4.31615
0.000109873
4.27705
0.000723422
4.24467
0.00482683
4.24008
0.061569
0.168297
4.31182
5.82626
5.81164
5.79698
5.78228
5.76753
5.75274
5.73793
5.72309
5.70821
5.6933
5.67837
5.66341
5.64841
5.63339
5.61833
5.60324
5.58812
5.57296
5.55776
5.54253
5.52726
5.51195
5.49661
5.48123
5.46582
5.45038
5.4349
5.41939
5.40385
5.38828
5.37269
5.35706
5.3414
5.32572
5.31001
5.29427
5.2785
5.2627
5.24686
5.23099
5.21508
5.19914
5.18315
5.16713
5.15107
5.13496
5.11879
5.10257
5.08629
5.06994
5.05352
5.03704
5.02049
5.00387
4.98718
4.97042
4.95358
4.93668
4.9197
4.90265
4.88553
4.86833
4.85106
4.83371
4.81629
4.7988
4.78124
4.76363
4.74595
4.72822
4.71044
4.69261
4.67473
4.65679
4.63881
4.62078
4.6027
4.58457
4.5664
4.54817
4.5299
4.51158
4.49321
4.47479
4.45632
4.43779
4.41921
4.40057
4.38187
4.3631
4.34428
4.32539
4.30643
4.28739
4.26829
4.24911
4.22985
4.21052
4.1911
4.1716
4.15201
4.13235
4.11259
4.09275
4.07283
4.05282
4.03273
4.01255
3.9923
3.97197
3.95156
3.93108
3.91054
3.88993
3.86925
3.84852
3.82773
3.80689
3.786
3.76507
3.74409
3.72307
3.70201
3.68092
3.65979
3.63862
3.61742
3.59619
3.57492
3.55362
3.53229
3.51093
3.48954
3.46812
3.44667
3.4252
3.40369
3.38216
3.3606
3.33902
3.31742
3.29579
3.27415
3.25248
3.2308
3.2091
3.18739
3.16566
3.14391
3.12215
3.10038
3.07859
3.0568
3.03499
3.01316
2.99133
2.96949
2.94763
2.92577
2.9039
2.88203
2.86015
2.83827
2.81639
2.79452
2.77265
2.75079
2.72895
2.70712
2.68531
2.66353
2.64178
2.62005
2.59836
2.57671
2.55509
2.53353
2.51201
2.49054
2.46912
2.44777
2.42647
2.40523
2.38406
2.36296
2.34192
2.32096
2.30006
2.27924
2.25849
2.23783
2.21723
2.19672
2.17627
2.15594
2.13576
2.11628
2.10099
2.14249
2.2909
1.829
0.0400327
1.83431
-0.0103
1.83948
-0.0101608
1.85989
-0.0254034
1.89984
-0.0449402
1.93829
-0.043436
1.93013
0.00316134
1.88956
0.035575
1.8224
0.0621772
1.77411
0.0433403
1.86517
-0.0959164
2.13555
-0.275237
2.48601
-0.355395
2.73863
-0.257715
2.7491
-0.0156146
2.62061
0.123461
2.4342
0.181394
2.20707
0.222088
1.98597
0.21616
-0.188202
2.16945
3.8995
0.0435828
3.90951
-0.0300712
3.94372
-0.0541044
4.00258
-0.0940033
4.10342
-0.155516
4.20718
-0.156941
4.21595
-0.0153481
4.16423
0.0775573
4.04955
0.167134
3.91561
0.16762
3.99639
-0.186167
4.38245
-0.670787
4.99562
-0.978245
5.61066
-0.882761
5.83023
-0.245256
5.77987
0.164057
5.54514
0.406403
5.1342
0.623246
4.54992
0.790807
-0.141576
4.49401
49.8213
0.0257704
49.7113
-0.0111204
49.5314
0.0348669
49.2688
0.0777676
48.9118
0.110642
48.5291
0.134907
48.2729
0.150057
48.1015
0.157949
48.0162
0.161329
47.9299
0.162732
47.4876
0.16483
46.5582
0.167149
45.3238
0.164922
44.196
0.154147
43.7209
0.138708
43.6658
0.127411
43.8593
0.121149
44.2742
0.116472
44.8605
0.11231
0.0791498
44.5461
4.27186
0.0604814
4.25146
0.00395446
4.26666
0.0142942
4.31364
0.0253935
4.38599
0.0328962
4.47606
0.0394383
4.57622
0.0444928
4.68121
0.0475428
4.78793
0.0492023
4.89478
0.0504611
5.00219
0.0519918
5.11057
0.0533421
5.21744
0.0526192
5.31767
0.0484768
5.40856
0.0423903
5.49357
0.036979
5.5765
0.0328069
5.66031
0.0272905
5.75622
0.0110298
-0.0478576
5.87817
2.34887
2.35028
2.362
2.38482
2.41513
2.45199
2.49389
2.53885
2.58545
2.63332
2.68271
2.73345
2.78346
2.82933
2.86911
2.90349
2.93369
2.9584
2.96686
2.91654
3.29225
-1.13782
3.67044
-0.394134
3.61598
0.0385444
3.51897
0.0815136
3.683
-0.17935
3.88352
-0.21624
3.89915
-0.0312437
3.85886
0.0249587
3.97178
-0.128113
4.07809
-0.121744
4.05709
0.00567412
3.9949
0.0471054
4.05848
-0.0784025
4.19362
-0.150254
4.21096
-0.0325251
4.15611
0.0399208
4.07085
0.0705608
4.0757
-0.0192159
4.21054
-0.1495
4.26767
-0.0720403
4.23053
0.0224367
4.17437
0.0417349
4.11869
0.0413339
4.13586
-0.0313541
4.16977
-0.0482223
4.15968
-0.0041847
4.12968
0.0159074
4.10111
0.0145828
4.07575
0.0114384
4.05403
0.00787948
4.03472
0.00553788
4.01649
0.00453574
3.99809
0.00478489
3.9779
0.00665788
3.95323
0.0112101
3.92108
0.0187681
3.9037
0.00405048
3.93807
-0.047643
3.9461
-0.0213197
3.92708
0.00588445
3.90552
0.00854776
3.88473
0.00785191
3.86572
0.00615404
3.8483
0.00464371
3.83188
0.00371444
3.81607
0.00317397
3.80066
0.0028535
3.78552
0.00265934
3.77058
0.00253478
3.75582
0.00242999
3.74126
0.00231225
3.72687
0.00220136
3.71265
0.00212039
3.69854
0.00207314
3.68452
0.00205778
3.67056
0.00207132
3.65664
0.00211094
3.64273
0.00217353
3.62881
0.00225527
3.61487
0.00235148
3.6009
0.00245623
3.58691
0.00256289
3.57288
0.00266478
3.55885
0.00275551
3.54482
0.00282946
3.53081
0.00288235
3.51686
0.00291161
3.50298
0.00291693
3.48919
0.00289967
3.47553
0.00286206
3.462
0.00280654
3.44863
0.00273554
3.43542
0.00265354
3.42238
0.00256461
3.40952
0.00247686
3.39681
0.0024044
3.38424
0.00236318
3.37173
0.00237495
3.35922
0.0024689
3.34657
0.00268611
3.33361
0.00308843
3.32005
0.0037739
3.30544
0.00491127
3.28903
0.00681025
3.26943
0.0100775
3.24409
0.0159203
3.20821
0.0265491
3.15531
0.0436532
3.08385
0.0623423
3.1071
-0.0318723
3.25519
-0.157073
3.32929
-0.0831885
3.304
0.0163683
3.2558
0.0394712
3.20339
0.0437976
3.15195
0.0429093
3.10201
0.0414954
3.05232
0.0413419
3.00228
0.0417709
2.95193
0.0421466
2.9016
0.0422359
2.8514
0.0422101
2.80095
0.0425631
2.74918
0.0439598
2.69439
0.0470017
2.63454
0.0521679
2.56737
0.0596265
2.49054
0.0694011
2.40174
0.0814601
2.2989
0.0955561
2.18044
0.111085
2.04593
0.127216
1.89627
0.142587
1.73447
0.154886
1.5662
0.161501
1.39936
0.160231
1.24239
0.150404
1.10232
0.133537
0.983258
0.112584
0.886029
0.0908169
0.80895
0.0707313
0.74896
0.0537349
0.702675
0.0401161
0.666987
0.0296039
0.63931
0.0216761
0.617611
0.0157818
0.600337
0.0114376
0.586329
0.00825462
0.574723
0.00593259
0.564886
0.00424513
0.556352
0.0030234
0.548778
0.00214233
0.541916
0.0015096
0.535584
0.00105726
0.529652
0.000735424
0.524025
0.000507608
0.518633
0.000347193
0.513428
0.000234856
0.508374
0.000156625
0.503446
0.000102459
0.498626
6.51708e-05
0.493899
3.96549e-05
0.489258
2.22923e-05
0.484695
1.05464e-05
0.480204
2.60581e-06
0.475784
-2.71544e-06
0.471431
-6.23918e-06
0.467144
-8.61696e-06
0.462922
-1.00836e-05
0.458765
-1.10917e-05
0.454672
-1.17628e-05
0.450645
-1.21947e-05
0.446683
-1.24946e-05
0.442789
-1.26811e-05
0.438963
-1.28266e-05
0.435207
-1.29173e-05
0.431521
-1.30065e-05
0.427908
-1.30635e-05
0.424368
-1.31208e-05
0.420902
-1.31561e-05
0.417512
-1.31944e-05
0.414197
-1.32192e-05
0.410957
-1.32715e-05
0.407793
-1.3291e-05
0.404705
-1.33559e-05
0.401691
-1.33578e-05
0.398751
-1.34204e-05
0.395884
-1.34053e-05
0.393089
-1.34737e-05
0.390364
-1.34481e-05
0.38771
-1.35439e-05
0.385124
-1.34811e-05
0.382605
-1.36305e-05
0.380152
-1.3479e-05
0.377763
-1.37575e-05
0.375437
-1.34204e-05
0.373172
-1.39273e-05
0.370965
-1.31209e-05
0.368815
-1.42968e-05
0.36672
-1.27001e-05
0.364678
-1.47962e-05
0.362687
-1.23515e-05
0.360745
-1.52323e-05
0.358849
-1.22937e-05
0.357
-1.52945e-05
0.355194
-1.23553e-05
0.353433
-1.53619e-05
0.351712
-1.22244e-05
0.350032
-1.59626e-05
0.348389
-1.15859e-05
0.346784
-1.63626e-05
0.34521
-1.1687e-05
0.343666
-1.45357e-05
0.342147
-8.94856e-06
0.340636
5.52123e-06
0.339058
9.84371e-05
0.337049
0.000548319
0.333253
0.00235973
0.338712
-0.00686978
-0.00364342
0.340964
5.81173
-2.48566
6.58188
-1.19607
6.52042
0.0681203
6.19043
0.380394
6.37234
-0.392106
6.77708
-0.652064
6.85032
-0.135561
6.69689
0.147697
6.84137
-0.303185
7.08331
-0.394342
7.09001
-0.0314491
6.91473
0.192207
6.95926
-0.152782
7.24172
-0.462741
7.36729
-0.188202
7.30632
0.0712014
7.10062
0.246718
7.02649
0.0260177
7.27577
-0.427902
7.48638
-0.312202
7.51243
-0.0327963
7.44419
0.0811092
7.32613
0.130652
7.34474
-0.078347
7.44188
-0.173873
7.48309
-0.0738212
7.47154
-0.000677719
7.44327
0.0148932
7.41056
0.0163224
7.37847
0.012286
7.34701
0.00946301
7.31483
0.00933135
7.27994
0.012457
7.23872
0.0208058
7.18379
0.039221
7.10035
0.0754159
7.02966
0.0480584
7.08098
-0.125484
7.12146
-0.0882802
7.11339
-0.0122835
7.08828
0.00764034
7.05746
0.012816
7.0263
0.0116061
6.99603
0.00936198
6.96638
0.00794953
6.9371
0.00719283
6.90805
0.00680449
6.87913
0.00662202
6.85031
0.00654227
6.82163
0.00645311
6.79315
0.00627505
6.76491
0.00608008
6.73687
0.00594364
6.70899
0.00587796
6.68125
0.00587833
6.65361
0.00593727
6.62605
0.00604939
6.59854
0.00620938
6.57106
0.00641028
6.5436
0.00664332
6.51614
0.00689671
6.48868
0.00715628
6.46122
0.0074079
6.43379
0.00763802
6.40638
0.00783542
6.37902
0.00799273
6.35174
0.00810714
6.32455
0.00818273
6.29745
0.00822875
6.27045
0.00825716
6.24353
0.0082804
6.21668
0.00831126
6.18986
0.00837019
6.163
0.00847774
6.13603
0.00866935
6.10882
0.00900207
6.08121
0.00954225
6.05294
0.0103794
6.02368
0.0116341
5.99296
0.0134765
5.96015
0.0161598
5.92427
0.0200835
5.88388
0.0259224
5.83657
0.0349026
5.77819
0.0494144
5.70093
0.0742939
5.58976
0.119007
5.41958
0.19531
5.16002
0.303639
5.05901
0.0519071
5.29732
-0.413265
5.5411
-0.345106
5.61669
-0.0770138
5.60154
0.0371879
5.54367
0.0844308
5.46818
0.101335
5.38262
0.110153
5.28842
0.118805
5.18692
0.126726
5.07993
0.132815
4.96919
0.136823
4.85584
0.139515
4.73995
0.14255
4.62019
0.14803
4.49396
0.157811
4.3579
0.173
4.20879
0.193682
4.04402
0.219184
3.86204
0.248391
3.66266
0.280086
3.44686
0.312369
3.21702
0.342847
2.97736
0.368291
2.73391
0.384671
2.49453
0.387449
2.26857
0.372859
2.06391
0.341824
1.88579
0.298538
1.73603
0.249356
1.61348
0.20051
1.51501
0.156529
1.43665
0.119585
1.37445
0.0899821
1.32489
0.0670046
1.28504
0.0495272
1.25258
0.0364021
1.22572
0.0266269
1.20308
0.0193893
1.18361
0.0140559
1.16653
0.0101423
1.15125
0.00728273
1.13732
0.00520248
1.12443
0.00369623
1.11233
0.00261099
1.10084
0.00183316
1.08983
0.00127872
1.0792
0.000885746
1.06889
0.000608846
1.05883
0.000414896
1.04901
0.000279881
1.03937
0.000186468
1.02992
0.000122253
1.02062
7.83769e-05
1.01148
4.8592e-05
1.00248
2.84173e-05
0.993615
1.49462e-05
0.984884
6.01214e-06
0.976285
-1.0788e-07
0.967814
-3.83025e-06
0.959472
-6.41439e-06
0.95126
-8.11786e-06
0.943177
-9.19473e-06
0.935227
-9.93088e-06
0.927411
-1.0368e-05
0.919731
-1.06996e-05
0.91219
-1.08735e-05
0.904791
-1.10438e-05
0.897537
-1.11221e-05
0.890429
-1.1211e-05
0.883469
-1.12491e-05
0.87666
-1.13037e-05
0.870001
-1.13127e-05
0.863494
-1.13922e-05
0.857137
-1.1367e-05
0.850932
-1.14793e-05
0.844875
-1.14181e-05
0.838966
-1.15425e-05
0.833203
-1.14544e-05
0.827585
-1.15961e-05
0.822107
-1.14776e-05
0.816769
-1.16801e-05
0.811568
-1.1464e-05
0.806502
-1.18219e-05
0.801566
-1.13588e-05
0.796759
-1.20845e-05
0.792077
-1.10821e-05
0.787518
-1.24742e-05
0.783075
-1.01568e-05
0.778747
-1.34254e-05
0.774527
-8.94573e-06
0.770414
-1.47096e-05
0.766401
-8.05503e-06
0.762487
-1.56415e-05
0.758666
-7.78359e-06
0.754938
-1.5948e-05
0.751298
-7.69104e-06
0.747744
-1.63035e-05
0.744273
-7.04738e-06
0.740884
-1.81604e-05
0.737568
-4.99676e-06
0.734328
-1.93303e-05
0.73115
-5.16864e-06
0.728033
-1.37484e-05
0.724965
3.3791e-06
0.721911
4.80024e-05
0.718714
0.000335698
0.714594
0.00174808
0.705928
0.00815471
0.672829
0.0234052
0.0634521
0.602952
41.2583
0.417547
39.3867
0.296451
38.8141
0.264538
38.5415
0.277978
37.4966
0.278352
36.2486
0.223394
35.5605
0.182162
35.1584
0.180659
34.307
0.1805
33.3986
0.148409
32.8775
0.125713
32.5771
0.129898
31.9253
0.137414
30.9892
0.114243
30.358
0.0860927
29.9926
0.0809148
29.7947
0.0903135
29.3649
0.10239
28.4985
0.0874535
27.7778
0.0601025
27.349
0.0491396
27.0332
0.0512829
26.7633
0.0563695
26.2845
0.0577736
25.7231
0.0469621
25.2739
0.0367882
24.9026
0.0335431
24.5497
0.032389
24.2017
0.0307662
23.8533
0.028735
23.5062
0.0264906
23.1631
0.024168
22.8271
0.0219031
22.5033
0.0199082
22.2009
0.018645
21.9359
0.0193956
21.6418
0.0227542
21.1811
0.0179338
20.7672
0.0102889
20.4343
0.00693341
20.1235
0.00652264
19.8201
0.00614166
19.5177
0.00554086
19.2158
0.00474414
18.9151
0.00388569
18.6162
0.00302438
18.3196
0.00219045
18.0254
0.00143271
17.7337
0.000618417
17.4453
-0.000947276
17.1601
-0.00254295
16.8773
-0.00346819
16.5969
-0.00407814
16.3186
-0.00455012
16.0425
-0.00496517
15.7686
-0.00534896
15.4969
-0.0056996
15.2276
-0.00600649
14.9604
-0.00625607
14.6955
-0.00643845
14.4328
-0.00654575
14.1722
-0.00657389
13.9136
-0.00652525
13.657
-0.00640589
13.4023
-0.00622701
13.1493
-0.00600162
12.8981
-0.00574657
12.6487
-0.00548088
12.401
-0.00522684
12.155
-0.00501534
11.9108
-0.00488034
11.6687
-0.00485151
11.4287
-0.00495283
11.1911
-0.00522946
10.9561
-0.00558769
10.7239
-0.00607706
10.495
-0.0066928
10.2697
-0.0074456
10.0487
-0.00835392
9.8327
-0.00943989
9.62291
-0.0107306
9.42078
-0.012243
9.2284
-0.0139899
9.04909
-0.0158842
8.88798
-0.0174349
8.75317
-0.016822
8.65756
-0.00925669
8.63082
0.000272816
8.70414
0.0105559
8.51564
0.021251
7.91181
-0.0253464
7.46686
-0.113346
7.31365
-0.134881
7.27731
-0.135573
7.29985
-0.145093
7.36277
-0.166465
7.46856
-0.198392
7.625
-0.238225
7.83601
-0.282698
8.10026
-0.327676
8.41056
-0.367547
8.75381
-0.395654
9.11359
-0.406977
9.47381
-0.399781
9.82356
-0.377378
10.1608
-0.347546
10.4919
-0.318494
10.8272
-0.295024
11.1761
-0.277227
11.5431
-0.26141
11.9297
-0.246652
12.331
-0.228742
12.7338
-0.202744
13.123
-0.17061
13.4836
-0.137236
13.8013