/*--------------------------------*- C++ -*----------------------------------*\
| =========                 |                                                 |
| \\      /  F ield         | OpenFOAM: The Open Source CFD Toolbox           |
|  \\    /   O peration     | Version:  3.0.x                                 |
|   \\  /    A nd           | Web:      www.OpenFOAM.org                      |
|    \\/     M anipulation  |                                                 |
\*---------------------------------------------------------------------------*/
FoamFile
{
    version     2.0;
    format      ascii;
    class       volScalarField;
    location    "0.52";
    object      rho;
}
// * * * * * * * * * * * * * * * * * * * * * * * * * * * * * * * * * * * * * //

dimensions      [1 -3 0 0 0 0 0];

internalField   nonuniform List<scalar> 
6900
(
51.2964
51.2977
51.2995
51.3012
51.3027
51.304
51.3054
51.3069
51.3084
51.3099
51.3115
51.3133
51.3152
51.3172
51.3193
51.3216
51.324
51.3265
51.3292
51.3319
51.3349
51.3379
51.3411
51.3444
51.3478
51.3513
51.355
51.3588
51.3627
51.3668
51.3709
51.3752
51.3795
51.384
51.3886
51.3933
51.3981
51.403
51.408
51.413
51.4182
51.4235
51.4289
51.4344
51.4401
51.446
51.452
51.458
51.4642
51.4704
51.4767
51.4831
51.4897
51.4963
51.5031
51.51
51.5171
51.5244
51.5318
51.5394
51.5471
51.5549
51.5628
51.5708
51.5789
51.587
51.5952
51.6035
51.612
51.6205
51.6292
51.638
51.6469
51.6559
51.665
51.6741
51.6833
51.6926
51.7019
51.7112
51.7207
51.7301
51.7397
51.7493
51.759
51.7688
51.7786
51.7885
51.7985
51.8085
51.8187
51.8289
51.8392
51.8496
51.86
51.8706
51.8812
51.8919
51.9027
51.9136
51.9245
51.9356
51.9467
51.9579
51.9692
51.9806
51.9921
52.0036
52.0152
52.0268
52.0386
52.0504
52.0622
52.0741
52.0861
52.0981
52.1101
52.1222
52.1344
52.1465
52.1587
52.171
52.1832
52.1955
52.2079
52.2202
52.2326
52.245
52.2574
52.2698
52.2823
52.2948
52.3073
52.3198
52.3323
52.3449
52.3575
52.3701
52.3827
52.3954
52.408
52.4207
52.4334
52.4461
52.4589
52.4716
52.4844
52.4971
52.5099
52.5227
52.5355
52.5483
52.5611
52.5739
52.5868
52.5996
52.6124
52.6253
52.6381
52.6509
52.6638
52.6766
52.6894
52.7023
52.7151
52.7279
52.7407
52.7535
52.7663
52.779
52.7918
52.8045
52.8172
52.8299
52.8425
52.8551
52.8677
52.8803
52.8929
52.9054
52.9179
52.9303
52.9427
52.955
52.9675
52.9796
52.992
53.0039
53.0165
53.0282
53.0407
53.0522
53.0648
53.076
53.0886
53.0998
53.112
53.1236
53.1349
53.147
51.2966
51.2979
51.2997
51.3015
51.3029
51.3043
51.3057
51.3071
51.3086
51.3101
51.3118
51.3135
51.3154
51.3174
51.3196
51.3218
51.3242
51.3267
51.3294
51.3322
51.3351
51.3381
51.3413
51.3446
51.348
51.3516
51.3552
51.359
51.363
51.367
51.3711
51.3754
51.3798
51.3842
51.3888
51.3935
51.3983
51.4032
51.4082
51.4133
51.4184
51.4237
51.4291
51.4346
51.4403
51.4462
51.4521
51.4582
51.4644
51.4706
51.4769
51.4833
51.4899
51.4965
51.5033
51.5102
51.5173
51.5246
51.532
51.5395
51.5472
51.5551
51.563
51.571
51.5791
51.5872
51.5954
51.6037
51.6122
51.6207
51.6294
51.6382
51.6471
51.6561
51.6651
51.6743
51.6835
51.6927
51.702
51.7114
51.7208
51.7303
51.7398
51.7495
51.7592
51.7689
51.7787
51.7886
51.7986
51.8087
51.8188
51.829
51.8393
51.8497
51.8602
51.8707
51.8814
51.8921
51.9029
51.9137
51.9247
51.9358
51.9469
51.9581
51.9694
51.9808
51.9922
52.0037
52.0153
52.027
52.0387
52.0505
52.0624
52.0743
52.0862
52.0982
52.1103
52.1224
52.1345
52.1467
52.1589
52.1711
52.1834
52.1957
52.208
52.2204
52.2327
52.2451
52.2575
52.27
52.2824
52.2949
52.3074
52.3199
52.3325
52.3451
52.3576
52.3702
52.3829
52.3955
52.4082
52.4209
52.4336
52.4463
52.459
52.4718
52.4845
52.4973
52.5101
52.5229
52.5357
52.5485
52.5613
52.5741
52.5869
52.5998
52.6126
52.6254
52.6383
52.6511
52.6639
52.6768
52.6896
52.7024
52.7152
52.7281
52.7409
52.7536
52.7664
52.7792
52.7919
52.8046
52.8173
52.83
52.8427
52.8553
52.8679
52.8805
52.893
52.9055
52.918
52.9304
52.9429
52.9552
52.9676
52.9797
52.9922
53.0041
53.0166
53.0283
53.0409
53.0523
53.0649
53.0762
53.0888
53.0998
53.1124
53.1233
53.1358
53.1465
51.2966
51.2979
51.2997
51.3014
51.3029
51.3043
51.3057
51.3071
51.3086
51.3101
51.3118
51.3135
51.3154
51.3174
51.3196
51.3218
51.3242
51.3267
51.3294
51.3322
51.3351
51.3381
51.3413
51.3446
51.348
51.3516
51.3552
51.359
51.3629
51.367
51.3711
51.3754
51.3798
51.3842
51.3888
51.3935
51.3983
51.4032
51.4082
51.4133
51.4184
51.4237
51.4291
51.4346
51.4403
51.4462
51.4521
51.4582
51.4644
51.4706
51.4769
51.4833
51.4899
51.4965
51.5033
51.5102
51.5173
51.5246
51.532
51.5395
51.5472
51.5551
51.563
51.571
51.5791
51.5872
51.5954
51.6037
51.6122
51.6207
51.6294
51.6382
51.6471
51.6561
51.6651
51.6743
51.6835
51.6927
51.702
51.7114
51.7208
51.7303
51.7398
51.7495
51.7592
51.7689
51.7787
51.7886
51.7986
51.8087
51.8188
51.829
51.8393
51.8497
51.8602
51.8707
51.8814
51.8921
51.9029
51.9137
51.9247
51.9358
51.9469
51.9581
51.9694
51.9808
51.9922
52.0037
52.0153
52.027
52.0387
52.0505
52.0624
52.0743
52.0862
52.0982
52.1103
52.1224
52.1345
52.1467
52.1589
52.1711
52.1834
52.1957
52.208
52.2204
52.2327
52.2451
52.2575
52.27
52.2824
52.2949
52.3074
52.3199
52.3325
52.3451
52.3576
52.3702
52.3829
52.3955
52.4082
52.4209
52.4336
52.4463
52.459
52.4718
52.4845
52.4973
52.5101
52.5229
52.5357
52.5485
52.5613
52.5741
52.5869
52.5998
52.6126
52.6254
52.6383
52.6511
52.6639
52.6768
52.6896
52.7024
52.7152
52.7281
52.7409
52.7536
52.7664
52.7792
52.7919
52.8046
52.8173
52.83
52.8427
52.8553
52.8679
52.8805
52.893
52.9055
52.918
52.9304
52.9429
52.9552
52.9676
52.9798
52.9921
53.0042
53.0165
53.0285
53.0406
53.0526
53.0646
53.0764
53.0885
53.1001
53.112
53.1238
53.1354
53.1468
51.2966
51.2979
51.2997
51.3015
51.3029
51.3043
51.3057
51.3071
51.3086
51.3101
51.3118
51.3135
51.3154
51.3174
51.3196
51.3218
51.3242
51.3267
51.3294
51.3322
51.3351
51.3381
51.3413
51.3446
51.348
51.3516
51.3552
51.359
51.363
51.367
51.3711
51.3754
51.3798
51.3842
51.3888
51.3935
51.3983
51.4032
51.4082
51.4133
51.4184
51.4237
51.4291
51.4346
51.4403
51.4462
51.4521
51.4582
51.4644
51.4706
51.4769
51.4833
51.4899
51.4965
51.5033
51.5102
51.5173
51.5246
51.532
51.5395
51.5472
51.5551
51.563
51.571
51.5791
51.5872
51.5954
51.6037
51.6122
51.6207
51.6294
51.6382
51.6471
51.6561
51.6651
51.6743
51.6835
51.6927
51.702
51.7114
51.7208
51.7303
51.7398
51.7495
51.7592
51.7689
51.7787
51.7886
51.7986
51.8087
51.8188
51.829
51.8393
51.8497
51.8602
51.8707
51.8814
51.8921
51.9029
51.9137
51.9247
51.9358
51.9469
51.9581
51.9694
51.9808
51.9922
52.0037
52.0153
52.027
52.0387
52.0505
52.0624
52.0743
52.0862
52.0982
52.1103
52.1224
52.1345
52.1467
52.1589
52.1711
52.1834
52.1957
52.208
52.2204
52.2327
52.2451
52.2575
52.27
52.2824
52.2949
52.3074
52.3199
52.3325
52.3451
52.3576
52.3702
52.3829
52.3955
52.4082
52.4209
52.4336
52.4463
52.459
52.4718
52.4845
52.4973
52.5101
52.5229
52.5357
52.5485
52.5613
52.5741
52.5869
52.5998
52.6126
52.6254
52.6383
52.6511
52.6639
52.6768
52.6896
52.7024
52.7152
52.7281
52.7409
52.7536
52.7664
52.7792
52.7919
52.8046
52.8173
52.83
52.8427
52.8553
52.8679
52.8805
52.893
52.9055
52.918
52.9305
52.9428
52.9553
52.9674
52.9799
52.9919
53.0044
53.0162
53.0287
53.0403
53.0529
53.0642
53.0769
53.088
53.1006
53.1116
53.1241
53.1351
53.1469
51.2964
51.2977
51.2995
51.3012
51.3027
51.304
51.3054
51.3069
51.3084
51.3099
51.3115
51.3133
51.3152
51.3172
51.3193
51.3216
51.324
51.3265
51.3292
51.3319
51.3349
51.3379
51.3411
51.3444
51.3478
51.3513
51.355
51.3588
51.3627
51.3668
51.3709
51.3752
51.3795
51.384
51.3886
51.3933
51.3981
51.403
51.408
51.413
51.4182
51.4235
51.4289
51.4344
51.4401
51.446
51.452
51.458
51.4642
51.4704
51.4767
51.4831
51.4897
51.4963
51.5031
51.51
51.5171
51.5244
51.5318
51.5394
51.5471
51.5549
51.5628
51.5708
51.5789
51.587
51.5952
51.6035
51.612
51.6205
51.6292
51.638
51.6469
51.6559
51.665
51.6741
51.6833
51.6926
51.7019
51.7112
51.7207
51.7301
51.7397
51.7493
51.759
51.7688
51.7786
51.7885
51.7985
51.8085
51.8187
51.8289
51.8392
51.8496
51.86
51.8706
51.8812
51.8919
51.9027
51.9136
51.9245
51.9356
51.9467
51.9579
51.9692
51.9806
51.9921
52.0036
52.0152
52.0268
52.0386
52.0504
52.0622
52.0741
52.0861
52.0981
52.1101
52.1222
52.1344
52.1465
52.1587
52.171
52.1832
52.1955
52.2079
52.2202
52.2326
52.245
52.2574
52.2698
52.2823
52.2948
52.3073
52.3198
52.3323
52.3449
52.3575
52.3701
52.3827
52.3954
52.408
52.4207
52.4334
52.4461
52.4589
52.4716
52.4844
52.4971
52.5099
52.5227
52.5355
52.5483
52.5611
52.5739
52.5868
52.5996
52.6124
52.6253
52.6381
52.6509
52.6638
52.6766
52.6894
52.7023
52.7151
52.7279
52.7407
52.7535
52.7663
52.779
52.7918
52.8045
52.8172
52.8299
52.8425
52.8551
52.8677
52.8803
52.8928
52.9054
52.9178
52.9303
52.9426
52.9551
52.9673
52.9798
52.9918
53.0043
53.0161
53.0286
53.0402
53.0528
53.0641
53.0768
53.0878
53.1005
53.1114
53.124
53.1348
53.146
53.1554
53.1585
53.1609
53.1631
53.1651
53.1669
53.1683
53.1695
53.1708
53.1728
53.1764
53.1814
53.1854
53.1864
53.1841
53.1821
53.1822
53.1818
53.1813
53.1841
53.1546
53.1574
53.1598
53.1621
53.1642
53.1661
53.1675
53.1691
53.1706
53.1727
53.1764
53.1815
53.1851
53.1854
53.1821
53.1802
53.1809
53.1812
53.1814
53.1839
53.1538
53.156
53.158
53.1599
53.1617
53.1633
53.1649
53.1663
53.1672
53.168
53.1687
53.1689
53.1692
53.1701
53.171
53.1714
53.1712
53.1715
53.1714
53.1712
53.154
53.1559
53.1578
53.1595
53.1609
53.1622
53.1633
53.1644
53.1654
53.1664
53.1674
53.1684
53.1693
53.1701
53.171
53.1719
53.1729
53.174
53.175
53.1761
53.1521
53.153
53.1545
53.1561
53.1576
53.1588
53.1599
53.1608
53.1618
53.1627
53.1635
53.1644
53.1651
53.1659
53.1666
53.1674
53.1683
53.1693
53.1703
53.1714
53.1944
53.1968
53.1975
53.2059
53.2182
53.2263
53.2306
53.2386
53.2504
53.2591
53.2639
53.2713
53.2823
53.2935
53.2989
53.3042
53.3123
53.3219
53.3344
53.3411
53.3454
53.3525
53.3608
53.37
53.3789
53.3854
53.392
53.3998
53.4076
53.4153
53.4229
53.4305
53.4381
53.4457
53.4533
53.4609
53.4686
53.4774
53.4844
53.4905
53.4974
53.5046
53.5118
53.5189
53.526
53.533
53.5401
53.547
53.5539
53.5608
53.5676
53.5744
53.5811
53.5877
53.5943
53.6008
53.6073
53.6137
53.62
53.6263
53.6326
53.6388
53.645
53.6511
53.6572
53.6632
53.6692
53.6752
53.681
53.6869
53.6926
53.6983
53.704
53.7096
53.7152
53.7206
53.7261
53.7315
53.7368
53.742
53.7472
53.7523
53.7574
53.7625
53.7675
53.7726
53.7777
53.7828
53.7878
53.7932
53.8011
53.8046
53.8065
53.8101
53.8149
53.8197
53.8244
53.8292
53.834
53.8384
53.8426
53.8471
53.8522
53.857
53.8609
53.8639
53.8677
53.8725
53.8774
53.882
53.884
53.882
53.8828
53.8868
53.8921
53.8999
53.9084
53.9152
53.9203
53.9242
53.9269
53.9296
53.9324
53.9354
53.9384
53.9414
53.9444
53.9473
53.9502
53.9531
53.9559
53.9587
53.9614
53.9641
53.9668
53.9694
53.9719
53.9744
53.9768
53.9792
53.9815
53.9838
53.986
53.9882
53.9903
53.9924
53.9945
53.9965
53.9985
54.0004
54.0023
54.0041
54.0059
54.0077
54.0094
54.0111
54.0127
54.0143
54.0159
54.0174
54.0189
54.0204
54.0218
54.0232
54.0245
54.0258
54.0271
54.0283
54.0295
54.0307
54.0318
54.033
54.0341
54.0351
54.0362
54.0372
54.0381
54.0392
54.04
54.0411
54.0419
54.0429
54.0436
54.0447
54.0453
54.0463
54.0469
54.0479
54.0484
54.0493
54.0498
54.0507
54.0512
54.052
54.0524
54.0533
54.0537
54.0542
54.0551
54.0554
53.193
53.1952
53.1969
53.2045
53.214
53.2225
53.2283
53.2364
53.2458
53.2542
53.2605
53.2688
53.278
53.2883
53.2949
53.3017
53.3099
53.3181
53.3294
53.3371
53.3428
53.3506
53.3587
53.3673
53.3762
53.3833
53.3905
53.3983
53.4062
53.4139
53.4216
53.4292
53.4369
53.4445
53.4521
53.4597
53.467
53.4754
53.4825
53.489
53.4961
53.5034
53.5106
53.5178
53.5249
53.532
53.539
53.546
53.5529
53.5598
53.5666
53.5733
53.58
53.5866
53.5932
53.5997
53.6061
53.6126
53.6189
53.6252
53.6315
53.6378
53.644
53.6501
53.6562
53.6623
53.6683
53.6742
53.6801
53.6859
53.6917
53.6974
53.7031
53.7087
53.7142
53.7197
53.7251
53.7304
53.7357
53.7409
53.746
53.7511
53.7563
53.7614
53.7664
53.7713
53.776
53.7806
53.7853
53.7904
53.7983
53.8022
53.8047
53.8087
53.8135
53.8183
53.823
53.8274
53.8318
53.8366
53.8416
53.8462
53.8497
53.8532
53.8576
53.8627
53.8676
53.8718
53.8733
53.8729
53.8737
53.8771
53.882
53.888
53.8964
53.9043
53.911
53.9162
53.9204
53.9235
53.9263
53.9293
53.9323
53.9354
53.9384
53.9414
53.9444
53.9474
53.9503
53.9532
53.9561
53.9588
53.9616
53.9643
53.9669
53.9695
53.972
53.9745
53.9769
53.9793
53.9816
53.9839
53.9862
53.9883
53.9905
53.9926
53.9946
53.9966
53.9986
54.0005
54.0024
54.0042
54.006
54.0078
54.0095
54.0112
54.0128
54.0145
54.016
54.0175
54.019
54.0205
54.0219
54.0233
54.0246
54.0259
54.0272
54.0284
54.0297
54.0308
54.032
54.0331
54.0342
54.0353
54.0363
54.0374
54.0383
54.0393
54.0402
54.0412
54.042
54.0431
54.0437
54.0448
54.0454
54.0464
54.047
54.048
54.0485
54.0495
54.0499
54.0509
54.0513
54.0522
54.0526
54.0534
54.0538
54.0545
54.0552
54.0553
53.1656
53.1764
53.1842
53.1909
53.1971
53.2036
53.2109
53.2184
53.2256
53.2333
53.2415
53.2496
53.2575
53.2654
53.2739
53.2824
53.2908
53.2989
53.3067
53.3149
53.3234
53.3318
53.3399
53.3478
53.3557
53.3638
53.3719
53.3798
53.3878
53.3957
53.4035
53.4113
53.419
53.4267
53.4342
53.4418
53.4492
53.4564
53.4638
53.4713
53.4787
53.486
53.4933
53.5006
53.5078
53.515
53.5221
53.5292
53.5362
53.5432
53.55
53.5568
53.5636
53.5702
53.5767
53.5832
53.5897
53.596
53.6024
53.6087
53.615
53.6212
53.6274
53.6335
53.6395
53.6455
53.6514
53.6572
53.663
53.6687
53.6743
53.6798
53.6852
53.6905
53.6958
53.7011
53.7062
53.7112
53.7162
53.7214
53.727
53.7335
53.7403
53.7476
53.7557
53.7634
53.7707
53.7776
53.7843
53.7904
53.7954
53.8004
53.8054
53.8103
53.8149
53.8194
53.8239
53.8284
53.8329
53.8374
53.842
53.8466
53.8512
53.8558
53.8604
53.8649
53.8693
53.8738
53.8782
53.8826
53.887
53.8913
53.8956
53.8997
53.9037
53.9075
53.9113
53.9149
53.9184
53.9218
53.9251
53.9285
53.9317
53.9349
53.9381
53.9412
53.9443
53.9473
53.9503
53.9532
53.956
53.9588
53.9616
53.9643
53.9669
53.9695
53.972
53.9745
53.9769
53.9793
53.9816
53.9839
53.9862
53.9883
53.9905
53.9926
53.9946
53.9966
53.9986
54.0005
54.0024
54.0042
54.006
54.0078
54.0095
54.0112
54.0129
54.0145
54.016
54.0175
54.019
54.0205
54.0219
54.0233
54.0246
54.0259
54.0272
54.0284
54.0297
54.0308
54.032
54.0331
54.0342
54.0353
54.0363
54.0373
54.0383
54.0393
54.0403
54.0411
54.0421
54.0429
54.0439
54.0447
54.0455
54.0463
54.0471
54.0479
54.0487
54.0493
54.0502
54.0507
54.0514
54.0521
54.0526
54.0533
54.054
54.0544
54.055
54.0555
53.1791
53.1881
53.196
53.2032
53.2109
53.2191
53.2274
53.2355
53.2434
53.2514
53.2596
53.2679
53.276
53.2839
53.2921
53.3004
53.3087
53.3168
53.3247
53.3327
53.3409
53.3491
53.3572
53.3652
53.3732
53.3812
53.3892
53.3972
53.4051
53.413
53.4209
53.4287
53.4365
53.4442
53.4519
53.4595
53.467
53.4744
53.4817
53.4891
53.4965
53.5038
53.5111
53.5182
53.5253
53.5324
53.5394
53.5464
53.5533
53.5602
53.567
53.5737
53.5805
53.5871
53.5937
53.6003
53.6068
53.6132
53.6196
53.6259
53.6322
53.6384
53.6445
53.6506
53.6567
53.6627
53.6686
53.6745
53.6804
53.6862
53.6919
53.6977
53.7033
53.7089
53.7145
53.72
53.7255
53.7309
53.7362
53.7416
53.7469
53.7521
53.7573
53.7625
53.7678
53.7729
53.7779
53.7829
53.7879
53.7925
53.7966
53.8005
53.8052
53.8102
53.8147
53.8191
53.8235
53.8279
53.8322
53.8363
53.8403
53.844
53.8477
53.8514
53.8547
53.8572
53.8593
53.8623
53.867
53.8723
53.8786
53.8863
53.8937
53.9001
53.9055
53.9099
53.9132
53.9162
53.9194
53.9226
53.9258
53.9289
53.9321
53.9352
53.9383
53.9414
53.9444
53.9474
53.9503
53.9532
53.956
53.9588
53.9616
53.9643
53.9669
53.9695
53.972
53.9745
53.9769
53.9793
53.9816
53.9839
53.9862
53.9883
53.9905
53.9926
53.9946
53.9966
53.9986
54.0005
54.0024
54.0042
54.006
54.0078
54.0095
54.0112
54.0129
54.0145
54.016
54.0175
54.019
54.0205
54.0219
54.0233
54.0246
54.0259
54.0272
54.0284
54.0297
54.0308
54.032
54.0331
54.0342
54.0353
54.0363
54.0373
54.0383
54.0393
54.0403
54.0411
54.0421
54.0429
54.0439
54.0446
54.0456
54.0462
54.0472
54.0478
54.0487
54.0492
54.0502
54.0506
54.0515
54.0519
54.0528
54.0532
54.054
54.0544
54.0551
54.0555
53.1788
53.188
53.1961
53.2036
53.2109
53.2184
53.2261
53.2339
53.2416
53.2491
53.2569
53.2648
53.2725
53.28
53.2877
53.2956
53.3035
53.3112
53.3187
53.3263
53.3342
53.3423
53.3502
53.3581
53.3659
53.3737
53.3816
53.3895
53.3973
53.4051
53.4129
53.4206
53.4283
53.4359
53.4435
53.451
53.4584
53.4658
53.4731
53.4804
53.4877
53.495
53.5022
53.5093
53.5164
53.5235
53.5306
53.5376
53.5446
53.5515
53.5583
53.5651
53.5718
53.5784
53.585
53.5916
53.598
53.6045
53.6108
53.6172
53.6235
53.6297
53.6359
53.642
53.6481
53.6542
53.6602
53.6661
53.672
53.6779
53.6837
53.6894
53.6951
53.7008
53.7064
53.712
53.7174
53.7229
53.7283
53.7336
53.7388
53.744
53.7492
53.7543
53.7593
53.7643
53.7694
53.7744
53.7794
53.7843
53.7889
53.7928
53.7973
53.8026
53.8078
53.812
53.8154
53.8196
53.825
53.8305
53.8352
53.8361
53.8352
53.8381
53.8434
53.8502
53.8593
53.8675
53.8746
53.8808
53.8864
53.8914
53.8957
53.8998
53.9037
53.9075
53.9112
53.9147
53.9182
53.9217
53.925
53.9284
53.9316
53.9348
53.938
53.9411
53.9442
53.9472
53.9501
53.953
53.9559
53.9587
53.9614
53.9641
53.9668
53.9694
53.9719
53.9744
53.9768
53.9792
53.9815
53.9838
53.986
53.9882
53.9903
53.9924
53.9945
53.9965
53.9985
54.0004
54.0023
54.0041
54.0059
54.0077
54.0094
54.0111
54.0127
54.0143
54.0159
54.0174
54.0189
54.0204
54.0218
54.0231
54.0245
54.0258
54.0271
54.0283
54.0295
54.0307
54.0319
54.033
54.0341
54.0351
54.0362
54.0372
54.0382
54.0391
54.0402
54.041
54.042
54.0428
54.0438
54.0444
54.0455
54.0461
54.0471
54.0476
54.0486
54.0491
54.05
54.0505
54.0514
54.0519
54.0525
54.0533
54.0536
54.0544
54.055
54.0553
54.0554
54.0554
54.0554
54.0555
54.0555
54.0556
54.0556
54.0557
54.0559
54.056
54.0561
54.0563
54.0563
54.0564
54.0565
54.0566
54.0567
54.0568
54.0569
54.057
54.0557
54.0558
54.0559
54.056
54.0561
54.0562
54.0563
54.0564
54.0565
54.0567
54.0567
54.0567
54.0567
54.0568
54.0569
54.0569
54.0568
54.0567
54.0566
54.0565
54.0558
54.056
54.0561
54.0562
54.0563
54.0564
54.0564
54.0563
54.0562
54.0562
54.0559
54.0558
54.0557
54.0555
54.0549
54.0546
54.0544
54.0542
54.0537
54.0533
54.0557
54.0559
54.0561
54.0562
54.0563
54.0563
54.0562
54.0561
54.0561
54.0565
54.0572
54.0578
54.058
54.0572
54.0563
54.0562
54.0557
54.0553
54.0554
54.0555
54.0556
54.0557
54.0558
54.056
54.0561
54.0561
54.0561
54.0561
54.0561
54.0564
54.057
54.0577
54.0581
54.0577
54.0569
54.0563
54.055
54.0547
54.0549
54.0558
54.0573
54.0575
54.0576
54.0575
54.0569
54.0564
54.056
54.056
54.0554
54.0542
54.0536
54.054
54.054
54.0528
54.0512
54.0516
54.0526
54.0524
54.0504
54.0477
54.0474
54.0495
54.0508
54.05
54.0477
54.046
54.0461
54.049
54.0509
54.0504
54.0484
54.046
54.0449
54.046
54.0475
54.0484
54.049
54.0495
54.0499
54.0503
54.0506
54.0509
54.0512
54.0515
54.0518
54.0521
54.0524
54.0527
54.0529
54.0532
54.0534
54.0537
54.054
54.0542
54.0545
54.0548
54.0551
54.0554
54.0557
54.056
54.0564
54.0568
54.0572
54.0576
54.0581
54.0585
54.059
54.0595
54.0602
54.061
54.0625
54.0636
54.0632
54.0611
54.0596
54.0603
54.0615
54.0624
54.0629
54.0634
54.0639
54.0643
54.0645
54.0648
54.0653
54.0659
54.0663
54.0659
54.066
54.0669
54.0678
54.0658
54.0585
54.0569
54.0597
54.0674
54.0725
54.0744
54.075
54.0767
54.0555
54.0548
54.0539
54.0523
54.0513
54.0513
54.0516
54.0515
54.0498
54.0494
54.0498
54.0508
54.0502
54.0496
54.0495
54.0511
54.0521
54.0506
54.0496
54.0485
54.0499
54.0523
54.0525
54.0507
54.0496
54.0492
54.0509
54.0541
54.055
54.0534
54.0521
54.0508
54.0509
54.0527
54.0544
54.0554
54.0559
54.0565
54.057
54.0574
54.0579
54.0583
54.0588
54.0591
54.0595
54.0599
54.0602
54.0606
54.0609
54.0612
54.0615
54.0618
54.0621
54.0624
54.0627
54.0631
54.0634
54.0637
54.064
54.0643
54.0646
54.065
54.0653
54.0657
54.0661
54.0665
54.0669
54.0674
54.0679
54.0688
54.0702
54.0706
54.0701
54.0683
54.0669
54.0679
54.0693
54.0703
54.0709
54.0712
54.0716
54.072
54.0723
54.0725
54.0728
54.0732
54.0734
54.0736
54.0737
54.0737
54.0741
54.074
54.0727
54.0718
54.0718
54.0712
54.0694
54.0685
54.0688
54.0705
54.0505
54.047
54.0447
54.0427
54.0405
54.038
54.0361
54.0349
54.0341
54.0325
54.0321
54.0319
54.032
54.0313
54.0304
54.0315
54.0317
54.0321
54.0316
54.0294
54.0309
54.0317
54.0324
54.0333
54.0323
54.0313
54.033
54.0341
54.0355
54.0363
54.0351
54.0332
54.0343
54.0367
54.0385
54.04
54.041
54.0418
54.0423
54.0427
54.0431
54.0434
54.0436
54.0439
54.0441
54.0443
54.0445
54.0446
54.0448
54.045
54.0452
54.0453
54.0455
54.0458
54.046
54.0461
54.0462
54.0464
54.0466
54.0469
54.0471
54.0473
54.0475
54.0477
54.048
54.0481
54.0482
54.0482
54.0483
54.0488
54.0499
54.0515
54.0529
54.0531
54.0572
54.0615
54.0647
54.0674
54.0694
54.0706
54.0713
54.0717
54.0721
54.0722
54.0725
54.0726
54.0729
54.0733
54.0738
54.0743
54.0752
54.0757
54.0766
54.0773
54.078
54.0788
54.0795
54.0802
54.0811
54.0821
54.055
54.055
54.0531
54.0532
54.0504
54.0505
54.0504
54.0508
54.0508
54.0507
54.05
54.0495
54.0508
54.0518
54.0558
54.0486
54.0513
54.0517
54.0554
54.0625
54.0488
54.0506
54.0538
54.0507
54.0649
54.0702
54.0511
54.0527
54.0575
54.0555
54.0709
54.0824
54.0678
54.0562
54.0569
54.0585
54.059
54.0593
54.0595
54.0597
54.0599
54.0601
54.0603
54.0605
54.0606
54.0608
54.061
54.0611
54.0613
54.0615
54.0616
54.0618
54.062
54.0622
54.0624
54.0626
54.0628
54.0631
54.0634
54.0637
54.0641
54.0644
54.0648
54.0652
54.0656
54.0661
54.0665
54.067
54.0674
54.068
54.0692
54.0709
54.0725
54.0891
54.0795
54.0693
54.0688
54.0696
54.0699
54.0701
54.0704
54.0707
54.0711
54.0714
54.0716
54.0719
54.0724
54.0729
54.0733
54.0738
54.0745
54.0753
54.0758
54.0756
54.0755
54.076
54.0768
54.0775
54.0774
54.0742
54.0572
54.0579
54.0544
54.0544
54.0555
54.0586
54.0568
54.0535
54.0549
54.0612
54.0602
54.0551
54.0557
54.0626
54.0683
54.0568
54.0553
54.058
54.0678
54.0757
54.0588
54.0537
54.0575
54.0608
54.0774
54.0824
54.0596
54.0547
54.0602
54.0642
54.0824
54.0942
54.0776
54.0601
54.0587
54.06
54.0604
54.0605
54.0606
54.0608
54.0609
54.0611
54.0613
54.0615
54.0616
54.0618
54.062
54.0621
54.0623
54.0625
54.0627
54.0629
54.0631
54.0633
54.0635
54.0637
54.0639
54.0642
54.0644
54.0647
54.0651
54.0654
54.0658
54.0662
54.0666
54.067
54.0674
54.0679
54.0683
54.069
54.0699
54.0713
54.0781
54.0973
54.0864
54.0726
54.0706
54.0711
54.0713
54.0714
54.0716
54.0719
54.0721
54.0724
54.0729
54.0734
54.0738
54.0742
54.0748
54.0755
54.0762
54.0766
54.0772
54.0779
54.0786
54.0791
54.0788
54.0786
54.0789
54.0796
54.075
54.075
54.0754
54.0763
54.0774
54.0784
54.0795
54.0806
54.0815
54.0823
54.0828
54.0832
54.0838
54.0844
54.0849
54.0853
54.0856
54.0858
54.086
54.0861
54.0694
54.0697
54.0702
54.0712
54.0724
54.0737
54.0751
54.0766
54.0779
54.0792
54.0803
54.0815
54.0826
54.0836
54.0848
54.0856
54.0859
54.0858
54.0856
54.0852
54.0824
54.0823
54.0822
54.0823
54.0825
54.0828
54.0831
54.0834
54.0837
54.0838
54.0839
54.0839
54.0837
54.0835
54.0832
54.083
54.0827
54.0827
54.0826
54.0818
54.0707
54.0689
54.0677
54.0669
54.0665
54.0663
54.0662
54.0662
54.0664
54.0667
54.0672
54.0687
54.0705
54.0725
54.0746
54.0766
54.0787
54.0821
54.0847
54.0839
54.0798
54.0801
54.0802
54.0801
54.0793
54.0778
54.0757
54.0733
54.0714
54.0699
54.0686
54.0676
54.0671
54.0675
54.0691
54.072
54.0755
54.0797
54.0841
54.0853
54.0866
54.0868
54.0866
54.086
54.0854
54.085
54.0848
54.0846
54.0836
54.0826
54.0825
54.0829
54.0827
54.0811
54.0795
54.0791
54.0802
54.0809
54.0802
54.078
54.0759
54.0742
54.0743
54.0762
54.0774
54.0766
54.0744
54.0724
54.0707
54.0692
54.0675
54.0673
54.0685
54.0693
54.0697
54.07
54.0702
54.0704
54.0706
54.0707
54.0709
54.0711
54.0712
54.0714
54.0716
54.0718
54.072
54.0722
54.0724
54.0727
54.073
54.0734
54.0739
54.0746
54.0759
54.0778
54.0796
54.0795
54.0779
54.0749
54.0724
54.0726
54.0757
54.0769
54.0751
54.0723
54.0705
54.0704
54.0715
54.0724
54.0729
54.0734
54.0739
54.0742
54.0744
54.0747
54.0751
54.0755
54.0753
54.0753
54.076
54.0762
54.07
54.063
54.0649
54.0743
54.0806
54.0837
54.086
54.0881
54.0897
54.0908
54.0914
54.0918
54.0922
54.0924
54.0926
54.0927
54.0929
54.093
54.0931
54.0932
54.0933
54.0935
54.0936
54.0937
54.0939
54.0941
54.0942
54.0944
54.0946
54.0948
54.095
54.0952
54.0955
54.0957
54.0959
54.0962
54.0964
54.0967
54.097
54.0972
54.0975
54.0978
54.098
54.0983
54.0985
54.0988
54.099
54.0993
54.0995
54.0998
54.1
54.1003
54.1005
54.1007
54.101
54.1012
54.1014
54.1017
54.1019
54.1022
54.1024
54.1027
54.1029
54.1032
54.1035
54.1038
54.1041
54.1044
54.1047
54.105
54.1054
54.1057
54.106
54.1064
54.1067
54.1071
54.1074
54.1078
54.1081
54.1085
54.1088
54.1091
54.1094
54.1098
54.1101
54.1104
54.1107
54.1109
54.1112
54.1115
54.1118
54.112
54.1123
54.1125
54.1128
54.1131
54.1134
54.1136
54.1139
54.1141
54.1145
54.1146
54.115
54.1152
54.1156
54.1157
54.1162
54.1164
54.1169
54.117
54.1175
54.1177
54.118
54.1185
54.1186
54.1191
54.1194
54.1197
54.0847
54.0844
54.0827
54.0801
54.0794
54.0794
54.0794
54.0776
54.0761
54.0764
54.0775
54.0778
54.0756
54.0744
54.0749
54.0773
54.0789
54.0785
54.0752
54.0732
54.0727
54.0743
54.0767
54.0787
54.0782
54.0749
54.0725
54.071
54.0705
54.0723
54.072
54.0727
54.074
54.0746
54.0748
54.0751
54.0754
54.0758
54.0762
54.0766
54.0771
54.0775
54.0778
54.0782
54.0785
54.0789
54.0792
54.0795
54.0798
54.0801
54.0806
54.081
54.0815
54.0822
54.0835
54.0849
54.0854
54.0837
54.0801
54.0781
54.0765
54.0775
54.081
54.0814
54.0798
54.0776
54.0765
54.0772
54.079
54.0802
54.0809
54.0812
54.0816
54.082
54.0822
54.0822
54.0824
54.0826
54.0827
54.0826
54.0826
54.0828
54.0824
54.0801
54.0793
54.0792
54.0781
54.0765
54.0761
54.0767
54.0799
54.0867
54.0914
54.0934
54.0939
54.0938
54.0935
54.0934
54.0934
54.0934
54.0934
54.0935
54.0935
54.0936
54.0938
54.0939
54.094
54.0942
54.0943
54.0945
54.0947
54.0949
54.0951
54.0953
54.0956
54.0958
54.096
54.0963
54.0965
54.0968
54.0971
54.0973
54.0976
54.0979
54.0981
54.0984
54.0986
54.0989
54.0992
54.0994
54.0996
54.0999
54.1001
54.1004
54.1006
54.1008
54.1011
54.1013
54.1015
54.1018
54.102
54.1023
54.1025
54.1028
54.103
54.1033
54.1036
54.1039
54.1042
54.1045
54.1048
54.1051
54.1055
54.1058
54.1061
54.1065
54.1068
54.1072
54.1075
54.1079
54.1082
54.1086
54.1089
54.1092
54.1095
54.1099
54.1102
54.1105
54.1108
54.111
54.1113
54.1116
54.1119
54.1121
54.1124
54.1126
54.1129
54.1132
54.1135
54.1137
54.114
54.1142
54.1146
54.1147
54.1151
54.1153
54.1157
54.1159
54.1163
54.1165
54.1169
54.1171
54.1176
54.1177
54.1183
54.1184
54.1189
54.1191
54.1195
54.1198
54.0792
54.0759
54.0731
54.0709
54.0684
54.0659
54.0641
54.0624
54.0613
54.0598
54.0598
54.0593
54.0589
54.0586
54.0584
54.0587
54.059
54.0592
54.0588
54.0589
54.0592
54.0582
54.0583
54.0585
54.0589
54.0588
54.0589
54.0587
54.058
54.0559
54.0554
54.0572
54.0587
54.0601
54.0612
54.0619
54.0623
54.0625
54.0627
54.0628
54.063
54.063
54.0632
54.0633
54.0635
54.0636
54.0637
54.0638
54.0638
54.0639
54.064
54.064
54.0638
54.0634
54.0629
54.0626
54.0614
54.0592
54.0585
54.0583
54.0572
54.0585
54.0606
54.0638
54.0664
54.0681
54.0701
54.0738
54.0768
54.0793
54.0807
54.0814
54.0817
54.0818
54.0818
54.0818
54.0818
54.082
54.0823
54.0827
54.0833
54.0839
54.0846
54.0853
54.0859
54.0865
54.087
54.0876
54.0881
54.0887
54.0894
54.0902
54.0909
54.0916
54.0921
54.0925
54.0927
54.0928
54.093
54.0931
54.0932
54.0933
54.0934
54.0936
54.0937
54.0938
54.094
54.0942
54.0943
54.0945
54.0947
54.0949
54.0951
54.0953
54.0956
54.0958
54.096
54.0963
54.0965
54.0968
54.0971
54.0973
54.0976
54.0979
54.0981
54.0984
54.0986
54.0989
54.0992
54.0994
54.0996
54.0999
54.1001
54.1004
54.1006
54.1008
54.1011
54.1013
54.1015
54.1018
54.102
54.1023
54.1025
54.1028
54.103
54.1033
54.1036
54.1039
54.1042
54.1045
54.1048
54.1051
54.1055
54.1058
54.1061
54.1065
54.1068
54.1072
54.1075
54.1079
54.1082
54.1086
54.1089
54.1092
54.1095
54.1099
54.1102
54.1105
54.1108
54.111
54.1113
54.1116
54.1119
54.1121
54.1124
54.1127
54.1129
54.1132
54.1135
54.1137
54.114
54.1142
54.1145
54.1148
54.1151
54.1154
54.1156
54.1159
54.1163
54.1165
54.1169
54.1171
54.1175
54.1179
54.1181
54.1185
54.1189
54.1191
54.1195
54.1198
54.0823
54.0822
54.082
54.0811
54.0764
54.0767
54.077
54.0778
54.0734
54.0748
54.073
54.0766
54.0743
54.0704
54.0759
54.072
54.0754
54.077
54.0715
54.0703
54.0762
54.0776
54.0696
54.0754
54.0767
54.0729
54.0706
54.0747
54.0842
54.0974
54.093
54.0765
54.0761
54.0791
54.0801
54.0802
54.0801
54.08
54.08
54.08
54.08
54.08
54.0801
54.0801
54.0802
54.0803
54.0804
54.0805
54.0806
54.0807
54.0807
54.0806
54.0806
54.0806
54.0811
54.0831
54.0831
54.0746
54.0728
54.0792
54.0848
54.0723
54.0771
54.0801
54.0857
54.1006
54.0996
54.0821
54.0785
54.08
54.0807
54.0808
54.0809
54.0809
54.0811
54.0813
54.0814
54.0817
54.0821
54.0825
54.083
54.0837
54.0844
54.0848
54.0844
54.0841
54.0843
54.0848
54.0852
54.0843
54.0794
54.0759
54.0756
54.0783
54.0861
54.092
54.0942
54.0943
54.0939
54.0936
54.0936
54.0936
54.0936
54.0937
54.0938
54.0939
54.094
54.0942
54.0944
54.0945
54.0947
54.0949
54.0951
54.0953
54.0956
54.0958
54.096
54.0963
54.0965
54.0968
54.0971
54.0973
54.0976
54.0979
54.0981
54.0984
54.0986
54.0989
54.0992
54.0994
54.0996
54.0999
54.1001
54.1004
54.1006
54.1008
54.1011
54.1013
54.1015
54.1018
54.102
54.1023
54.1025
54.1028
54.103
54.1033
54.1036
54.1039
54.1042
54.1045
54.1048
54.1051
54.1055
54.1058
54.1061
54.1065
54.1068
54.1072
54.1075
54.1079
54.1082
54.1086
54.1089
54.1092
54.1095
54.1099
54.1102
54.1105
54.1108
54.111
54.1113
54.1116
54.1119
54.1121
54.1124
54.1127
54.1129
54.1132
54.1134
54.1137
54.1139
54.1143
54.1144
54.1148
54.115
54.1154
54.1156
54.116
54.1162
54.1166
54.1168
54.1173
54.1174
54.1179
54.1181
54.1186
54.1188
54.1191
54.1197
54.1197
54.0853
54.0855
54.0841
54.0842
54.0838
54.0844
54.0811
54.0811
54.0825
54.0867
54.0813
54.0808
54.0822
54.0836
54.0883
54.0818
54.0784
54.0818
54.0834
54.0825
54.0866
54.0873
54.0749
54.0752
54.0821
54.084
54.0815
54.0839
54.0926
54.1058
54.1006
54.0791
54.076
54.0797
54.0812
54.0815
54.0814
54.0812
54.0811
54.0811
54.0811
54.0811
54.0812
54.0812
54.0813
54.0813
54.0814
54.0815
54.0816
54.0816
54.0816
54.0816
54.0815
54.0815
54.0819
54.0832
54.0861
54.0867
54.0849
54.09
54.0956
54.0789
54.0777
54.0848
54.094
54.1082
54.1066
54.0872
54.0806
54.0816
54.0822
54.0823
54.0821
54.0821
54.0821
54.0823
54.0826
54.083
54.0834
54.0839
54.0845
54.085
54.0854
54.086
54.0866
54.0871
54.0874
54.087
54.0868