/*--------------------------------*- C++ -*----------------------------------*\
| =========                 |                                                 |
| \\      /  F ield         | OpenFOAM: The Open Source CFD Toolbox           |
|  \\    /   O peration     | Version:  3.0.x                                 |
|   \\  /    A nd           | Web:      www.OpenFOAM.org                      |
|    \\/     M anipulation  |                                                 |
\*---------------------------------------------------------------------------*/
FoamFile
{
    version     2.0;
    format      ascii;
    class       volVectorField;
    location    "0.52";
    object      U;
}
// * * * * * * * * * * * * * * * * * * * * * * * * * * * * * * * * * * * * * //

dimensions      [0 1 -1 0 0 0 0];

internalField   nonuniform List<vector> 
6900
(
(42.6566 0.00010064 0)
(42.5527 9.22761e-05 0)
(42.4327 9.00263e-05 0)
(42.3196 9.09681e-05 0)
(42.2111 9.1735e-05 0)
(42.1029 9.22007e-05 0)
(41.9938 9.25616e-05 0)
(41.8841 9.28401e-05 0)
(41.7742 9.30402e-05 0)
(41.6641 9.31984e-05 0)
(41.5538 9.33203e-05 0)
(41.4431 9.34153e-05 0)
(41.3321 9.34911e-05 0)
(41.2209 9.35525e-05 0)
(41.1092 9.36034e-05 0)
(40.9973 9.36462e-05 0)
(40.885 9.36831e-05 0)
(40.7724 9.37155e-05 0)
(40.6594 9.37445e-05 0)
(40.546 9.37708e-05 0)
(40.4323 9.37954e-05 0)
(40.3182 9.38185e-05 0)
(40.2038 9.38407e-05 0)
(40.089 9.38624e-05 0)
(39.974 9.38835e-05 0)
(39.8585 9.3905e-05 0)
(39.7428 9.39261e-05 0)
(39.6267 9.39477e-05 0)
(39.5104 9.39698e-05 0)
(39.3937 9.39924e-05 0)
(39.2768 9.40157e-05 0)
(39.1596 9.40403e-05 0)
(39.0421 9.40651e-05 0)
(38.9243 9.40921e-05 0)
(38.8063 9.41201e-05 0)
(38.688 9.415e-05 0)
(38.5695 9.41825e-05 0)
(38.4506 9.42168e-05 0)
(38.3315 9.42551e-05 0)
(38.2121 9.4295e-05 0)
(38.0923 9.43363e-05 0)
(37.9723 9.43797e-05 0)
(37.8519 9.44259e-05 0)
(37.7311 9.44757e-05 0)
(37.61 9.45311e-05 0)
(37.4885 9.45922e-05 0)
(37.3665 9.46588e-05 0)
(37.2441 9.47282e-05 0)
(37.1212 9.47989e-05 0)
(36.9978 9.48696e-05 0)
(36.874 9.49402e-05 0)
(36.7496 9.50131e-05 0)
(36.6246 9.5087e-05 0)
(36.4991 9.51645e-05 0)
(36.373 9.52437e-05 0)
(36.2463 9.53231e-05 0)
(36.1191 9.54016e-05 0)
(35.9912 9.5479e-05 0)
(35.8628 9.55547e-05 0)
(35.7337 9.56272e-05 0)
(35.6041 9.5694e-05 0)
(35.4739 9.57494e-05 0)
(35.3431 9.57848e-05 0)
(35.2117 9.57899e-05 0)
(35.0798 9.57549e-05 0)
(34.9474 9.56699e-05 0)
(34.8145 9.55239e-05 0)
(34.6811 9.53042e-05 0)
(34.5472 9.49963e-05 0)
(34.4129 9.45825e-05 0)
(34.2781 9.40424e-05 0)
(34.1429 9.33531e-05 0)
(34.0074 9.2491e-05 0)
(33.8715 9.14318e-05 0)
(33.7352 9.01528e-05 0)
(33.5985 8.86333e-05 0)
(33.4616 8.68564e-05 0)
(33.3242 8.48094e-05 0)
(33.1866 8.24851e-05 0)
(33.0486 7.98822e-05 0)
(32.9103 7.70061e-05 0)
(32.7716 7.38691e-05 0)
(32.6326 7.0491e-05 0)
(32.4932 6.68979e-05 0)
(32.3535 6.31222e-05 0)
(32.2133 5.92016e-05 0)
(32.0728 5.5178e-05 0)
(31.9319 5.10959e-05 0)
(31.7906 4.70017e-05 0)
(31.6488 4.29413e-05 0)
(31.5066 3.89592e-05 0)
(31.364 3.50967e-05 0)
(31.2208 3.13911e-05 0)
(31.0772 2.78743e-05 0)
(30.933 2.45726e-05 0)
(30.7884 2.15054e-05 0)
(30.6432 1.86861e-05 0)
(30.4974 1.61213e-05 0)
(30.351 1.38123e-05 0)
(30.2041 1.17548e-05 0)
(30.0566 9.94004e-06 0)
(29.9085 8.35561e-06 0)
(29.7598 6.98592e-06 0)
(29.6105 5.8135e-06 0)
(29.4606 4.81976e-06 0)
(29.3101 3.98563e-06 0)
(29.159 3.29219e-06 0)
(29.0074 2.72099e-06 0)
(28.8552 2.25478e-06 0)
(28.7025 1.87745e-06 0)
(28.5492 1.57453e-06 0)
(28.3955 1.33312e-06 0)
(28.2412 1.14216e-06 0)
(28.0866 9.91956e-07 0)
(27.9315 8.74298e-07 0)
(27.776 7.82033e-07 0)
(27.6202 7.09396e-07 0)
(27.4641 6.51844e-07 0)
(27.3076 6.05752e-07 0)
(27.1508 5.6834e-07 0)
(26.9938 5.37177e-07 0)
(26.8365 5.10499e-07 0)
(26.679 4.8702e-07 0)
(26.5213 4.6588e-07 0)
(26.3634 4.46623e-07 0)
(26.2053 4.2854e-07 0)
(26.047 4.11114e-07 0)
(25.8885 3.93896e-07 0)
(25.7299 3.76657e-07 0)
(25.571 3.59565e-07 0)
(25.4121 3.4259e-07 0)
(25.2529 3.25667e-07 0)
(25.0937 3.0869e-07 0)
(24.9342 2.91439e-07 0)
(24.7746 2.73868e-07 0)
(24.6149 2.55954e-07 0)
(24.4551 2.37859e-07 0)
(24.2951 2.19718e-07 0)
(24.135 2.0157e-07 0)
(23.9748 1.83344e-07 0)
(23.8145 1.64782e-07 0)
(23.6541 1.45777e-07 0)
(23.4936 1.26413e-07 0)
(23.3331 1.06707e-07 0)
(23.1725 8.64902e-08 0)
(23.0119 6.59132e-08 0)
(22.8512 4.50575e-08 0)
(22.6904 2.40266e-08 0)
(22.5297 2.9652e-09 0)
(22.3689 -1.76383e-08 0)
(22.208 -3.92557e-08 0)
(22.0472 -6.08735e-08 0)
(21.8864 -8.31546e-08 0)
(21.7255 -1.06113e-07 0)
(21.5646 -1.29515e-07 0)
(21.4037 -1.53384e-07 0)
(21.2428 -1.77364e-07 0)
(21.082 -2.01662e-07 0)
(20.9211 -2.26389e-07 0)
(20.7603 -2.51942e-07 0)
(20.5995 -2.778e-07 0)
(20.4387 -3.03952e-07 0)
(20.278 -3.30085e-07 0)
(20.1174 -3.56612e-07 0)
(19.9569 -3.83151e-07 0)
(19.7965 -4.10281e-07 0)
(19.6362 -4.37834e-07 0)
(19.4761 -4.66107e-07 0)
(19.3162 -4.94493e-07 0)
(19.1565 -5.2373e-07 0)
(18.9971 -5.5247e-07 0)
(18.8379 -5.82731e-07 0)
(18.679 -6.117e-07 0)
(18.5204 -6.43461e-07 0)
(18.3622 -6.72776e-07 0)
(18.2043 -7.06815e-07 0)
(18.0468 -7.35038e-07 0)
(17.8898 -7.72124e-07 0)
(17.7331 -7.95576e-07 0)
(17.5769 -8.41503e-07 0)
(17.4212 -8.51967e-07 0)
(17.266 -9.21485e-07 0)
(17.1113 -8.99446e-07 0)
(16.9572 -1.01591e-06 0)
(16.8036 -9.44513e-07 0)
(16.6505 -1.12909e-06 0)
(16.4981 -9.98325e-07 0)
(16.3462 -1.28189e-06 0)
(16.1949 -1.00971e-06 0)
(16.0443 -1.51662e-06 0)
(15.8942 -1.03565e-06 0)
(15.7447 -1.72676e-06 0)
(15.5959 -1.08584e-06 0)
(15.4477 -1.39692e-06 0)
(15.3001 7.24905e-07 0)
(15.1528 1.12479e-05 0)
(15.0042 7.869e-05 0)
(14.8436 0.000524662 0)
(14.6563 0.00680666 0)
(13.628 0.0246344 0)
(42.6584 0.00012762 0)
(42.5563 9.85095e-05 0)
(42.4381 8.65542e-05 0)
(42.3267 8.59216e-05 0)
(42.22 8.58805e-05 0)
(42.1136 8.55477e-05 0)
(42.0063 8.53291e-05 0)
(41.8985 8.51941e-05 0)
(41.7904 8.50802e-05 0)
(41.6821 8.50037e-05 0)
(41.5735 8.49457e-05 0)
(41.4646 8.49031e-05 0)
(41.3555 8.4874e-05 0)
(41.246 8.48559e-05 0)
(41.1362 8.48471e-05 0)
(41.026 8.48456e-05 0)
(40.9155 8.48505e-05 0)
(40.8047 8.48605e-05 0)
(40.6935 8.48749e-05 0)
(40.5819 8.48927e-05 0)
(40.47 8.49138e-05 0)
(40.3578 8.49374e-05 0)
(40.2452 8.49631e-05 0)
(40.1322 8.49911e-05 0)
(40.0189 8.50205e-05 0)
(39.9053 8.5052e-05 0)
(39.7914 8.50843e-05 0)
(39.6771 8.51185e-05 0)
(39.5626 8.5154e-05 0)
(39.4477 8.51904e-05 0)
(39.3326 8.52284e-05 0)
(39.2172 8.52682e-05 0)
(39.1015 8.53081e-05 0)
(38.9855 8.53511e-05 0)
(38.8693 8.53946e-05 0)
(38.7528 8.54405e-05 0)
(38.6361 8.54892e-05 0)
(38.5191 8.55395e-05 0)
(38.4018 8.55945e-05 0)
(38.2841 8.56504e-05 0)
(38.1662 8.57068e-05 0)
(38.048 8.57653e-05 0)
(37.9294 8.58266e-05 0)
(37.8105 8.5892e-05 0)
(37.6911 8.5964e-05 0)
(37.5714 8.60429e-05 0)
(37.4513 8.61278e-05 0)
(37.3307 8.6215e-05 0)
(37.2096 8.63032e-05 0)
(37.0881 8.63906e-05 0)
(36.966 8.64773e-05 0)
(36.8434 8.65671e-05 0)
(36.7203 8.66575e-05 0)
(36.5966 8.67529e-05 0)
(36.4723 8.68501e-05 0)
(36.3475 8.69475e-05 0)
(36.2221 8.70441e-05 0)
(36.096 8.71408e-05 0)
(35.9694 8.72372e-05 0)
(35.8422 8.73323e-05 0)
(35.7144 8.74237e-05 0)
(35.586 8.75052e-05 0)
(35.457 8.75669e-05 0)
(35.3275 8.75982e-05 0)
(35.1975 8.75894e-05 0)
(35.0669 8.75322e-05 0)
(34.9358 8.74167e-05 0)
(34.8042 8.72323e-05 0)
(34.6721 8.69664e-05 0)
(34.5396 8.66028e-05 0)
(34.4067 8.61221e-05 0)
(34.2733 8.5503e-05 0)
(34.1395 8.47229e-05 0)
(34.0054 8.37588e-05 0)
(33.8708 8.25894e-05 0)
(33.7359 8.11957e-05 0)
(33.6006 7.95624e-05 0)
(33.4649 7.76785e-05 0)
(33.3288 7.5538e-05 0)
(33.1924 7.31406e-05 0)
(33.0556 7.04923e-05 0)
(32.9183 6.76055e-05 0)
(32.7807 6.44991e-05 0)
(32.6426 6.11982e-05 0)
(32.5041 5.77332e-05 0)
(32.3652 5.41391e-05 0)
(32.2258 5.04549e-05 0)
(32.0859 4.67217e-05 0)
(31.9455 4.29818e-05 0)
(31.8045 3.92774e-05 0)
(31.6631 3.56488e-05 0)
(31.5211 3.21334e-05 0)
(31.3786 2.87647e-05 0)
(31.2355 2.55712e-05 0)
(31.0918 2.25759e-05 0)
(30.9476 1.97959e-05 0)
(30.8027 1.72423e-05 0)
(30.6573 1.49204e-05 0)
(30.5112 1.28304e-05 0)
(30.3645 1.09679e-05 0)
(30.2172 9.3246e-06 0)
(30.0692 7.88869e-06 0)
(29.9206 6.64585e-06 0)
(29.7714 5.58016e-06 0)
(29.6216 4.67491e-06 0)
(29.4711 3.91298e-06 0)
(29.3201 3.27744e-06 0)
(29.1685 2.75179e-06 0)
(29.0163 2.32061e-06 0)
(28.8636 1.96945e-06 0)
(28.7103 1.68547e-06 0)
(28.5566 1.45709e-06 0)
(28.4023 1.27452e-06 0)
(28.2477 1.12911e-06 0)
(28.0926 1.01355e-06 0)
(27.9371 9.2132e-07 0)
(27.7813 8.47231e-07 0)
(27.6251 7.87149e-07 0)
(27.4686 7.37831e-07 0)
(27.3118 6.96692e-07 0)
(27.1547 6.61503e-07 0)
(26.9974 6.30558e-07 0)
(26.8399 6.02704e-07 0)
(26.6822 5.77162e-07 0)
(26.5242 5.53573e-07 0)
(26.3661 5.31244e-07 0)
(26.2077 5.09666e-07 0)
(26.0492 4.88363e-07 0)
(25.8906 4.67157e-07 0)
(25.7317 4.46257e-07 0)
(25.5727 4.25703e-07 0)
(25.4136 4.0535e-07 0)
(25.2542 3.85148e-07 0)
(25.0948 3.64761e-07 0)
(24.9352 3.44181e-07 0)
(24.7754 3.23351e-07 0)
(24.6155 3.02412e-07 0)
(24.4555 2.81568e-07 0)
(24.2954 2.60762e-07 0)
(24.1352 2.39921e-07 0)
(23.9748 2.18744e-07 0)
(23.8144 1.96929e-07 0)
(23.6539 1.74775e-07 0)
(23.4933 1.51969e-07 0)
(23.3327 1.28545e-07 0)
(23.172 1.04413e-07 0)
(23.0113 7.95254e-08 0)
(22.8505 5.37609e-08 0)
(22.6897 2.66054e-08 0)
(22.5288 -5.08526e-10 0)
(22.368 -2.3695e-08 0)
(22.2071 -4.37666e-08 0)
(22.0462 -6.47055e-08 0)
(21.8853 -8.66611e-08 0)
(21.7244 -1.08958e-07 0)
(21.5635 -1.31948e-07 0)
(21.4025 -1.55025e-07 0)
(21.2416 -1.78594e-07 0)
(21.0807 -2.02345e-07 0)
(20.9198 -2.27517e-07 0)
(20.759 -2.52719e-07 0)
(20.5982 -2.78954e-07 0)
(20.4374 -3.04458e-07 0)
(20.2768 -3.31148e-07 0)
(20.1162 -3.57754e-07 0)
(19.9557 -3.85834e-07 0)
(19.7954 -4.13807e-07 0)
(19.6353 -4.43256e-07 0)
(19.4754 -4.716e-07 0)
(19.3156 -5.03867e-07 0)
(19.1561 -5.31283e-07 0)
(18.9969 -5.66188e-07 0)
(18.8379 -5.91933e-07 0)
(18.6793 -6.31592e-07 0)
(18.521 -6.54432e-07 0)
(18.3631 -7.01903e-07 0)
(18.2056 -7.1554e-07 0)
(18.0484 -7.79657e-07 0)
(17.8917 -7.66902e-07 0)
(17.7355 -8.77698e-07 0)
(17.5797 -7.92613e-07 0)
(17.4245 -1.02368e-06 0)
(17.2697 -7.59259e-07 0)
(17.1155 -1.23477e-06 0)
(16.9619 -6.28808e-07 0)
(16.8088 -1.53501e-06 0)
(16.6563 -3.25586e-07 0)
(16.5043 -2.05663e-06 0)
(16.353 2.6995e-07 0)
(16.2022 -2.9876e-06 0)
(16.0521 1.10584e-06 0)
(15.9026 -3.67755e-06 0)
(15.7537 1.52173e-06 0)
(15.6054 -7.18385e-07 0)
(15.4578 1.75301e-05 0)
(15.3104 0.000106788 0)
(15.1618 0.00071202 0)
(15.0015 0.00452435 0)
(14.8147 0.0319527 0)
(14.0671 0.110459 0)
(42.6584 1.03975e-12 0)
(42.5562 1.64951e-12 0)
(42.438 1.12843e-12 0)
(42.3266 8.11021e-13 0)
(42.22 -4.76331e-13 0)
(42.1136 -3.03623e-12 0)
(42.0063 -6.11183e-12 0)
(41.8984 -5.53704e-12 0)
(41.7903 -3.66687e-12 0)
(41.682 -9.64165e-13 0)
(41.5735 -6.45947e-14 0)
(41.4646 -2.74616e-12 0)
(41.3554 -4.6525e-12 0)
(41.246 -6.83901e-12 0)
(41.1362 -9.4159e-12 0)
(41.026 -1.2742e-11 0)
(40.9155 -1.60061e-11 0)
(40.8047 -1.94538e-11 0)
(40.6935 -2.20203e-11 0)
(40.5819 -2.34256e-11 0)
(40.47 -2.48921e-11 0)
(40.3578 -2.66112e-11 0)
(40.2451 -2.81003e-11 0)
(40.1322 -2.8283e-11 0)
(40.0189 -2.75886e-11 0)
(39.9053 -2.56448e-11 0)
(39.7913 -2.34276e-11 0)
(39.6771 -2.17897e-11 0)
(39.5625 -2.07871e-11 0)
(39.4477 -2.07609e-11 0)
(39.3326 -2.11185e-11 0)
(39.2172 -2.018e-11 0)
(39.1015 -2.13207e-11 0)
(38.9855 -2.26281e-11 0)
(38.8693 -2.22841e-11 0)
(38.7528 -2.30069e-11 0)
(38.6361 -2.41892e-11 0)
(38.5191 -2.40765e-11 0)
(38.4017 -2.35673e-11 0)
(38.2841 -2.2161e-11 0)
(38.1662 -2.11233e-11 0)
(38.048 -1.77474e-11 0)
(37.9294 -1.55816e-11 0)
(37.8105 -1.37759e-11 0)
(37.6911 -1.3549e-11 0)
(37.5714 -1.22846e-11 0)
(37.4513 -1.27248e-11 0)
(37.3307 -1.42496e-11 0)
(37.2096 -1.31921e-11 0)
(37.0881 -9.57126e-12 0)
(36.966 -6.69655e-12 0)
(36.8434 -4.73001e-12 0)
(36.7203 -3.6252e-12 0)
(36.5966 -3.70884e-12 0)
(36.4724 -2.46154e-12 0)
(36.3475 -2.85188e-12 0)
(36.2221 -1.91457e-12 0)
(36.0961 -4.85576e-13 0)
(35.9695 -1.38097e-13 0)
(35.8422 4.2234e-14 0)
(35.7144 -1.05413e-12 0)
(35.5861 -4.18341e-12 0)
(35.4571 -7.07411e-12 0)
(35.3276 -1.031e-11 0)
(35.1975 -1.14122e-11 0)
(35.0669 -1.04435e-11 0)
(34.9359 -1.06534e-11 0)
(34.8043 -1.1514e-11 0)
(34.6722 -1.13281e-11 0)
(34.5397 -1.06804e-11 0)
(34.4068 -1.10443e-11 0)
(34.2734 -1.14127e-11 0)
(34.1396 -1.19808e-11 0)
(34.0055 -1.22343e-11 0)
(33.8709 -1.41114e-11 0)
(33.736 -1.59203e-11 0)
(33.6007 -1.66308e-11 0)
(33.465 -1.88786e-11 0)
(33.3289 -2.17889e-11 0)
(33.1925 -2.65494e-11 0)
(33.0557 -3.13745e-11 0)
(32.9184 -3.6728e-11 0)
(32.7808 -4.17944e-11 0)
(32.6427 -4.45558e-11 0)
(32.5042 -4.55938e-11 0)
(32.3653 -4.36117e-11 0)
(32.2259 -4.1407e-11 0)
(32.0859 -3.86944e-11 0)
(31.9455 -3.63578e-11 0)
(31.8046 -3.43476e-11 0)
(31.6632 -3.18473e-11 0)
(31.5212 -3.00648e-11 0)
(31.3787 -2.6381e-11 0)
(31.2356 -2.3686e-11 0)
(31.0919 -2.22905e-11 0)
(30.9477 -2.13961e-11 0)
(30.8028 -2.0991e-11 0)
(30.6573 -2.09792e-11 0)
(30.5112 -1.97505e-11 0)
(30.3645 -1.8899e-11 0)
(30.2172 -1.70331e-11 0)
(30.0693 -1.66084e-11 0)
(29.9207 -1.49015e-11 0)
(29.7715 -1.37769e-11 0)
(29.6216 -8.66768e-12 0)
(29.4712 -1.24956e-11 0)
(29.3202 -7.18213e-12 0)
(29.1685 -1.56742e-11 0)
(29.0164 -7.12117e-12 0)
(28.8636 -1.21421e-11 0)
(28.7104 1.1277e-11 0)
(28.5566 -7.80176e-12 0)
(28.4024 1.41545e-11 0)
(28.2477 -1.62554e-11 0)
(28.0926 1.34812e-11 0)
(27.9372 -2.81051e-11 0)
(27.7813 1.48347e-11 0)
(27.6251 -3.58516e-11 0)
(27.4686 1.94117e-11 0)
(27.3118 -3.2058e-11 0)
(27.1548 1.90264e-11 0)
(26.9975 -1.86559e-11 0)
(26.84 6.0997e-12 0)
(26.6822 -7.00647e-12 0)
(26.5243 3.92802e-12 0)
(26.3661 2.98e-12 0)
(26.2078 2.05411e-11 0)
(26.0493 4.67641e-13 0)
(25.8906 4.42846e-11 0)
(25.7318 -4.2357e-11 0)
(25.5728 8.92536e-11 0)
(25.4136 -7.5999e-11 0)
(25.2543 8.98223e-11 0)
(25.0948 -6.65701e-11 0)
(24.9352 4.84491e-11 0)
(24.7755 -9.9905e-12 0)
(24.6156 1.07038e-12 0)
(24.4556 8.80459e-12 0)
(24.2954 9.88664e-12 0)
(24.1352 -3.54239e-11 0)
(23.9749 1.19529e-10 0)
(23.8144 -2.13278e-10 0)
(23.6539 2.25786e-10 0)
(23.4934 -1.43389e-10 0)
(23.3327 -2.04596e-11 0)
(23.172 5.08182e-11 0)
(23.0113 6.22085e-11 0)
(22.8505 -2.04449e-10 0)
(22.6897 2.21079e-10 0)
(22.5289 -1.46748e-10 0)
(22.368 8.85033e-11 0)
(22.2072 -1.40008e-10 0)
(22.0463 1.65679e-10 0)
(21.8854 -1.41229e-10 0)
(21.7244 1.20391e-10 0)
(21.5635 -1.47316e-10 0)
(21.4026 2.91327e-10 0)
(21.2417 -6.32095e-10 0)
(21.0808 6.21367e-10 0)
(20.9199 -4.33238e-10 0)
(20.759 1.20605e-09 0)
(20.5982 -1.93862e-09 0)
(20.4375 9.79619e-10 0)
(20.2768 -7.73737e-10 0)
(20.1162 1.85423e-09 0)
(19.9558 -1.82668e-09 0)
(19.7955 1.46753e-09 0)
(19.6354 -2.24229e-09 0)
(19.4754 3.52887e-09 0)
(19.3157 -4.63795e-09 0)
(19.1562 5.33294e-09 0)
(18.9969 -7.51262e-09 0)
(18.838 1.07601e-08 0)
(18.6794 -1.33217e-08 0)
(18.5211 1.80495e-08 0)
(18.3631 -2.59372e-08 0)
(18.2056 3.75749e-08 0)
(18.0485 -5.4129e-08 0)
(17.8918 9.08742e-08 0)
(17.7356 -1.37479e-07 0)
(17.5798 2.30047e-07 0)
(17.4245 -3.78757e-07 0)
(17.2698 5.34251e-07 0)
(17.1156 -9.0753e-07 0)
(16.9619 1.0717e-06 0)
(16.8088 -1.53889e-06 0)
(16.6563 1.83463e-06 0)
(16.5044 -2.29448e-06 0)
(16.353 2.69652e-06 0)
(16.2023 -3.22415e-06 0)
(16.0522 3.83904e-06 0)
(15.9027 -4.27899e-06 0)
(15.7538 5.63498e-06 0)
(15.6055 -9.02874e-07 0)
(15.4579 3.54994e-05 0)
(15.3109 0.000186042 0)
(15.1646 0.00123444 0)
(15.0191 0.00766868 0)
(14.8758 0.0480038 0)
(14.6928 0.158405 0)
(42.6584 -0.00012762 0)
(42.5563 -9.85095e-05 0)
(42.4381 -8.65542e-05 0)
(42.3267 -8.59216e-05 0)
(42.22 -8.58805e-05 0)
(42.1136 -8.55476e-05 0)
(42.0063 -8.53291e-05 0)
(41.8985 -8.51941e-05 0)
(41.7904 -8.50802e-05 0)
(41.6821 -8.50037e-05 0)
(41.5735 -8.49457e-05 0)
(41.4646 -8.49031e-05 0)
(41.3555 -8.4874e-05 0)
(41.246 -8.48559e-05 0)
(41.1362 -8.48471e-05 0)
(41.026 -8.48456e-05 0)
(40.9155 -8.48505e-05 0)
(40.8047 -8.48605e-05 0)
(40.6935 -8.48749e-05 0)
(40.5819 -8.48927e-05 0)
(40.47 -8.49138e-05 0)
(40.3578 -8.49373e-05 0)
(40.2452 -8.49631e-05 0)
(40.1322 -8.49911e-05 0)
(40.0189 -8.50204e-05 0)
(39.9053 -8.5052e-05 0)
(39.7914 -8.50843e-05 0)
(39.6771 -8.51185e-05 0)
(39.5626 -8.5154e-05 0)
(39.4477 -8.51904e-05 0)
(39.3326 -8.52284e-05 0)
(39.2172 -8.52682e-05 0)
(39.1015 -8.53081e-05 0)
(38.9855 -8.53511e-05 0)
(38.8693 -8.53946e-05 0)
(38.7528 -8.54405e-05 0)
(38.6361 -8.54892e-05 0)
(38.5191 -8.55395e-05 0)
(38.4018 -8.55945e-05 0)
(38.2841 -8.56504e-05 0)
(38.1662 -8.57068e-05 0)
(38.048 -8.57653e-05 0)
(37.9294 -8.58266e-05 0)
(37.8105 -8.5892e-05 0)
(37.6911 -8.5964e-05 0)
(37.5714 -8.60429e-05 0)
(37.4513 -8.61278e-05 0)
(37.3307 -8.6215e-05 0)
(37.2096 -8.63032e-05 0)
(37.0881 -8.63906e-05 0)
(36.966 -8.64773e-05 0)
(36.8434 -8.65671e-05 0)
(36.7203 -8.66575e-05 0)
(36.5966 -8.67529e-05 0)
(36.4723 -8.68501e-05 0)
(36.3475 -8.69475e-05 0)
(36.2221 -8.70441e-05 0)
(36.096 -8.71408e-05 0)
(35.9694 -8.72372e-05 0)
(35.8422 -8.73323e-05 0)
(35.7144 -8.74237e-05 0)
(35.586 -8.75052e-05 0)
(35.457 -8.75669e-05 0)
(35.3275 -8.75982e-05 0)
(35.1975 -8.75894e-05 0)
(35.0669 -8.75322e-05 0)
(34.9358 -8.74167e-05 0)
(34.8042 -8.72323e-05 0)
(34.6721 -8.69664e-05 0)
(34.5396 -8.66028e-05 0)
(34.4067 -8.61221e-05 0)
(34.2733 -8.5503e-05 0)
(34.1395 -8.47229e-05 0)
(34.0054 -8.37588e-05 0)
(33.8708 -8.25894e-05 0)
(33.7359 -8.11957e-05 0)
(33.6006 -7.95624e-05 0)
(33.4649 -7.76785e-05 0)
(33.3288 -7.5538e-05 0)
(33.1924 -7.31406e-05 0)
(33.0556 -7.04923e-05 0)
(32.9183 -6.76054e-05 0)
(32.7807 -6.44991e-05 0)
(32.6426 -6.11982e-05 0)
(32.5041 -5.77332e-05 0)
(32.3652 -5.41391e-05 0)
(32.2258 -5.04549e-05 0)
(32.0859 -4.67217e-05 0)
(31.9455 -4.29818e-05 0)
(31.8045 -3.92774e-05 0)
(31.6631 -3.56488e-05 0)
(31.5211 -3.21334e-05 0)
(31.3786 -2.87647e-05 0)
(31.2355 -2.55712e-05 0)
(31.0918 -2.25759e-05 0)
(30.9476 -1.97959e-05 0)
(30.8027 -1.72423e-05 0)
(30.6573 -1.49204e-05 0)
(30.5112 -1.28304e-05 0)
(30.3645 -1.09679e-05 0)
(30.2172 -9.3246e-06 0)
(30.0692 -7.88868e-06 0)
(29.9206 -6.64585e-06 0)
(29.7714 -5.58017e-06 0)
(29.6216 -4.67491e-06 0)
(29.4711 -3.91299e-06 0)
(29.3201 -3.27743e-06 0)
(29.1685 -2.7518e-06 0)
(29.0163 -2.32059e-06 0)
(28.8636 -1.96947e-06 0)
(28.7103 -1.68545e-06 0)
(28.5566 -1.45711e-06 0)
(28.4023 -1.2745e-06 0)
(28.2477 -1.12913e-06 0)
(28.0926 -1.01353e-06 0)
(27.9371 -9.21337e-07 0)
(27.7813 -8.47208e-07 0)
(27.6251 -7.87166e-07 0)
(27.4686 -7.3781e-07 0)
(27.3118 -6.96706e-07 0)
(27.1547 -6.61487e-07 0)
(26.9974 -6.30576e-07 0)
(26.8399 -6.02681e-07 0)
(26.6822 -5.7719e-07 0)
(26.5242 -5.53544e-07 0)
(26.3661 -5.3126e-07 0)
(26.2077 -5.09667e-07 0)
(26.0492 -4.8836e-07 0)
(25.8906 -4.67144e-07 0)
(25.7317 -4.46318e-07 0)
(25.5727 -4.25607e-07 0)
(25.4136 -4.05461e-07 0)
(25.2542 -3.85044e-07 0)
(25.0948 -3.64848e-07 0)
(24.9352 -3.4413e-07 0)
(24.7754 -3.23365e-07 0)
(24.6155 -3.02416e-07 0)
(24.4555 -2.81568e-07 0)
(24.2954 -2.60767e-07 0)
(24.1352 -2.39948e-07 0)
(23.9748 -2.18598e-07 0)
(23.8144 -1.97189e-07 0)
(23.6539 -1.7455e-07 0)
(23.4933 -1.52053e-07 0)
(23.3327 -1.28554e-07 0)
(23.172 -1.04398e-07 0)
(23.0113 -7.94685e-08 0)
(22.8505 -5.39283e-08 0)
(22.6897 -2.63148e-08 0)
(22.5288 3.54136e-10 0)
(22.368 2.37368e-08 0)
(22.2071 4.36294e-08 0)
(22.0462 6.49518e-08 0)
(21.8853 8.65056e-08 0)
(21.7244 1.09111e-07 0)
(21.5635 1.31734e-07 0)
(21.4025 1.55289e-07 0)
(21.2416 1.77939e-07 0)
(21.0807 2.03193e-07 0)
(20.9198 2.27004e-07 0)
(20.759 2.53944e-07 0)
(20.5982 2.76687e-07 0)
(20.4374 3.05633e-07 0)
(20.2768 3.30325e-07 0)
(20.1162 3.59994e-07 0)
(19.9557 3.8368e-07 0)
(19.7954 4.15468e-07 0)
(19.6353 4.40607e-07 0)
(19.4754 4.75834e-07 0)
(19.3156 4.98412e-07 0)
(19.1561 5.37623e-07 0)
(18.9969 5.57069e-07 0)
(18.8379 6.04761e-07 0)
(18.6793 6.15656e-07 0)
(18.521 6.76393e-07 0)
(18.3631 6.70669e-07 0)
(18.2056 7.60731e-07 0)
(18.0484 7.1329e-07 0)
(17.8917 8.76408e-07 0)
(17.7355 7.07735e-07 0)
(17.5797 1.07108e-06 0)
(17.4245 5.7325e-07 0)
(17.2697 1.41067e-06 0)
(17.1155 2.05905e-07 0)
(16.9619 1.93712e-06 0)
(16.8088 -2.4379e-07 0)
(16.6562 2.53058e-06 0)
(16.5043 -6.19699e-07 0)
(16.353 2.94077e-06 0)
(16.2022 -8.12372e-07 0)
(16.0521 3.35916e-06 0)
(15.9026 -1.33401e-06 0)
(15.7537 5.02145e-06 0)
(15.6055 -4.02353e-07 0)
(15.4579 2.3016e-05 0)
(15.3113 0.000104137 0)
(15.167 0.000689384 0)
(15.0343 0.00433894 0)
(14.9197 0.0365199 0)
(15.1668 0.104696 0)
(42.6566 -0.00010064 0)
(42.5527 -9.22761e-05 0)
(42.4327 -9.00264e-05 0)
(42.3196 -9.09681e-05 0)
(42.2111 -9.17351e-05 0)
(42.1029 -9.22007e-05 0)
(41.9938 -9.25615e-05 0)
(41.8841 -9.28401e-05 0)
(41.7742 -9.30402e-05 0)
(41.6641 -9.31984e-05 0)
(41.5538 -9.33203e-05 0)
(41.4431 -9.34153e-05 0)
(41.3321 -9.34911e-05 0)
(41.2209 -9.35525e-05 0)
(41.1092 -9.36034e-05 0)
(40.9973 -9.36462e-05 0)
(40.885 -9.36831e-05 0)
(40.7724 -9.37155e-05 0)
(40.6594 -9.37445e-05 0)
(40.546 -9.37708e-05 0)
(40.4323 -9.37954e-05 0)
(40.3182 -9.38185e-05 0)
(40.2038 -9.38407e-05 0)
(40.089 -9.38624e-05 0)
(39.974 -9.38835e-05 0)
(39.8585 -9.3905e-05 0)
(39.7428 -9.39261e-05 0)
(39.6267 -9.39477e-05 0)
(39.5104 -9.39698e-05 0)
(39.3937 -9.39924e-05 0)
(39.2768 -9.40157e-05 0)
(39.1596 -9.40403e-05 0)
(39.0421 -9.40651e-05 0)
(38.9243 -9.40922e-05 0)
(38.8063 -9.41201e-05 0)
(38.688 -9.415e-05 0)
(38.5695 -9.41825e-05 0)
(38.4506 -9.42168e-05 0)
(38.3315 -9.42551e-05 0)
(38.2121 -9.4295e-05 0)
(38.0923 -9.43363e-05 0)
(37.9723 -9.43797e-05 0)
(37.8519 -9.44259e-05 0)
(37.7311 -9.44757e-05 0)
(37.61 -9.45311e-05 0)
(37.4885 -9.45922e-05 0)
(37.3665 -9.46588e-05 0)
(37.2441 -9.47282e-05 0)
(37.1212 -9.47989e-05 0)
(36.9978 -9.48696e-05 0)
(36.874 -9.49402e-05 0)
(36.7496 -9.50131e-05 0)
(36.6246 -9.5087e-05 0)
(36.4991 -9.51645e-05 0)
(36.373 -9.52436e-05 0)
(36.2463 -9.53231e-05 0)
(36.1191 -9.54016e-05 0)
(35.9912 -9.5479e-05 0)
(35.8628 -9.55547e-05 0)
(35.7337 -9.56272e-05 0)
(35.6041 -9.5694e-05 0)
(35.4739 -9.57494e-05 0)
(35.3431 -9.57848e-05 0)
(35.2117 -9.57899e-05 0)
(35.0798 -9.57549e-05 0)
(34.9474 -9.56699e-05 0)
(34.8145 -9.55239e-05 0)
(34.6811 -9.53042e-05 0)
(34.5472 -9.49963e-05 0)
(34.4129 -9.45825e-05 0)
(34.2781 -9.40424e-05 0)
(34.1429 -9.33531e-05 0)
(34.0074 -9.24909e-05 0)
(33.8715 -9.14318e-05 0)
(33.7352 -9.01528e-05 0)
(33.5985 -8.86333e-05 0)
(33.4616 -8.68564e-05 0)
(33.3242 -8.48094e-05 0)
(33.1866 -8.24852e-05 0)
(33.0486 -7.98823e-05 0)
(32.9103 -7.70061e-05 0)
(32.7716 -7.38691e-05 0)
(32.6326 -7.0491e-05 0)
(32.4932 -6.68979e-05 0)
(32.3535 -6.31222e-05 0)
(32.2133 -5.92016e-05 0)
(32.0728 -5.5178e-05 0)
(31.9319 -5.10959e-05 0)
(31.7906 -4.70017e-05 0)
(31.6488 -4.29413e-05 0)
(31.5066 -3.89592e-05 0)
(31.364 -3.50967e-05 0)
(31.2208 -3.13911e-05 0)
(31.0772 -2.78743e-05 0)
(30.933 -2.45726e-05 0)
(30.7884 -2.15054e-05 0)
(30.6432 -1.86861e-05 0)
(30.4974 -1.61213e-05 0)
(30.351 -1.38123e-05 0)
(30.2041 -1.17548e-05 0)
(30.0566 -9.94005e-06 0)
(29.9085 -8.35561e-06 0)
(29.7598 -6.98592e-06 0)
(29.6105 -5.8135e-06 0)
(29.4606 -4.81976e-06 0)
(29.3101 -3.98564e-06 0)
(29.159 -3.29218e-06 0)
(29.0074 -2.721e-06 0)
(28.8552 -2.25477e-06 0)
(28.7025 -1.87745e-06 0)
(28.5492 -1.57452e-06 0)
(28.3955 -1.33313e-06 0)
(28.2412 -1.14215e-06 0)
(28.0866 -9.91966e-07 0)
(27.9315 -8.74294e-07 0)
(27.776 -7.82036e-07 0)
(27.6202 -7.09405e-07 0)
(27.4641 -6.5184e-07 0)
(27.3076 -6.05769e-07 0)
(27.1508 -5.68326e-07 0)
(26.9938 -5.37186e-07 0)
(26.8365 -5.10502e-07 0)
(26.679 -4.86999e-07 0)
(26.5213 -4.65905e-07 0)
(26.3634 -4.46597e-07 0)
(26.2053 -4.28554e-07 0)
(26.047 -4.11121e-07 0)
(25.8885 -3.93878e-07 0)
(25.7299 -3.7667e-07 0)
(25.571 -3.59568e-07 0)
(25.4121 -3.42567e-07 0)
(25.2529 -3.2569e-07 0)
(25.0937 -3.08672e-07 0)
(24.9342 -2.91454e-07 0)
(24.7746 -2.73856e-07 0)
(24.6149 -2.55958e-07 0)
(24.4551 -2.37858e-07 0)
(24.2951 -2.19721e-07 0)
(24.135 -2.01578e-07 0)
(23.9748 -1.83329e-07 0)
(23.8145 -1.6476e-07 0)
(23.6541 -1.45825e-07 0)
(23.4936 -1.26415e-07 0)
(23.3331 -1.06655e-07 0)
(23.1725 -8.64888e-08 0)
(23.0119 -6.59575e-08 0)
(22.8512 -4.50746e-08 0)
(22.6904 -2.39993e-08 0)
(22.5297 -2.90553e-09 0)
(22.3689 1.763e-08 0)
(22.208 3.91952e-08 0)
(22.0472 6.0868e-08 0)
(21.8864 8.32273e-08 0)
(21.7255 1.06099e-07 0)
(21.5646 1.29552e-07 0)
(21.4037 1.53314e-07 0)
(21.2428 1.77339e-07 0)
(21.082 2.0164e-07 0)
(20.9211 2.26615e-07 0)
(20.7603 2.51866e-07 0)
(20.5995 2.77826e-07 0)
(20.4387 3.03624e-07 0)
(20.278 3.30294e-07 0)
(20.1174 3.56576e-07 0)
(19.9569 3.83556e-07 0)
(19.7965 4.09958e-07 0)
(19.6362 4.38035e-07 0)
(19.4761 4.65699e-07 0)
(19.3162 4.95204e-07 0)
(19.1565 5.2292e-07 0)
(18.9971 5.53474e-07 0)
(18.8379 5.81107e-07 0)
(18.679 6.13773e-07 0)
(18.5204 6.40831e-07 0)
(18.3622 6.76715e-07 0)
(18.2043 7.01503e-07 0)
(18.0468 7.42694e-07 0)
(17.8898 7.59836e-07 0)
(17.7331 8.14305e-07 0)
(17.5769 8.08857e-07 0)
(17.4212 9.00649e-07 0)
(17.266 8.49424e-07 0)
(17.1113 1.01727e-06 0)
(16.9572 8.93684e-07 0)
(16.8036 1.18252e-06 0)
(16.6506 8.87324e-07 0)
(16.4981 1.37113e-06 0)
(16.3462 8.9695e-07 0)
(16.1949 1.52749e-06 0)
(16.0443 9.3627e-07 0)
(15.8942 1.6665e-06 0)
(15.7448 9.88553e-07 0)
(15.5959 2.00163e-06 0)
(15.4478 1.17758e-06 0)
(15.3002 4.37126e-06 0)
(15.1537 1.39004e-05 0)
(15.0096 9.01842e-05 0)
(14.8787 0.000688091 0)
(14.7723 0.0147716 0)
(15.959 0.0412966 0)
(13.1527 0.482348 -3.49302e-15)
(12.7914 1.36737 6.99178e-15)
(12.6674 2.3335 -1.31064e-14)
(12.5964 3.30811 2.70692e-14)
(12.5366 4.31007 -2.79103e-14)
(12.4421 5.36464 -1.74251e-15)
(12.12 6.36218 -6.73052e-20)
(11.4868 7.14885 -2.44015e-14)
(10.602 7.70261 -1.13415e-13)
(9.61181 8.1436 1.11872e-13)
(9.00457 8.92597 -2.79322e-14)
(9.08189 10.6167 -5.71957e-14)
(9.4954 13.1955 2.91924e-14)
(9.54757 15.9168 0)
(8.73078 17.602 2.72894e-14)
(7.31909 17.7572 2.72951e-14)
(5.70746 17.0196 -2.73902e-14)
(4.15072 15.8739 2.7529e-14)
(2.73662 14.3708 2.1641e-16)
(1.54955 13.7297 -2.16611e-16)
(13.8115 0.684966 0)
(13.6237 1.72924 0)
(13.5088 2.87341 -1.78373e-15)
(13.4086 4.01192 -3.56337e-15)
(13.3225 5.15277 8.89299e-15)
(13.1779 6.42039 1.776e-14)
(12.7068 7.80597 0)
(11.8528 8.97377 1.06563e-14)
(10.7082 9.86085 1.77673e-14)
(9.51233 10.3415 -4.27187e-14)
(9.04851 10.4671 2.84754e-14)
(9.38995 11.2044 1.41287e-14)
(9.81897 13.1072 -1.39966e-14)
(9.52497 16.0218 1.39006e-14)
(7.88356 18.9235 0)
(5.71588 20.0623 -1.73616e-15)
(3.4487 19.9646 1.73611e-15)
(1.2622 19.0836 -6.09323e-15)
(-0.610079 17.3037 -8.75438e-16)
(-0.283701 15.2842 0)
(14.6457 0.256041 -4.70074e-17)
(14.6526 0.380764 -2.38813e-14)
(14.7307 0.516454 2.4258e-14)
(14.8632 0.669419 -2.33226e-14)
(15.0323 0.850952 -2.55883e-14)
(15.2419 1.06066 9.5241e-14)
(15.5176 1.32208 -4.82086e-14)
(15.8275 1.72798 4.67139e-14)
(16.1037 2.3282 -9.49427e-14)
(16.2689 3.13512 1.50631e-15)
(16.1775 4.1346 4.67403e-14)
(15.813 5.14407 0)
(15.4623 5.90448 -4.6838e-14)
(15.4885 6.36069 4.69237e-14)
(15.9305 6.80538 -3.79047e-16)
(16.2935 7.61258 0)
(16.2714 8.74048 3.79193e-16)
(15.834 10.0391 0)
(14.994 11.4125 0)
(13.7705 12.7506 0)
(15.1236 0.794483 7.67583e-16)
(14.922 1.97281 -7.68681e-15)
(14.6405 3.35618 -1.53674e-15)
(14.3572 4.74971 3.06895e-15)
(14.069 6.12453 -3.06283e-15)
(13.7419 7.48286 5.41241e-20)
(13.3462 8.81922 -1.21916e-14)
(12.8622 10.1249 0)
(12.278 11.3931 0)
(11.5879 12.6175 -6.04954e-15)
(10.7916 13.7909 6.03413e-15)
(9.89078 14.909 0)
(8.88363 15.966 -6.00402e-15)
(7.76338 16.9469 5.99145e-15)
(6.52415 17.8289 -5.98003e-15)
(5.1808 18.5912 1.19387e-14)
(3.76206 19.2311 -5.95938e-15)
(2.2926 19.7548 0)
(0.801659 20.1783 -2.96932e-15)
(-0.629423 20.549 0)
(16.2754 0.684526 -1.19124e-15)
(16.5024 1.7284 9.13124e-15)
(16.4215 2.93322 6.34777e-15)
(16.2307 4.15724 1.26802e-14)
(16.0297 5.40509 0)
(15.7982 6.68957 0)
(15.4986 8.00162 1.26109e-14)
(15.1072 9.32673 3.14568e-15)
(14.6097 10.6521 -6.27696e-15)
(13.9978 11.967 3.13117e-15)
(13.2683 13.2621 2.49902e-14)
(12.4237 14.5259 -1.55812e-14)
(11.4686 15.7377 1.55447e-14)
(10.4046 16.8677 -3.10222e-15)
(9.22848 17.8879 -1.23861e-14)
(7.93927 18.7853 -2.16421e-14)
(6.54669 19.557 -1.08062e-14)
(5.07047 20.1938 -1.54208e-15)
(3.55251 20.6515 8.86468e-15)
(2.09081 20.79 3.85499e-16)
(0.373287 20.287 0)
(0.33964 25.3713 0)
(0.543613 26.3231 0)
(0.601697 25.0817 0)
(0.53365 25.0437 0)
(0.520759 26.614 0)
(0.64712 27.6495 0)
(0.714589 27.4305 0)
(0.673201 27.4278 0)
(0.679175 28.2887 0)
(0.777101 28.7813 0)
(0.817476 28.4209 0)
(0.791862 28.2205 0)
(0.754204 28.9335 0)
(0.831372 29.6697 0)
(0.891462 29.5628 0)
(0.918038 28.9583 0)
(0.917679 28.5401 0)
(0.842934 29.0079 0)
(0.8805 29.8525 0)
(0.95609 29.9956 0)
(0.990202 29.5868 0)
(1.00571 29.1178 0)
(0.992454 28.9354 0)
(0.981978 29.1454 0)
(1.01334 29.2949 0)
(1.03713 29.1459 0)
(1.05082 28.9032 0)
(1.05875 28.6991 0)
(1.06347 28.5319 0)
(1.0663 28.3863 0)
(1.06809 28.2523 0)
(1.06921 28.1214 0)
(1.06978 27.9838 0)
(1.0698 27.8244 0)
(1.0678 27.6202 0)
(1.06271 27.4194 0)
(1.03218 27.4561 0)
(1.03858 27.6461 0)
(1.05757 27.6323 0)
(1.06615 27.4657 0)
(1.06931 27.2973 0)
(1.07022 27.1533 0)
(1.06992 27.0235 0)
(1.06907 26.9021 0)
(1.06793 26.7861 0)
(1.06657 26.6735 0)
(1.065 26.5632 0)
(1.06323 26.4546 0)
(1.06125 26.3472 0)
(1.05912 26.2412 0)
(1.05689 26.1366 0)
(1.05458 26.0333 0)
(1.05224 25.931 0)
(1.04987 25.8295 0)
(1.04753 25.7285 0)
(1.04522 25.6279 0)
(1.04299 25.5276 0)
(1.04085 25.4273 0)
(1.03881 25.3269 0)
(1.03689 25.2264 0)
(1.03507 25.1257 0)
(1.03335 25.0249 0)
(1.03171 24.9239 0)
(1.03013 24.823 0)
(1.02858 24.7222 0)
(1.02702 24.6217 0)
(1.02542 24.5217 0)
(1.02372 24.4223 0)
(1.02189 24.3238 0)
(1.01987 24.2262 0)
(1.0176 24.1297 0)
(1.01501 24.0343 0)
(1.01201 23.9402 0)
(1.00849 23.8473 0)
(1.00434 23.7556 0)
(0.999396 23.6651 0)
(0.993489 23.5753 0)
(0.986425 23.4858 0)
(0.977988 23.3959 0)
(0.967945 23.3047 0)
(0.95605 23.2104 0)
(0.942061 23.1108 0)
(0.92575 23.0017 0)
(0.906938 22.876 0)
(0.885553 22.7206 0)
(0.861616 22.5095 0)
(0.834869 22.199 0)
(0.799145 21.7395 0)
(0.74047 21.4682 0)
(0.628526 22.0554 0)
(0.606256 23.0068 0)
(0.625737 23.2499 0)
(0.622289 22.9163 0)
(0.595442 22.5064 0)
(0.559814 22.1369 0)
(0.520953 21.7853 0)
(0.481164 21.4378 0)
(0.441677 21.0891 0)