/*--------------------------------*- C++ -*----------------------------------*\
| =========                 |                                                 |
| \\      /  F ield         | OpenFOAM: The Open Source CFD Toolbox           |
|  \\    /   O peration     | Version:  3.0.x                                 |
|   \\  /    A nd           | Web:      www.OpenFOAM.org                      |
|    \\/     M anipulation  |                                                 |
\*---------------------------------------------------------------------------*/
FoamFile
{
    version     2.0;
    format      ascii;
    class       volVectorField;
    location    "0.58";
    object      U;
}
// * * * * * * * * * * * * * * * * * * * * * * * * * * * * * * * * * * * * * //

dimensions      [0 1 -1 0 0 0 0];

internalField   nonuniform List<vector> 
13800
(
(42.5664 0.000133957 0)
(42.2369 0.000118153 0)
(41.8484 0.000118624 0)
(41.4819 0.000122081 0)
(41.1357 0.000125245 0)
(40.7931 0.000128079 0)
(40.448 0.000130557 0)
(40.1015 0.000132686 0)
(39.7551 0.0001345 0)
(39.4093 0.000136031 0)
(39.0639 0.000137306 0)
(38.7189 0.000138341 0)
(38.3743 0.000139181 0)
(38.0301 0.000139816 0)
(37.6865 0.000140315 0)
(37.3433 0.000140756 0)
(37.0007 0.000141193 0)
(36.6586 0.00014112 0)
(36.3172 0.000141584 0)
(35.9764 0.000141738 0)
(35.6362 0.000141928 0)
(35.2968 0.000142111 0)
(34.9582 0.000142311 0)
(34.6203 0.000142404 0)
(34.2831 0.000142492 0)
(33.9469 0.000142492 0)
(33.6115 0.000142435 0)
(33.2769 0.000142478 0)
(32.9433 0.000142199 0)
(32.6107 0.000142283 0)
(32.279 0.000142159 0)
(31.9483 0.000142209 0)
(31.6186 0.000142191 0)
(31.29 0.000142305 0)
(30.9625 0.000142312 0)
(30.6361 0.000142409 0)
(30.3108 0.0001423 0)
(29.9867 0.000142935 0)
(29.6638 0.000141919 0)
(29.3421 0.000142459 0)
(29.0216 0.000142136 0)
(28.7024 0.000142249 0)
(28.3844 0.000142168 0)
(28.0678 0.000142189 0)
(27.7525 0.000142145 0)
(27.4386 0.000142194 0)
(27.1261 0.000142532 0)
(26.8149 0.00014195 0)
(26.5052 0.000142668 0)
(26.1969 0.000142018 0)
(25.8901 0.000142142 0)
(25.5847 0.000142337 0)
(25.2809 0.000142286 0)
(24.9786 0.000141967 0)
(24.6778 0.000142081 0)
(24.3786 0.000142029 0)
(24.081 0.000142191 0)
(23.7849 0.000141802 0)
(23.4905 0.000142505 0)
(23.1977 0.000141655 0)
(22.9066 0.000142389 0)
(22.6172 0.000141774 0)
(22.3294 0.00014177 0)
(22.0433 0.00014191 0)
(21.7589 0.000141765 0)
(21.4763 0.000141669 0)
(21.1954 0.000141642 0)
(20.9163 0.000141658 0)
(20.6389 0.000141465 0)
(20.3633 0.000141431 0)
(20.0895 0.000141171 0)
(19.8176 0.000140806 0)
(19.5474 0.000140325 0)
(19.2791 0.000139774 0)
(19.0127 0.000139103 0)
(18.7482 0.000138152 0)
(18.4855 0.000136965 0)
(18.2247 0.000135571 0)
(17.9659 0.000133922 0)
(17.709 0.000131933 0)
(17.4541 0.00012957 0)
(17.2012 0.000126788 0)
(16.9502 0.000123561 0)
(16.7013 0.000119918 0)
(16.4545 0.000115852 0)
(16.2097 0.000111381 0)
(15.9669 0.000106509 0)
(15.7263 0.000101236 0)
(15.4878 9.56104e-05 0)
(15.2514 8.96579e-05 0)
(15.0172 8.34589e-05 0)
(14.7851 7.70995e-05 0)
(14.5551 7.05961e-05 0)
(14.3274 6.40411e-05 0)
(14.1018 5.74734e-05 0)
(13.8784 5.11068e-05 0)
(13.6571 4.4885e-05 0)
(13.438 3.9038e-05 0)
(13.2211 3.35412e-05 0)
(13.0063 2.81531e-05 0)
(12.7937 2.34053e-05 0)
(12.5832 1.87982e-05 0)
(12.3749 1.4627e-05 0)
(12.1686 1.07516e-05 0)
(11.9645 7.89158e-06 0)
(11.7624 4.67978e-06 0)
(11.5624 2.24366e-06 0)
(11.3645 -2.30222e-07 0)
(11.1687 -1.87798e-06 0)
(10.9749 -3.66575e-06 0)
(10.7832 -4.76299e-06 0)
(10.5935 -5.71803e-06 0)
(10.4059 -6.92634e-06 0)
(10.2203 -7.48412e-06 0)
(10.0367 -8.40793e-06 0)
(9.85514 -8.55368e-06 0)
(9.67559 -8.98325e-06 0)
(9.49805 -9.01854e-06 0)
(9.32252 -9.4032e-06 0)
(9.14898 -9.2071e-06 0)
(8.97744 -9.38516e-06 0)
(8.80789 -9.58802e-06 0)
(8.64034 -9.66158e-06 0)
(8.47477 -9.66392e-06 0)
(8.31119 -9.62458e-06 0)
(8.14958 -9.49261e-06 0)
(7.98994 -9.36201e-06 0)
(7.83226 -9.32948e-06 0)
(7.67655 -9.39251e-06 0)
(7.5228 -9.5205e-06 0)
(7.37102 -9.61543e-06 0)
(7.22119 -9.83461e-06 0)
(7.0733 -9.8131e-06 0)
(6.92735 -1.01619e-05 0)
(6.78333 -9.81889e-06 0)
(6.64124 -9.99523e-06 0)
(6.50106 -9.96085e-06 0)
(6.36279 -9.82035e-06 0)
(6.22641 -9.73685e-06 0)
(6.09193 -9.71305e-06 0)
(5.95934 -9.7152e-06 0)
(5.82863 -9.70498e-06 0)
(5.69978 -9.68866e-06 0)
(5.57281 -9.7439e-06 0)
(5.44769 -9.84229e-06 0)
(5.32444 -1.0031e-05 0)
(5.20303 -1.00863e-05 0)
(5.08346 -1.00709e-05 0)
(4.96571 -1.00342e-05 0)
(4.84978 -1.0057e-05 0)
(4.73566 -1.00526e-05 0)
(4.62334 -9.8336e-06 0)
(4.5128 -9.46947e-06 0)
(4.40404 -9.19832e-06 0)
(4.29703 -9.12988e-06 0)
(4.19179 -9.34994e-06 0)
(4.0883 -9.71759e-06 0)
(3.98655 -9.97426e-06 0)
(3.88653 -9.9403e-06 0)
(3.78824 -9.83506e-06 0)
(3.69163 -9.72133e-06 0)
(3.59672 -9.75626e-06 0)
(3.50349 -9.84295e-06 0)
(3.41194 -9.92891e-06 0)
(3.32204 -1.00813e-05 0)
(3.23378 -9.94803e-06 0)
(3.14715 -9.78131e-06 0)
(3.06214 -9.82951e-06 0)
(2.97872 -9.91501e-06 0)
(2.89689 -9.78785e-06 0)
(2.81663 -9.61641e-06 0)
(2.73793 -9.75314e-06 0)
(2.66077 -9.82682e-06 0)
(2.58515 -1.01084e-05 0)
(2.51105 -1.00859e-05 0)
(2.43843 -1.00513e-05 0)
(2.36729 -9.59793e-06 0)
(2.29761 -9.53125e-06 0)
(2.22937 -9.26125e-06 0)
(2.16257 -9.62876e-06 0)
(2.09718 -9.59854e-06 0)
(2.03319 -9.67658e-06 0)
(1.97058 -9.23434e-06 0)
(1.90931 -9.37906e-06 0)
(1.84941 -9.49694e-06 0)
(1.79081 -1.01718e-05 0)
(1.73358 -9.67344e-06 0)
(1.67756 -1.0192e-05 0)
(1.62289 -9.54934e-06 0)
(1.56938 -1.04171e-05 0)
(1.5172 -8.92662e-06 0)
(1.46612 -9.94198e-06 0)
(1.41634 -9.02884e-06 0)
(1.36755 -8.05949e-06 0)
(1.31984 7.64502e-07 0)
(1.27228 3.58533e-05 0)
(1.22371 0.000193948 0)
(1.15041 0.000457305 0)
(1.10607 0.00664511 0)
(0.420526 0.0135532 0)
(42.5701 0.000210118 0)
(42.2443 0.000156175 0)
(41.8596 0.000147226 0)
(41.497 0.00014716 0)
(41.1546 0.000147301 0)
(40.8159 0.000147754 0)
(40.4749 0.000148365 0)
(40.1324 0.00014898 0)
(39.79 0.000149549 0)
(39.4483 0.000150047 0)
(39.1071 0.000150455 0)
(38.7662 0.000150746 0)
(38.4257 0.000150956 0)
(38.0857 0.000151037 0)
(37.7462 0.000151082 0)
(37.4072 0.000151164 0)
(37.0688 0.000151348 0)
(36.7309 0.000150748 0)
(36.3936 0.000151219 0)
(36.057 0.00015106 0)
(35.7211 0.000150967 0)
(35.3859 0.000150863 0)
(35.0514 0.000150834 0)
(34.7177 0.000150672 0)
(34.3848 0.00015065 0)
(34.0527 0.000150564 0)
(33.7215 0.000150529 0)
(33.3911 0.000150725 0)
(33.0617 0.000150343 0)
(32.7332 0.000150627 0)
(32.4057 0.000150411 0)
(32.0792 0.000150454 0)
(31.7537 0.000150303 0)
(31.4293 0.000150343 0)
(31.106 0.000150183 0)
(30.7837 0.000150255 0)
(30.4626 0.000150008 0)
(30.1427 0.000151192 0)
(29.824 0.000149328 0)
(29.5064 0.000150516 0)
(29.1901 0.000150072 0)
(28.8751 0.000150469 0)
(28.5613 0.000150425 0)
(28.2489 0.000150487 0)
(27.9378 0.000150334 0)
(27.628 0.000150301 0)
(27.3196 0.00015079 0)
(27.0127 0.000149609 0)
(26.7071 0.000150951 0)
(26.403 0.000149787 0)
(26.1003 0.000150168 0)
(25.7992 0.000150645 0)
(25.4995 0.000150603 0)
(25.2013 0.000150007 0)
(24.9047 0.000150161 0)
(24.6097 0.000149997 0)
(24.3162 0.000150223 0)
(24.0244 0.000149518 0)
(23.7341 0.000150827 0)
(23.4455 0.000149348 0)
(23.1585 0.000150709 0)
(22.8732 0.000149687 0)
(22.5896 0.000149693 0)
(22.3077 0.000150002 0)
(22.0274 0.000149815 0)
(21.749 0.000149562 0)
(21.4722 0.000149567 0)
(21.1972 0.000149653 0)
(20.924 0.000149384 0)
(20.6525 0.000149442 0)
(20.3829 0.000149154 0)
(20.1151 0.000148813 0)
(19.849 0.000148338 0)
(19.5848 0.000147796 0)
(19.3225 0.000147093 0)
(19.062 0.000145974 0)
(18.8034 0.000144568 0)
(18.5466 0.000142929 0)
(18.2917 0.000140962 0)
(18.0387 0.000138537 0)
(17.7876 0.000135669 0)
(17.5384 0.000132368 0)
(17.2912 0.000128657 0)
(17.0458 0.000124612 0)
(16.8024 0.00012019 0)
(16.5609 0.000115382 0)
(16.3214 0.000110146 0)
(16.0838 0.000104437 0)
(15.8481 9.82933e-05 0)
(15.6145 9.17222e-05 0)
(15.3827 8.48653e-05 0)
(15.153 7.7892e-05 0)
(14.9252 7.08508e-05 0)
(14.6994 6.3897e-05 0)
(14.4756 5.69918e-05 0)
(14.2537 5.03601e-05 0)
(14.0338 4.37588e-05 0)
(13.816 3.75302e-05 0)
(13.6001 3.16247e-05 0)
(13.3862 2.57616e-05 0)
(13.1743 2.08071e-05 0)
(12.9644 1.59775e-05 0)
(12.7565 1.16996e-05 0)
(12.5506 7.74209e-06 0)
(12.3467 5.09714e-06 0)
(12.1448 1.99196e-06 0)
(11.9449 2.70136e-07 0)
(11.747 -2.05011e-06 0)
(11.5512 -3.61887e-06 0)
(11.3573 -5.48555e-06 0)
(11.1655 -6.48657e-06 0)
(10.9756 -7.4158e-06 0)
(10.7877 -8.7718e-06 0)
(10.6019 -9.27374e-06 0)
(10.4181 -1.03626e-05 0)
(10.2362 -1.04196e-05 0)
(10.0564 -1.09699e-05 0)
(9.87859 -1.09723e-05 0)
(9.70276 -1.1461e-05 0)
(9.52892 -1.11663e-05 0)
(9.35708 -1.13875e-05 0)
(9.18724 -1.16642e-05 0)
(9.01938 -1.1734e-05 0)
(8.8535 -1.17061e-05 0)
(8.68961 -1.16739e-05 0)
(8.5277 -1.15295e-05 0)
(8.36776 -1.13752e-05 0)
(8.20979 -1.13753e-05 0)
(8.05378 -1.14558e-05 0)
(7.89973 -1.15856e-05 0)
(7.74764 -1.16917e-05 0)
(7.5975 -1.19823e-05 0)
(7.4493 -1.1899e-05 0)
(7.30303 -1.23908e-05 0)
(7.1587 -1.19065e-05 0)
(7.01629 -1.21488e-05 0)
(6.8758 -1.21009e-05 0)
(6.73721 -1.19125e-05 0)
(6.60053 -1.18224e-05 0)
(6.46574 -1.18023e-05 0)
(6.33284 -1.18201e-05 0)
(6.20182 -1.17938e-05 0)
(6.07267 -1.18092e-05 0)
(5.94539 -1.18413e-05 0)
(5.81996 -1.20135e-05 0)
(5.69639 -1.21515e-05 0)
(5.57467 -1.22393e-05 0)
(5.45477 -1.22024e-05 0)
(5.33671 -1.21937e-05 0)
(5.22046 -1.22195e-05 0)
(5.10603 -1.2185e-05 0)
(4.99339 -1.21523e-05 0)
(4.88255 -1.19908e-05 0)
(4.77349 -1.17983e-05 0)
(4.6662 -1.14014e-05 0)
(4.56066 -1.13016e-05 0)
(4.45687 -1.15376e-05 0)
(4.35482 -1.16965e-05 0)
(4.25449 -1.17432e-05 0)
(4.15588 -1.16926e-05 0)
(4.05897 -1.17046e-05 0)
(3.96375 -1.17493e-05 0)
(3.87021 -1.18931e-05 0)
(3.77835 -1.20489e-05 0)
(3.68814 -1.20916e-05 0)
(3.59957 -1.21008e-05 0)
(3.51263 -1.18813e-05 0)
(3.4273 -1.18805e-05 0)
(3.34358 -1.19458e-05 0)
(3.26144 -1.18021e-05 0)
(3.18088 -1.1622e-05 0)
(3.10188 -1.17236e-05 0)
(3.02441 -1.19305e-05 0)
(2.94847 -1.20568e-05 0)
(2.87405 -1.20705e-05 0)
(2.80112 -1.20984e-05 0)
(2.72968 -1.16136e-05 0)
(2.6597 -1.13599e-05 0)
(2.59117 -1.11499e-05 0)
(2.52407 -1.16836e-05 0)
(2.45839 -1.15578e-05 0)
(2.39409 -1.17159e-05 0)
(2.33119 -1.09171e-05 0)
(2.26963 -1.14451e-05 0)
(2.20944 -1.12992e-05 0)
(2.15053 -1.25643e-05 0)
(2.09298 -1.08524e-05 0)
(2.03666 -1.24963e-05 0)
(1.98168 -1.0934e-05 0)
(1.92787 -1.32595e-05 0)
(1.87538 -9.91742e-06 0)
(1.824 -1.24053e-05 0)
(1.77391 -8.10893e-06 0)
(1.72484 -2.86193e-06 0)
(1.67682 2.91305e-05 0)
(1.62891 0.000155886 0)
(1.57979 0.000701225 0)
(1.50596 0.00214443 0)
(1.44449 0.0166183 0)
(0.84015 0.019968 0)
(42.5701 0.000154402 0)
(42.2443 0.000108992 0)
(41.8596 0.000105474 0)
(41.4969 0.000109534 0)
(41.1546 0.000111757 0)
(40.8159 0.000113523 0)
(40.4749 0.000115142 0)
(40.1324 0.00011657 0)
(39.79 0.000117814 0)
(39.4483 0.000118883 0)
(39.1071 0.000119772 0)
(38.7662 0.000120466 0)
(38.4258 0.000121001 0)
(38.0858 0.000121355 0)
(37.7463 0.000121623 0)
(37.4073 0.000121859 0)
(37.0688 0.000122141 0)
(36.731 0.000121841 0)
(36.3937 0.000122372 0)
(36.0571 0.000122417 0)
(35.7212 0.000122509 0)
(35.386 0.000122648 0)
(35.0515 0.000122793 0)
(34.7178 0.000122902 0)
(34.3849 0.000122926 0)
(34.0528 0.000123034 0)
(33.7216 0.000122859 0)
(33.3913 0.000123045 0)
(33.0619 0.000122589 0)
(32.7334 0.00012273 0)
(32.4059 0.000122632 0)
(32.0794 0.000122739 0)
(31.754 0.000122744 0)
(31.4295 0.000123021 0)
(31.1062 0.000123035 0)
(30.784 0.000123125 0)
(30.4629 0.00012291 0)
(30.143 0.000123854 0)
(29.8243 0.000122093 0)
(29.5067 0.000122939 0)
(29.1905 0.00012252 0)
(28.8754 0.000122806 0)
(28.5617 0.000122822 0)
(28.2493 0.000123002 0)
(27.9382 0.000123038 0)
(27.6285 0.000123173 0)
(27.3201 0.000123695 0)
(27.0131 0.000122716 0)
(26.7076 0.000123851 0)
(26.4035 0.000122786 0)
(26.1009 0.000123101 0)
(25.7997 0.000123542 0)
(25.5001 0.000123556 0)
(25.202 0.000123151 0)
(24.9054 0.000123433 0)
(24.6103 0.000123374 0)
(24.3169 0.000123745 0)
(24.0251 0.000123014 0)
(23.7348 0.000124493 0)
(23.4462 0.000122617 0)
(23.1593 0.000124158 0)
(22.874 0.000122363 0)
(22.5904 0.000122725 0)
(22.3085 0.000122605 0)
(22.0283 0.000122184 0)
(21.7499 0.000122765 0)
(21.4731 0.000122617 0)
(21.1982 0.000122754 0)
(20.925 0.000122675 0)
(20.6536 0.000122862 0)
(20.3839 0.000122579 0)
(20.1161 0.000122137 0)
(19.8501 0.000121534 0)
(19.586 0.000120864 0)
(19.3236 0.000120156 0)
(19.0632 0.000119226 0)
(18.8046 0.000118179 0)
(18.5478 0.000116963 0)
(18.293 0.000115423 0)
(18.04 0.000113401 0)
(17.7889 0.000110941 0)
(17.5397 0.000108077 0)
(17.2925 0.000104882 0)
(17.0471 0.000101459 0)
(16.8037 9.77702e-05 0)
(16.5622 9.37817e-05 0)
(16.3226 8.94207e-05 0)
(16.085 8.46152e-05 0)
(15.8494 7.94026e-05 0)
(15.6156 7.37939e-05 0)
(15.3839 6.79432e-05 0)
(15.1541 6.19955e-05 0)
(14.9263 5.60054e-05 0)
(14.7005 5.01322e-05 0)
(14.4766 4.43802e-05 0)
(14.2547 3.8954e-05 0)
(14.0348 3.36643e-05 0)
(13.8169 2.87467e-05 0)
(13.601 2.40826e-05 0)
(13.387 1.94746e-05 0)
(13.1751 1.55176e-05 0)
(12.9652 1.16911e-05 0)
(12.7572 8.2995e-06 0)
(12.5513 5.23773e-06 0)
(12.3474 3.11794e-06 0)
(12.1455 8.94803e-07 0)
(11.9456 -6.65925e-07 0)
(11.7477 -2.3286e-06 0)
(11.5518 -3.60274e-06 0)
(11.3579 -4.9901e-06 0)
(11.166 -5.76946e-06 0)
(10.9762 -6.4578e-06 0)
(10.7883 -7.43656e-06 0)
(10.6025 -7.87623e-06 0)
(10.4186 -8.65078e-06 0)
(10.2368 -8.73719e-06 0)
(10.057 -9.12905e-06 0)
(9.87914 -9.15428e-06 0)
(9.70332 -9.47516e-06 0)
(9.52948 -9.30722e-06 0)
(9.35764 -9.45057e-06 0)
(9.18779 -9.64416e-06 0)
(9.01993 -9.72472e-06 0)
(8.85406 -9.68325e-06 0)
(8.69017 -9.64959e-06 0)
(8.52825 -9.54746e-06 0)
(8.36831 -9.3958e-06 0)
(8.21034 -9.39057e-06 0)
(8.05433 -9.49179e-06 0)
(7.90029 -9.56979e-06 0)
(7.74819 -9.66412e-06 0)
(7.59805 -9.85383e-06 0)
(7.44985 -9.84103e-06 0)
(7.30359 -1.01885e-05 0)
(7.15925 -9.81847e-06 0)
(7.01684 -9.9967e-06 0)
(6.87635 -9.958e-06 0)
(6.73776 -9.79654e-06 0)
(6.60108 -9.77635e-06 0)
(6.46629 -9.7096e-06 0)
(6.33339 -9.73701e-06 0)
(6.20237 -9.68439e-06 0)
(6.07322 -9.70617e-06 0)
(5.94594 -9.71321e-06 0)
(5.82052 -9.90468e-06 0)
(5.69695 -1.00282e-05 0)
(5.57522 -1.00814e-05 0)
(5.45533 -9.94144e-06 0)
(5.33726 -1.00173e-05 0)
(5.22101 -1.00601e-05 0)
(5.10658 -1.00012e-05 0)
(4.99394 -1.00043e-05 0)
(4.88309 -9.92845e-06 0)
(4.77403 -9.81909e-06 0)
(4.66673 -9.42469e-06 0)
(4.56119 -9.37177e-06 0)
(4.45741 -9.32966e-06 0)
(4.35535 -9.4913e-06 0)
(4.25503 -9.71229e-06 0)
(4.15642 -9.57958e-06 0)
(4.05951 -9.52124e-06 0)
(3.9643 -9.63947e-06 0)
(3.87076 -9.75365e-06 0)
(3.7789 -9.88086e-06 0)
(3.68868 -9.89624e-06 0)
(3.60011 -1.00086e-05 0)
(3.51317 -9.59945e-06 0)
(3.42785 -9.72131e-06 0)
(3.34412 -9.7751e-06 0)
(3.26198 -9.94183e-06 0)
(3.18142 -9.66422e-06 0)
(3.10242 -9.59214e-06 0)
(3.02495 -9.63175e-06 0)
(2.94902 -9.75218e-06 0)
(2.8746 -9.99796e-06 0)
(2.80167 -9.91163e-06 0)
(2.73022 -9.46279e-06 0)
(2.66025 -9.49187e-06 0)
(2.59171 -9.09401e-06 0)
(2.52461 -9.77275e-06 0)
(2.45893 -9.36685e-06 0)
(2.39463 -9.8705e-06 0)
(2.33173 -8.37559e-06 0)
(2.27017 -1.00637e-05 0)
(2.20998 -8.52099e-06 0)
(2.15107 -1.17371e-05 0)
(2.09353 -7.46703e-06 0)
(2.0372 -1.24656e-05 0)
(1.98222 -6.87256e-06 0)
(1.92841 -1.29495e-05 0)
(1.87592 -5.0779e-06 0)
(1.82454 -1.16385e-05 0)
(1.77445 -2.97663e-06 0)
(1.72538 5.74033e-06 0)
(1.67739 6.87506e-05 0)
(1.62967 0.000309204 0)
(1.58132 0.00134491 0)
(1.51082 0.00473003 0)
(1.46649 0.0396478 0)
(0.913213 0.0654594 0)
(42.5701 0.000112372 0)
(42.2442 9.84783e-05 0)
(41.8596 9.77315e-05 0)
(41.4969 0.000102875 0)
(41.1546 0.000106263 0)
(40.8159 0.000108826 0)
(40.4748 0.00011107 0)
(40.1323 0.000113032 0)
(39.79 0.000114732 0)
(39.4483 0.000116176 0)
(39.1071 0.000117372 0)
(38.7662 0.000118328 0)
(38.4258 0.00011909 0)
(38.0857 0.000119671 0)
(37.7462 0.000120147 0)
(37.4072 0.000120586 0)
(37.0688 0.000121029 0)
(36.731 0.000121148 0)
(36.3937 0.000121315 0)
(36.0571 0.000121581 0)
(35.7212 0.000121734 0)
(35.386 0.000121973 0)
(35.0515 0.000122227 0)
(34.7178 0.000122597 0)
(34.3849 0.000122767 0)
(34.0528 0.000123111 0)
(33.7216 0.000122919 0)
(33.3913 0.000123012 0)
(33.0618 0.000122462 0)
(32.7334 0.000122242 0)
(32.4059 0.000122023 0)
(32.0794 0.000121928 0)
(31.7539 0.0001219 0)
(31.4295 0.000122235 0)
(31.1062 0.000122437 0)
(30.784 0.000122658 0)
(30.4629 0.000122727 0)
(30.143 0.000123491 0)
(29.8242 0.000122401 0)
(29.5067 0.000122858 0)
(29.1904 0.000122527 0)
(28.8754 0.000122564 0)
(28.5617 0.000122471 0)
(28.2492 0.000122491 0)
(27.9381 0.000122441 0)
(27.6284 0.000122463 0)
(27.3201 0.000122744 0)
(27.0131 0.000122091 0)
(26.7076 0.000122853 0)
(26.4035 0.000122267 0)
(26.1008 0.000122608 0)
(25.7997 0.000123087 0)
(25.5 0.000123251 0)
(25.2019 0.000123104 0)
(24.9053 0.000123354 0)
(24.6103 0.000123271 0)
(24.3169 0.000123447 0)
(24.025 0.000122598 0)
(23.7348 0.000123533 0)
(23.4462 0.000121526 0)
(23.1593 0.000122648 0)
(22.874 0.00012072 0)
(22.5904 0.000121512 0)
(22.3085 0.000121618 0)
(22.0283 0.000121651 0)
(21.7498 0.000123208 0)
(21.4731 0.000123225 0)
(21.1981 0.000123345 0)
(20.9249 0.00012318 0)
(20.6535 0.000123057 0)
(20.3839 0.00012254 0)
(20.1161 0.000121887 0)
(19.8501 0.000121206 0)
(19.5859 0.00012052 0)
(19.3236 0.000119897 0)
(19.0631 0.000119163 0)
(18.8045 0.00011836 0)
(18.5478 0.000117378 0)
(18.2929 0.000116092 0)
(18.0399 0.000114403 0)
(17.7889 0.000112348 0)
(17.5397 0.000109922 0)
(17.2924 0.00010711 0)
(17.0471 0.00010394 0)
(16.8036 0.000100418 0)
(16.5622 9.66e-05 0)
(16.3226 9.25157e-05 0)
(16.085 8.81317e-05 0)
(15.8493 8.34213e-05 0)
(15.6156 7.83228e-05 0)
(15.3839 7.28948e-05 0)
(15.1541 6.72306e-05 0)
(14.9263 6.1394e-05 0)
(14.7004 5.55583e-05 0)
(14.4766 4.98068e-05 0)
(14.2547 4.4347e-05 0)
(14.0348 3.91239e-05 0)
(13.8169 3.42605e-05 0)
(13.6009 2.96728e-05 0)
(13.387 2.51948e-05 0)
(13.1751 2.11725e-05 0)
(12.9652 1.73048e-05 0)
(12.7572 1.38035e-05 0)
(12.5513 1.0625e-05 0)
(12.3474 8.18231e-06 0)
(12.1455 5.69816e-06 0)
(11.9456 3.54104e-06 0)
(11.7477 1.69219e-06 0)
(11.5518 2.88736e-07 0)
(11.3579 -1.12708e-06 0)
(11.166 -2.05368e-06 0)
(10.9762 -2.82427e-06 0)
(10.7883 -3.77745e-06 0)
(10.6025 -4.32099e-06 0)
(10.4186 -5.03243e-06 0)
(10.2368 -5.23186e-06 0)
(10.057 -5.56971e-06 0)
(9.87914 -5.65958e-06 0)
(9.70332 -5.93118e-06 0)
(9.52948 -5.84076e-06 0)
(9.35764 -5.95559e-06 0)
(9.18779 -6.11707e-06 0)
(9.01993 -6.21522e-06 0)
(8.85406 -6.20791e-06 0)
(8.69017 -6.16847e-06 0)
(8.52825 -6.08085e-06 0)
(8.36831 -5.9533e-06 0)
(8.21034 -5.92156e-06 0)
(8.05433 -6.01948e-06 0)
(7.90029 -6.09876e-06 0)
(7.74819 -6.17694e-06 0)
(7.59805 -6.33063e-06 0)
(7.44985 -6.37483e-06 0)
(7.30359 -6.62534e-06 0)
(7.15925 -6.37292e-06 0)
(7.01684 -6.50075e-06 0)
(6.87635 -6.48145e-06 0)
(6.73776 -6.33456e-06 0)
(6.60108 -6.31322e-06 0)
(6.46629 -6.24647e-06 0)
(6.33339 -6.26918e-06 0)
(6.20237 -6.24187e-06 0)
(6.07322 -6.24027e-06 0)
(5.94594 -6.2736e-06 0)
(5.82052 -6.40093e-06 0)
(5.69695 -6.56744e-06 0)
(5.57522 -6.58263e-06 0)
(5.45533 -6.47829e-06 0)
(5.33726 -6.55249e-06 0)
(5.22101 -6.60387e-06 0)
(5.10658 -6.56095e-06 0)
(4.99394 -6.43436e-06 0)
(4.88309 -6.2613e-06 0)
(4.77403 -6.10176e-06 0)
(4.66673 -5.91132e-06 0)
(4.56119 -6.01067e-06 0)
(4.45741 -6.02645e-06 0)
(4.35535 -6.28014e-06 0)
(4.25503 -6.46673e-06 0)
(4.15642 -6.30732e-06 0)
(4.05951 -6.15976e-06 0)
(3.9643 -6.29164e-06 0)
(3.87076 -6.36596e-06 0)
(3.7789 -6.4428e-06 0)
(3.68868 -6.55059e-06 0)
(3.60011 -6.54846e-06 0)
(3.51317 -6.20536e-06 0)
(3.42785 -6.35396e-06 0)
(3.34412 -6.41648e-06 0)
(3.26198 -6.5679e-06 0)
(3.18142 -6.27949e-06 0)
(3.10242 -6.24608e-06 0)
(3.02495 -6.21637e-06 0)
(2.94902 -6.46338e-06 0)
(2.8746 -6.66904e-06 0)
(2.80167 -6.51781e-06 0)
(2.73022 -6.10889e-06 0)
(2.66025 -6.30073e-06 0)
(2.59171 -5.73161e-06 0)
(2.52461 -6.649e-06 0)
(2.45893 -5.58627e-06 0)
(2.39463 -7.23385e-06 0)
(2.33173 -4.74344e-06 0)
(2.27017 -7.88361e-06 0)
(2.20998 -4.42974e-06 0)
(2.15107 -9.89296e-06 0)
(2.09353 -2.56417e-06 0)
(2.0372 -9.79292e-06 0)
(1.98222 -2.17483e-06 0)
(1.92841 -1.1748e-05 0)
(1.87592 -1.96248e-07 0)
(1.82454 -1.08079e-05 0)
(1.77445 8.92762e-06 0)
(1.72539 3.10526e-05 0)
(1.67742 0.000189528 0)
(1.62982 0.000774447 0)
(1.58189 0.00296407 0)
(1.5167 0.00768367 0)
(1.47995 0.0450627 0)
(1.17942 0.0400534 0)
(42.57 3.39077e-05 0)
(42.2442 2.67221e-05 0)
(41.8596 1.95002e-05 0)
(41.4969 1.65473e-05 0)
(41.1545 1.42262e-05 0)
(40.8159 1.22181e-05 0)
(40.4748 1.05888e-05 0)
(40.1323 9.26361e-06 0)
(39.79 8.17196e-06 0)
(39.4483 7.25456e-06 0)
(39.107 6.47361e-06 0)
(38.7662 5.80919e-06 0)
(38.4257 5.2571e-06 0)
(38.0857 4.8067e-06 0)
(37.7462 4.46271e-06 0)
(37.4072 4.22929e-06 0)
(37.0688 4.07537e-06 0)
(36.7309 3.91768e-06 0)
(36.3937 3.52055e-06 0)
(36.0571 3.39484e-06 0)
(35.7211 3.14336e-06 0)
(35.3859 2.93005e-06 0)
(35.0515 2.78618e-06 0)
(34.7178 2.76822e-06 0)
(34.3848 2.78194e-06 0)
(34.0528 2.91055e-06 0)
(33.7216 2.89335e-06 0)
(33.3912 2.93292e-06 0)
(33.0618 2.71477e-06 0)
(32.7334 2.53423e-06 0)
(32.4059 2.29986e-06 0)
(32.0794 2.07211e-06 0)
(31.7539 1.88614e-06 0)
(31.4295 1.85119e-06 0)
(31.1062 1.85004e-06 0)
(30.7839 1.93562e-06 0)
(30.4629 2.06105e-06 0)
(30.143 2.41029e-06 0)
(29.8242 2.21157e-06 0)
(29.5067 2.45224e-06 0)
(29.1904 2.39652e-06 0)
(28.8754 2.41369e-06 0)
(28.5617 2.31979e-06 0)
(28.2492 2.18175e-06 0)
(27.9381 1.96773e-06 0)
(27.6284 1.75237e-06 0)
(27.32 1.64388e-06 0)
(27.0131 1.34947e-06 0)
(26.7075 1.58256e-06 0)
(26.4034 1.52458e-06 0)
(26.1008 1.78796e-06 0)
(25.7997 2.0885e-06 0)
(25.5 2.22607e-06 0)
(25.2019 2.18649e-06 0)
(24.9053 2.17595e-06 0)
(24.6103 2.01901e-06 0)
(24.3169 1.86983e-06 0)
(24.025 1.41333e-06 0)
(23.7348 1.45852e-06 0)
(23.4462 6.7351e-07 0)
(23.1592 8.63172e-07 0)
(22.874 2.96707e-07 0)
(22.5904 7.18551e-07 0)
(22.3085 1.09026e-06 0)
(22.0283 1.48051e-06 0)
(21.7498 2.27726e-06 0)
(21.4731 2.4496e-06 0)
(21.1981 2.47692e-06 0)
(20.9249 2.28369e-06 0)
(20.6535 2.03479e-06 0)
(20.3839 1.73226e-06 0)
(20.1161 1.5019e-06 0)
(19.8501 1.37989e-06 0)
(19.5859 1.31869e-06 0)
(19.3236 1.30942e-06 0)
(19.0631 1.26513e-06 0)
(18.8045 1.20773e-06 0)
(18.5478 1.1044e-06 0)
(18.2929 9.39116e-07 0)
(18.0399 7.24864e-07 0)
(17.7888 5.04369e-07 0)
(17.5397 2.93779e-07 0)
(17.2924 5.75273e-08 0)
(17.0471 -2.27842e-07 0)
(16.8036 -5.51204e-07 0)
(16.5621 -8.46813e-07 0)
(16.3226 -1.05579e-06 0)
(16.085 -1.18106e-06 0)
(15.8493 -1.28992e-06 0)
(15.6156 -1.47082e-06 0)
(15.3839 -1.75249e-06 0)
(15.1541 -2.10174e-06 0)
(14.9263 -2.47731e-06 0)
(14.7004 -2.80048e-06 0)
(14.4766 -3.07015e-06 0)
(14.2547 -3.26871e-06 0)
(14.0348 -3.45486e-06 0)
(13.8169 -3.62911e-06 0)
(13.6009 -3.79161e-06 0)
(13.387 -3.95896e-06 0)
(13.1751 -4.03547e-06 0)
(12.9652 -4.10636e-06 0)
(12.7572 -4.12297e-06 0)
(12.5513 -4.12187e-06 0)
(12.3474 -4.02206e-06 0)
(12.1455 -4.00007e-06 0)
(11.9456 -3.70629e-06 0)
(11.7477 -3.59711e-06 0)
(11.5518 -3.50346e-06 0)
(11.3579 -3.48889e-06 0)
(11.166 -3.41593e-06 0)
(10.9762 -3.3716e-06 0)
(10.7883 -3.41832e-06 0)
(10.6025 -3.38711e-06 0)
(10.4186 -3.43131e-06 0)
(10.2368 -3.38365e-06 0)
(10.057 -3.40474e-06 0)
(9.87914 -3.39376e-06 0)
(9.70332 -3.42894e-06 0)
(9.52948 -3.37788e-06 0)
(9.35764 -3.38431e-06 0)
(9.18779 -3.41609e-06 0)
(9.01993 -3.41682e-06 0)
(8.85406 -3.4051e-06 0)
(8.69017 -3.3917e-06 0)
(8.52825 -3.38161e-06 0)
(8.36831 -3.37594e-06 0)
(8.21034 -3.38489e-06 0)
(8.05433 -3.40642e-06 0)
(7.90029 -3.41381e-06 0)
(7.74819 -3.40875e-06 0)
(7.59805 -3.44437e-06 0)
(7.44985 -3.43278e-06 0)
(7.30359 -3.48021e-06 0)
(7.15925 -3.42871e-06 0)
(7.01684 -3.44729e-06 0)
(6.87635 -3.44956e-06 0)
(6.73776 -3.41441e-06 0)
(6.60108 -3.40546e-06 0)
(6.46629 -3.40728e-06 0)
(6.33339 -3.41571e-06 0)
(6.20237 -3.42071e-06 0)
(6.07322 -3.42602e-06 0)
(5.94594 -3.43332e-06 0)
(5.82052 -3.45044e-06 0)
(5.69695 -3.45032e-06 0)
(5.57522 -3.43542e-06 0)
(5.45533 -3.43387e-06 0)
(5.33726 -3.44948e-06 0)
(5.22101 -3.46207e-06 0)
(5.10658 -3.44843e-06 0)
(4.99394 -3.49071e-06 0)
(4.88309 -3.57818e-06 0)
(4.77403 -3.60557e-06 0)
(4.66673 -3.49523e-06 0)
(4.56119 -3.35118e-06 0)
(4.45741 -3.29209e-06 0)
(4.35535 -3.27723e-06 0)
(4.25503 -3.29578e-06 0)
(4.15642 -3.30816e-06 0)
(4.05951 -3.34254e-06 0)
(3.9643 -3.37621e-06 0)
(3.87076 -3.39957e-06 0)
(3.7789 -3.41629e-06 0)
(3.68868 -3.39848e-06 0)
(3.60011 -3.40741e-06 0)
(3.51317 -3.40786e-06 0)
(3.42785 -3.39453e-06 0)
(3.34412 -3.39139e-06 0)
(3.26198 -3.34948e-06 0)
(3.18142 -3.31634e-06 0)
(3.10242 -3.33092e-06 0)
(3.02495 -3.39257e-06 0)
(2.94902 -3.37636e-06 0)
(2.8746 -3.35805e-06 0)
(2.80167 -3.35397e-06 0)
(2.73022 -3.31161e-06 0)
(2.66025 -3.33535e-06 0)
(2.59171 -3.02385e-06 0)
(2.52461 -3.90347e-06 0)
(2.45893 -1.82756e-06 0)
(2.39463 -5.84057e-06 0)
(2.33173 9.09379e-07 0)
(2.27017 -9.46587e-06 0)
(2.20998 3.53519e-06 0)
(2.15107 -1.44176e-05 0)
(2.09353 9.60417e-06 0)
(2.0372 -2.01745e-05 0)
(1.98222 1.74817e-05 0)
(1.92841 -2.54694e-05 0)
(1.87592 2.2365e-05 0)
(1.82454 -2.05701e-05 0)
(1.77446 3.22202e-05 0)
(1.72543 5.67297e-05 0)
(1.6776 0.000331569 0)
(1.63044 0.00130899 0)
(1.58315 0.0054644 0)
(1.52055 0.0194077 0)
(1.46955 0.119662 0)
(1.02704 0.186438 0)
(42.57 -3.39077e-05 0)
(42.2442 -2.67221e-05 0)
(41.8596 -1.95002e-05 0)
(41.4969 -1.65473e-05 0)
(41.1545 -1.42262e-05 0)
(40.8159 -1.22181e-05 0)
(40.4748 -1.05888e-05 0)
(40.1323 -9.26361e-06 0)
(39.79 -8.17196e-06 0)
(39.4483 -7.25455e-06 0)
(39.107 -6.47361e-06 0)
(38.7662 -5.80919e-06 0)
(38.4257 -5.2571e-06 0)
(38.0857 -4.8067e-06 0)
(37.7462 -4.46271e-06 0)
(37.4072 -4.22929e-06 0)
(37.0688 -4.07537e-06 0)
(36.7309 -3.91767e-06 0)
(36.3937 -3.52055e-06 0)
(36.0571 -3.39484e-06 0)
(35.7211 -3.14336e-06 0)
(35.3859 -2.93005e-06 0)
(35.0515 -2.78618e-06 0)
(34.7178 -2.76822e-06 0)
(34.3848 -2.78194e-06 0)
(34.0528 -2.91055e-06 0)
(33.7216 -2.89335e-06 0)
(33.3912 -2.93292e-06 0)
(33.0618 -2.71477e-06 0)
(32.7334 -2.53423e-06 0)
(32.4059 -2.29986e-06 0)
(32.0794 -2.0721e-06 0)
(31.7539 -1.88614e-06 0)
(31.4295 -1.85119e-06 0)
(31.1062 -1.85005e-06 0)
(30.7839 -1.93562e-06 0)
(30.4629 -2.06105e-06 0)
(30.143 -2.41029e-06 0)
(29.8242 -2.21157e-06 0)
(29.5067 -2.45224e-06 0)
(29.1904 -2.39652e-06 0)
(28.8754 -2.41369e-06 0)
(28.5617 -2.31979e-06 0)
(28.2492 -2.18175e-06 0)
(27.9381 -1.96773e-06 0)
(27.6284 -1.75237e-06 0)
(27.32 -1.64388e-06 0)
(27.0131 -1.34947e-06 0)
(26.7075 -1.58256e-06 0)
(26.4034 -1.52458e-06 0)
(26.1008 -1.78796e-06 0)
(25.7997 -2.0885e-06 0)
(25.5 -2.22607e-06 0)
(25.2019 -2.18649e-06 0)
(24.9053 -2.17595e-06 0)
(24.6103 -2.01901e-06 0)
(24.3169 -1.86983e-06 0)
(24.025 -1.41333e-06 0)
(23.7348 -1.45852e-06 0)
(23.4462 -6.7351e-07 0)
(23.1592 -8.63171e-07 0)
(22.874 -2.96708e-07 0)
(22.5904 -7.18553e-07 0)
(22.3085 -1.09026e-06 0)
(22.0283 -1.48051e-06 0)
(21.7498 -2.27726e-06 0)
(21.4731 -2.4496e-06 0)
(21.1981 -2.47692e-06 0)
(20.9249 -2.28369e-06 0)
(20.6535 -2.03478e-06 0)
(20.3839 -1.73226e-06 0)
(20.1161 -1.5019e-06 0)
(19.8501 -1.37989e-06 0)
(19.5859 -1.31869e-06 0)
(19.3236 -1.30942e-06 0)
(19.0631 -1.26513e-06 0)
(18.8045 -1.20773e-06 0)
(18.5478 -1.1044e-06 0)
(18.2929 -9.39115e-07 0)
(18.0399 -7.24863e-07 0)
(17.7888 -5.04371e-07 0)
(17.5397 -2.93781e-07 0)
(17.2924 -5.75282e-08 0)
(17.0471 2.2784e-07 0)
(16.8036 5.51204e-07 0)
(16.5621 8.46815e-07 0)
(16.3226 1.0558e-06 0)
(16.085 1.18106e-06 0)
(15.8493 1.28992e-06 0)
(15.6156 1.47082e-06 0)
(15.3839 1.75249e-06 0)
(15.1541 2.10174e-06 0)
(14.9263 2.47731e-06 0)
(14.7004 2.80048e-06 0)
(14.4766 3.07015e-06 0)
(14.2547 3.26871e-06 0)
(14.0348 3.45486e-06 0)
(13.8169 3.6291e-06 0)
(13.6009 3.79161e-06 0)
(13.387 3.95895e-06 0)
(13.1751 4.03548e-06 0)
(12.9652 4.10636e-06 0)
(12.7572 4.12297e-06 0)
(12.5513 4.12187e-06 0)
(12.3474 4.02206e-06 0)
(12.1455 4.00007e-06 0)
(11.9456 3.70629e-06 0)
(11.7477 3.59711e-06 0)
(11.5518 3.50346e-06 0)
(11.3579 3.48889e-06 0)
(11.166 3.41593e-06 0)
(10.9762 3.3716e-06 0)
(10.7883 3.41831e-06 0)
(10.6025 3.3871e-06 0)
(10.4186 3.43131e-06 0)
(10.2368 3.38364e-06 0)
(10.057 3.40474e-06 0)
(9.87914 3.39376e-06 0)
(9.70332 3.42894e-06 0)
(9.52948 3.37788e-06 0)
(9.35764 3.38431e-06 0)
(9.18779 3.41609e-06 0)
(9.01993 3.41681e-06 0)
(8.85406 3.40511e-06 0)
(8.69017 3.3917e-06 0)
(8.52825 3.3816e-06 0)
(8.36831 3.37595e-06 0)
(8.21034 3.3849e-06 0)
(8.05433 3.40642e-06 0)
(7.90029 3.41381e-06 0)
(7.74819 3.40875e-06 0)
(7.59805 3.44437e-06 0)
(7.44985 3.43278e-06 0)
(7.30359 3.48021e-06 0)
(7.15925 3.4287e-06 0)
(7.01684 3.44729e-06 0)
(6.87635 3.44956e-06 0)
(6.73776 3.41441e-06 0)
(6.60108 3.40546e-06 0)
(6.46629 3.40728e-06 0)
(6.33339 3.41571e-06 0)
(6.20237 3.42071e-06 0)
(6.07322 3.42601e-06 0)
(5.94594 3.43332e-06 0)
(5.82052 3.45044e-06 0)
(5.69695 3.45032e-06 0)
(5.57522 3.43541e-06 0)
(5.45533 3.43388e-06 0)
(5.33726 3.44948e-06 0)
(5.22101 3.46207e-06 0)
(5.10658 3.44842e-06 0)
(4.99394 3.49071e-06 0)
(4.88309 3.57818e-06 0)
(4.77403 3.60557e-06 0)
(4.66673 3.49523e-06 0)
(4.56119 3.35118e-06 0)
(4.45741 3.29209e-06 0)
(4.35535 3.27724e-06 0)
(4.25503 3.29577e-06 0)
(4.15642 3.30816e-06 0)
(4.05951 3.34253e-06 0)
(3.9643 3.37621e-06 0)
(3.87076 3.39956e-06 0)
(3.7789 3.41629e-06 0)
(3.68868 3.39848e-06 0)
(3.60011 3.40742e-06 0)
(3.51317 3.40786e-06 0)
(3.42785 3.39454e-06 0)
(3.34412 3.39138e-06 0)
(3.26198 3.34948e-06 0)
(3.18142 3.31633e-06 0)
(3.10242 3.33089e-06 0)
(3.02495 3.39269e-06 0)
(2.94902 3.3756e-06 0)
(2.8746 3.36168e-06 0)
(2.80167 3.33547e-06 0)
(2.73022 3.38809e-06 0)
(2.66025 3.04491e-06 0)
(2.59171 3.92981e-06 0)
(2.52461 1.52911e-06 0)
(2.45893 6.76033e-06 0)
(2.39464 -1.80546e-06 0)
(2.33172 9.11401e-06 0)
(2.27018 -5.92305e-06 0)
(2.20996 1.35644e-05 0)
(2.15108 -1.18167e-05 0)
(2.0935 2.12255e-05 0)
(2.03723 -1.83915e-05 0)
(1.98218 2.78157e-05 0)
(1.92844 -2.08445e-05 0)
(1.87588 3.15241e-05 0)
(1.82458 -2.24779e-05 0)
(1.77446 4.81163e-05 0)
(1.72551 4.95693e-05 0)
(1.67783 0.00035701 0)
(1.63151 0.00136265 0)
(1.58768 0.00602119 0)
(1.55422 0.0222337 0)
(1.53328 0.143144 0)
(1.67077 0.212257 0)
(42.5701 -0.000112372 0)
(42.2442 -9.84783e-05 0)
(41.8596 -9.77315e-05 0)