/*--------------------------------*- C++ -*----------------------------------*\
| =========                 |                                                 |
| \\      /  F ield         | OpenFOAM: The Open Source CFD Toolbox           |
|  \\    /   O peration     | Version:  3.0.x                                 |
|   \\  /    A nd           | Web:      www.OpenFOAM.org                      |
|    \\/     M anipulation  |                                                 |
\*---------------------------------------------------------------------------*/
FoamFile
{
    version     2.0;
    format      ascii;
    class       volScalarField;
    location    "0.54";
    object      rho;
}
// * * * * * * * * * * * * * * * * * * * * * * * * * * * * * * * * * * * * * //

dimensions      [1 -3 0 0 0 0 0];

internalField   nonuniform List<scalar> 
27600
(
51.5367
51.5387
51.5417
51.5446
51.5474
51.55
51.5524
51.5547
51.557
51.5591
51.5611
51.5629
51.5647
51.5664
51.568
51.5696
51.571
51.5724
51.5739
51.5753
51.5767
51.5781
51.5795
51.5809
51.5824
51.5838
51.5854
51.5869
51.5885
51.5901
51.5917
51.5934
51.5951
51.5969
51.5987
51.6005
51.6024
51.6043
51.6062
51.6082
51.6102
51.6123
51.6143
51.6164
51.6186
51.6208
51.623
51.6252
51.6275
51.6299
51.6322
51.6346
51.637
51.6395
51.642
51.6445
51.6471
51.6497
51.6523
51.655
51.6577
51.6604
51.6632
51.666
51.6689
51.6717
51.6746
51.6776
51.6805
51.6835
51.6866
51.6897
51.6928
51.6959
51.6991
51.7023
51.7055
51.7088
51.7121
51.7154
51.7188
51.7221
51.7256
51.729
51.7325
51.736
51.7396
51.7432
51.7468
51.7504
51.7541
51.7578
51.7615
51.7652
51.769
51.7728
51.7766
51.7804
51.7843
51.7883
51.7923
51.7963
51.8003
51.8044
51.8086
51.8127
51.8169
51.8211
51.8253
51.8295
51.8338
51.8381
51.8424
51.8467
51.8511
51.8554
51.8598
51.8642
51.8687
51.8732
51.8777
51.8822
51.8868
51.8914
51.896
51.9007
51.9054
51.9101
51.9148
51.9196
51.9243
51.9292
51.934
51.9389
51.9438
51.9487
51.9537
51.9586
51.9636
51.9687
51.9737
51.9788
51.9838
51.9889
51.994
51.9991
52.0042
52.0094
52.0145
52.0197
52.0249
52.0301
52.0354
52.0407
52.046
52.0513
52.0567
52.0621
52.0675
52.073
52.0784
52.0839
52.0893
52.0948
52.1004
52.1059
52.1114
52.117
52.1225
52.1281
52.1337
52.1393
52.145
52.1506
52.1563
52.162
52.1676
52.1734
52.1791
52.1848
52.1906
52.1963
52.2021
52.2079
52.2137
52.2195
52.2254
52.2312
52.2371
52.2429
52.2488
52.2547
52.2606
52.2665
52.2725
52.2784
52.2843
52.2903
52.2963
52.3023
52.3083
52.3143
52.3203
52.3263
52.3323
52.3384
52.3444
52.3505
52.3565
52.3626
52.3687
52.3748
52.3809
52.387
52.3931
52.3992
52.4053
52.4114
52.4176
52.4237
52.4298
52.436
52.4421
52.4483
52.4545
52.4606
52.4668
52.473
52.4792
52.4854
52.4915
52.4977
52.5039
52.5101
52.5163
52.5225
52.5287
52.5349
52.5411
52.5473
52.5535
52.5597
52.5659
52.5721
52.5783
52.5846
52.5908
52.597
52.6032
52.6094
52.6156
52.6218
52.628
52.6342
52.6404
52.6466
52.6528
52.6589
52.6651
52.6713
52.6775
52.6837
52.6898
52.696
52.7022
52.7083
52.7145
52.7206
52.7267
52.7329
52.739
52.7451
52.7513
52.7574
52.7635
52.7696
52.7757
52.7818
52.7878
52.7939
52.8
52.806
52.8121
52.8181
52.8241
52.8302
52.8362
52.8422
52.8482
52.8542
52.8601
52.8661
52.8721
52.878
52.8839
52.8899
52.8958
52.9017
52.9076
52.9135
52.9193
52.9252
52.931
52.9369
52.9427
52.9485
52.9543
52.9601
52.9659
52.9716
52.9774
52.9831
52.9889
52.9946
53.0003
53.0059
53.0116
53.0173
53.0229
53.0285
53.0341
53.0397
53.0453
53.0509
53.0564
53.062
53.0675
53.073
53.0785
53.084
53.0894
53.0949
53.1003
53.1057
53.1111
53.1165
53.1219
53.1272
53.1325
53.1378
53.1431
53.1484
53.1537
53.1589
53.1641
53.1694
53.1745
53.1797
53.1849
53.19
53.1951
53.2002
53.2053
53.2104
53.2154
53.2205
53.2255
53.2305
53.2354
53.2404
53.2453
53.2502
53.2551
53.26
53.2649
53.2697
53.2745
53.2793
53.2841
53.2889
53.2937
53.2983
53.3031
53.3077
53.3125
53.317
53.3218
53.3262
53.331
53.3353
53.3401
53.3444
53.3491
53.3533
53.3581
53.3622
53.367
53.371
53.3758
53.3798
53.3845
53.3885
53.3931
53.397
53.4016
53.4055
53.4101
53.4139
53.4183
53.4218
51.5373
51.5392
51.5423
51.5452
51.5479
51.5505
51.553
51.5553
51.5575
51.5596
51.5616
51.5635
51.5653
51.567
51.5686
51.5701
51.5716
51.573
51.5744
51.5759
51.5773
51.5786
51.58
51.5815
51.5829
51.5844
51.5859
51.5874
51.589
51.5906
51.5923
51.594
51.5957
51.5974
51.5992
51.6011
51.6029
51.6048
51.6068
51.6087
51.6107
51.6128
51.6149
51.617
51.6191
51.6213
51.6235
51.6258
51.6281
51.6304
51.6327
51.6351
51.6376
51.64
51.6425
51.645
51.6476
51.6502
51.6528
51.6555
51.6582
51.661
51.6637
51.6665
51.6694
51.6722
51.6751
51.6781
51.681
51.684
51.6871
51.6902
51.6933
51.6964
51.6996
51.7028
51.706
51.7093
51.7125
51.7159
51.7192
51.7226
51.7261
51.7295
51.733
51.7365
51.7401
51.7436
51.7473
51.7509
51.7546
51.7582
51.7619
51.7657
51.7694
51.7732
51.7771
51.7809
51.7848
51.7887
51.7927
51.7967
51.8008
51.8049
51.809
51.8131
51.8173
51.8215
51.8257
51.83
51.8343
51.8386
51.8429
51.8472
51.8515
51.8559
51.8603
51.8647
51.8691
51.8736
51.8781
51.8827
51.8872
51.8918
51.8965
51.9011
51.9058
51.9105
51.9152
51.92
51.9248
51.9296
51.9344
51.9393
51.9442
51.9491
51.9541
51.959
51.964
51.9691
51.9741
51.9792
51.9842
51.9893
51.9944
51.9995
52.0046
52.0098
52.0149
52.0201
52.0253
52.0305
52.0358
52.0411
52.0464
52.0517
52.0571
52.0625
52.0679
52.0733
52.0788
52.0842
52.0897
52.0952
52.1007
52.1062
52.1118
52.1173
52.1229
52.1285
52.1341
52.1397
52.1453
52.151
52.1566
52.1623
52.168
52.1737
52.1794
52.1852
52.1909
52.1967
52.2025
52.2083
52.2141
52.2199
52.2257
52.2316
52.2374
52.2433
52.2492
52.2551
52.261
52.2669
52.2728
52.2788
52.2847
52.2907
52.2966
52.3026
52.3086
52.3146
52.3206
52.3266
52.3327
52.3387
52.3448
52.3508
52.3569
52.363
52.369
52.3751
52.3812
52.3873
52.3934
52.3995
52.4057
52.4118
52.4179
52.4241
52.4302
52.4364
52.4425
52.4487
52.4548
52.461
52.4672
52.4733
52.4795
52.4857
52.4919
52.4981
52.5043
52.5105
52.5167
52.5229
52.5291
52.5353
52.5415
52.5477
52.5539
52.5601
52.5663
52.5725
52.5787
52.5849
52.5911
52.5973
52.6035
52.6097
52.6159
52.6221
52.6283
52.6345
52.6407
52.6469
52.6531
52.6593
52.6655
52.6717
52.6778
52.684
52.6902
52.6963
52.7025
52.7087
52.7148
52.721
52.7271
52.7332
52.7394
52.7455
52.7516
52.7577
52.7638
52.7699
52.776
52.7821
52.7882
52.7943
52.8003
52.8064
52.8124
52.8185
52.8245
52.8305
52.8365
52.8425
52.8485
52.8545
52.8605
52.8665
52.8724
52.8784
52.8843
52.8902
52.8961
52.902
52.9079
52.9138
52.9197
52.9256
52.9314
52.9372
52.9431
52.9489
52.9547
52.9605
52.9662
52.972
52.9777
52.9835
52.9892
52.9949
53.0006
53.0063
53.012
53.0176
53.0233
53.0289
53.0345
53.0401
53.0457
53.0512
53.0568
53.0623
53.0678
53.0734
53.0788
53.0843
53.0898
53.0952
53.1007
53.1061
53.1115
53.1168
53.1222
53.1275
53.1329
53.1382
53.1435
53.1488
53.154
53.1593
53.1645
53.1697
53.1749
53.1801
53.1852
53.1904
53.1955
53.2006
53.2057
53.2107
53.2158
53.2208
53.2258
53.2308
53.2358
53.2407
53.2457
53.2506
53.2555
53.2604
53.2652
53.2701
53.2749
53.2797
53.2845
53.2892
53.294
53.2987
53.3034
53.308
53.3128
53.3173
53.3221
53.3265
53.3313
53.3357
53.3404
53.3447
53.3495
53.3537
53.3585
53.3626
53.3673
53.3714
53.3761
53.3801
53.3848
53.3888
53.3934
53.3974
53.402
53.4059
53.4104
53.4143
53.4187
53.4223
51.5373
51.5392
51.5423
51.5452
51.5479
51.5505
51.553
51.5553
51.5575
51.5596
51.5616
51.5635
51.5653
51.567
51.5686
51.5701
51.5716
51.573
51.5744
51.5759
51.5772
51.5786
51.58
51.5815
51.5829
51.5844
51.5859
51.5874
51.589
51.5906
51.5923
51.594
51.5957
51.5974
51.5992
51.6011
51.6029
51.6048
51.6068
51.6087
51.6107
51.6128
51.6149
51.617
51.6191
51.6213
51.6235
51.6258
51.6281
51.6304
51.6327
51.6351
51.6376
51.64
51.6425
51.645
51.6476
51.6502
51.6528
51.6555
51.6582
51.6609
51.6637
51.6665
51.6694
51.6722
51.6751
51.6781
51.681
51.684
51.6871
51.6902
51.6933
51.6964
51.6996
51.7028
51.706
51.7093
51.7125
51.7159
51.7192
51.7226
51.7261
51.7295
51.733
51.7365
51.7401
51.7436
51.7473
51.7509
51.7546
51.7582
51.7619
51.7657
51.7694
51.7732
51.7771
51.7809
51.7848
51.7887
51.7927
51.7967
51.8008
51.8049
51.809
51.8131
51.8173
51.8215
51.8257
51.83
51.8343
51.8386
51.8429
51.8472
51.8515
51.8559
51.8603
51.8647
51.8691
51.8736
51.8781
51.8827
51.8872
51.8918
51.8965
51.9011
51.9058
51.9105
51.9152
51.92
51.9248
51.9296
51.9344
51.9393
51.9442
51.9491
51.9541
51.959
51.964
51.9691
51.9741
51.9792
51.9842
51.9893
51.9944
51.9995
52.0046
52.0098
52.0149
52.0201
52.0253
52.0305
52.0358
52.0411
52.0464
52.0517
52.0571
52.0625
52.0679
52.0733
52.0788
52.0842
52.0897
52.0952
52.1007
52.1062
52.1118
52.1173
52.1229
52.1285
52.1341
52.1397
52.1453
52.151
52.1566
52.1623
52.168
52.1737
52.1794
52.1852
52.1909
52.1967
52.2025
52.2083
52.2141
52.2199
52.2257
52.2316
52.2374
52.2433
52.2492
52.2551
52.261
52.2669
52.2728
52.2788
52.2847
52.2907
52.2966
52.3026
52.3086
52.3146
52.3206
52.3266
52.3327
52.3387
52.3448
52.3508
52.3569
52.363
52.369
52.3751
52.3812
52.3873
52.3934
52.3995
52.4057
52.4118
52.4179
52.4241
52.4302
52.4364
52.4425
52.4487
52.4548
52.461
52.4672
52.4733
52.4795
52.4857
52.4919
52.4981
52.5043
52.5105
52.5167
52.5229
52.5291
52.5353
52.5415
52.5477
52.5539
52.5601
52.5663
52.5725
52.5787
52.5849
52.5911
52.5973
52.6035
52.6097
52.6159
52.6221
52.6283
52.6345
52.6407
52.6469
52.6531
52.6593
52.6655
52.6717
52.6778
52.684
52.6902
52.6963
52.7025
52.7087
52.7148
52.721
52.7271
52.7332
52.7394
52.7455
52.7516
52.7577
52.7638
52.7699
52.776
52.7821
52.7882
52.7943
52.8003
52.8064
52.8124
52.8185
52.8245
52.8305
52.8365
52.8425
52.8485
52.8545
52.8605
52.8665
52.8724
52.8784
52.8843
52.8902
52.8961
52.902
52.9079
52.9138
52.9197
52.9256
52.9314
52.9372
52.9431
52.9489
52.9547
52.9605
52.9662
52.972
52.9777
52.9835
52.9892
52.9949
53.0006
53.0063
53.012
53.0176
53.0233
53.0289
53.0345
53.0401
53.0457
53.0512
53.0568
53.0623
53.0678
53.0734
53.0788
53.0843
53.0898
53.0952
53.1007
53.1061
53.1115
53.1168
53.1222
53.1275
53.1329
53.1382
53.1435
53.1488
53.154
53.1593
53.1645
53.1697
53.1749
53.1801
53.1852
53.1904
53.1955
53.2006
53.2057
53.2107
53.2158
53.2208
53.2258
53.2308
53.2358
53.2407
53.2457
53.2506
53.2555
53.2604
53.2652
53.2701
53.2749
53.2797
53.2845
53.2892
53.294
53.2987
53.3034
53.308
53.3128
53.3173
53.3221
53.3265
53.3313
53.3357
53.3404
53.3447
53.3495
53.3537
53.3585
53.3626
53.3673
53.3714
53.3761
53.3801
53.3848
53.3888
53.3934
53.3974
53.402
53.4059
53.4104
53.4143
53.4187
53.4224
51.5373
51.5392
51.5423
51.5452
51.5479
51.5505
51.553
51.5553
51.5575
51.5596
51.5616
51.5635
51.5652
51.5669
51.5686
51.5701
51.5716
51.573
51.5744
51.5758
51.5772
51.5786
51.58
51.5814
51.5829
51.5844
51.5859
51.5874
51.589
51.5906
51.5923
51.594
51.5957
51.5974
51.5992
51.601
51.6029
51.6048
51.6067
51.6087
51.6107
51.6128
51.6148
51.617
51.6191
51.6213
51.6235
51.6258
51.628
51.6304
51.6327
51.6351
51.6375
51.64
51.6425
51.645
51.6476
51.6502
51.6528
51.6555
51.6582
51.6609
51.6637
51.6665
51.6693
51.6722
51.6751
51.6781
51.681
51.684
51.6871
51.6901
51.6932
51.6964
51.6995
51.7027
51.706
51.7092
51.7125
51.7159
51.7192
51.7226
51.726
51.7295
51.733
51.7365
51.7401
51.7436
51.7473
51.7509
51.7546
51.7582
51.7619
51.7657
51.7694
51.7732
51.777
51.7809
51.7848
51.7887
51.7927
51.7967
51.8008
51.8049
51.809
51.8131
51.8173
51.8215
51.8257
51.83
51.8343
51.8385
51.8429
51.8472
51.8515
51.8559
51.8603
51.8647
51.8691
51.8736
51.8781
51.8827
51.8872
51.8918
51.8965
51.9011
51.9058
51.9105
51.9152
51.92
51.9248
51.9296
51.9344
51.9393
51.9442
51.9491
51.9541
51.959
51.964
51.9691
51.9741
51.9791
51.9842
51.9893
51.9944
51.9995
52.0046
52.0098
52.0149
52.0201
52.0253
52.0305
52.0358
52.0411
52.0464
52.0517
52.0571
52.0625
52.0679
52.0733
52.0788
52.0842
52.0897
52.0952
52.1007
52.1062
52.1118
52.1173
52.1229
52.1285
52.1341
52.1397
52.1453
52.151
52.1566
52.1623
52.168
52.1737
52.1794
52.1852
52.1909
52.1967
52.2025
52.2083
52.2141
52.2199
52.2257
52.2316
52.2374
52.2433
52.2492
52.2551
52.261
52.2669
52.2728
52.2788
52.2847
52.2907
52.2966
52.3026
52.3086
52.3146
52.3206
52.3266
52.3327
52.3387
52.3448
52.3508
52.3569
52.363
52.369
52.3751
52.3812
52.3873
52.3934
52.3995
52.4057
52.4118
52.4179
52.4241
52.4302
52.4364
52.4425
52.4487
52.4548
52.461
52.4672
52.4733
52.4795
52.4857
52.4919
52.4981
52.5043
52.5105
52.5167
52.5229
52.5291
52.5353
52.5415
52.5477
52.5539
52.5601
52.5663
52.5725
52.5787
52.5849
52.5911
52.5973
52.6035
52.6097
52.6159
52.6221
52.6283
52.6345
52.6407
52.6469
52.6531
52.6593
52.6655
52.6717
52.6778
52.684
52.6902
52.6963
52.7025
52.7087
52.7148
52.721
52.7271
52.7332
52.7394
52.7455
52.7516
52.7577
52.7638
52.7699
52.776
52.7821
52.7882
52.7943
52.8003
52.8064
52.8124
52.8185
52.8245
52.8305
52.8365
52.8425
52.8485
52.8545
52.8605
52.8665
52.8724
52.8784
52.8843
52.8902
52.8961
52.902
52.9079
52.9138
52.9197
52.9256
52.9314
52.9372
52.9431
52.9489
52.9547
52.9605
52.9662
52.972
52.9777
52.9835
52.9892
52.9949
53.0006
53.0063
53.012
53.0176
53.0233
53.0289
53.0345
53.0401
53.0457
53.0512
53.0568
53.0623
53.0678
53.0734
53.0788
53.0843
53.0898
53.0952
53.1007
53.1061
53.1115
53.1168
53.1222
53.1275
53.1329
53.1382
53.1435
53.1488
53.154
53.1593
53.1645
53.1697
53.1749
53.1801
53.1852
53.1904
53.1955
53.2006
53.2057
53.2107
53.2158
53.2208
53.2258
53.2308
53.2358
53.2407
53.2457
53.2506
53.2555
53.2604
53.2652
53.2701
53.2749
53.2797
53.2845
53.2892
53.294
53.2987
53.3034
53.308
53.3128
53.3173
53.3221
53.3265
53.3313
53.3357
53.3404
53.3447
53.3495
53.3537
53.3585
53.3626
53.3673
53.3714
53.3761
53.3801
53.3848
53.3888
53.3934
53.3974
53.402
53.4059
53.4104
53.4144
53.4186
53.4225
51.5373
51.5392
51.5423
51.5452
51.5479
51.5505
51.553
51.5553
51.5575
51.5596
51.5616
51.5635
51.5652
51.5669
51.5686
51.5701
51.5715
51.573
51.5744
51.5758
51.5772
51.5786
51.58
51.5814
51.5829
51.5844
51.5859
51.5874
51.589
51.5906
51.5923
51.5939
51.5957
51.5974
51.5992
51.601
51.6029
51.6048
51.6067
51.6087
51.6107
51.6128
51.6148
51.6169
51.6191
51.6213
51.6235
51.6258
51.628
51.6304
51.6327
51.6351
51.6375
51.64
51.6425
51.645
51.6476
51.6502
51.6528
51.6555
51.6582
51.6609
51.6637
51.6665
51.6693
51.6722
51.6751
51.6781
51.681
51.684
51.6871
51.6901
51.6932
51.6964
51.6995
51.7027
51.706
51.7092
51.7125
51.7159
51.7192
51.7226
51.726
51.7295
51.733
51.7365
51.74
51.7436
51.7473
51.7509
51.7545
51.7582
51.7619
51.7657
51.7694
51.7732
51.777
51.7809
51.7848
51.7887
51.7927
51.7967
51.8008
51.8049
51.809
51.8131
51.8173
51.8215
51.8257
51.83
51.8343
51.8385
51.8428
51.8472
51.8515
51.8559
51.8603
51.8647
51.8691
51.8736
51.8781
51.8827
51.8872
51.8918
51.8965
51.9011
51.9058
51.9105
51.9152
51.92
51.9248
51.9296
51.9344
51.9393
51.9442
51.9491
51.9541
51.959
51.964
51.969
51.9741
51.9791
51.9842
51.9893
51.9944
51.9995
52.0046
52.0098
52.0149
52.0201
52.0253
52.0305
52.0358
52.0411
52.0464
52.0517
52.0571
52.0625
52.0679
52.0733
52.0788
52.0842
52.0897
52.0952
52.1007
52.1062
52.1118
52.1173
52.1229
52.1285
52.1341
52.1397
52.1453
52.151
52.1566
52.1623
52.168
52.1737
52.1794
52.1852
52.1909
52.1967
52.2025
52.2083
52.2141
52.2199
52.2257
52.2316
52.2374
52.2433
52.2492
52.2551
52.261
52.2669
52.2728
52.2788
52.2847
52.2907
52.2966
52.3026
52.3086
52.3146
52.3206
52.3266
52.3327
52.3387
52.3448
52.3508
52.3569
52.363
52.369
52.3751
52.3812
52.3873
52.3934
52.3995
52.4057
52.4118
52.4179
52.4241
52.4302
52.4364
52.4425
52.4487
52.4548
52.461
52.4672
52.4733
52.4795
52.4857
52.4919
52.4981
52.5043
52.5105
52.5167
52.5229
52.5291
52.5353
52.5415
52.5477
52.5539
52.5601
52.5663
52.5725
52.5787
52.5849
52.5911
52.5973
52.6035
52.6097
52.6159
52.6221
52.6283
52.6345
52.6407
52.6469
52.6531
52.6593
52.6655
52.6717
52.6778
52.684
52.6902
52.6963
52.7025
52.7087
52.7148
52.721
52.7271
52.7332
52.7394
52.7455
52.7516
52.7577
52.7638
52.7699
52.776
52.7821
52.7882
52.7943
52.8003
52.8064
52.8124
52.8185
52.8245
52.8305
52.8365
52.8425
52.8485
52.8545
52.8605
52.8665
52.8724
52.8784
52.8843
52.8902
52.8961
52.902
52.9079
52.9138
52.9197
52.9256
52.9314
52.9372
52.9431
52.9489
52.9547
52.9605
52.9662
52.972
52.9777
52.9835
52.9892
52.9949
53.0006
53.0063
53.012
53.0176
53.0233
53.0289
53.0345
53.0401
53.0457
53.0512
53.0568
53.0623
53.0678
53.0734
53.0788
53.0843
53.0898
53.0952
53.1007
53.1061
53.1115
53.1168
53.1222
53.1275
53.1329
53.1382
53.1435
53.1488
53.154
53.1593
53.1645
53.1697
53.1749
53.1801
53.1852
53.1904
53.1955
53.2006
53.2057
53.2107
53.2158
53.2208
53.2258
53.2308
53.2358
53.2407
53.2457
53.2506
53.2555
53.2604
53.2652
53.2701
53.2749
53.2797
53.2845
53.2892
53.294
53.2987
53.3034
53.308
53.3128
53.3173
53.3221
53.3265
53.3313
53.3357
53.3404
53.3447
53.3495
53.3537
53.3585
53.3626
53.3673
53.3714
53.3761
53.3801
53.3848
53.3888
53.3934
53.3974
53.402
53.4059
53.4104
53.4143
53.4188
53.4226
51.5373
51.5392
51.5423
51.5452
51.5479
51.5505
51.553
51.5553
51.5575
51.5596
51.5616
51.5635
51.5652
51.5669
51.5686
51.5701
51.5715
51.573
51.5744
51.5758
51.5772
51.5786
51.58
51.5814
51.5829
51.5844
51.5859
51.5874
51.589
51.5906
51.5923
51.5939
51.5957
51.5974
51.5992
51.601
51.6029
51.6048
51.6067
51.6087
51.6107
51.6128
51.6148
51.6169
51.6191
51.6213
51.6235
51.6258
51.628
51.6304
51.6327
51.6351
51.6375
51.64
51.6425
51.645
51.6476
51.6502
51.6528
51.6555
51.6582
51.6609
51.6637
51.6665
51.6693
51.6722
51.6751
51.6781
51.681
51.684
51.6871
51.6901
51.6932
51.6964
51.6995
51.7027
51.706
51.7092
51.7125
51.7159
51.7192
51.7226
51.726
51.7295
51.733
51.7365
51.74
51.7436
51.7473
51.7509
51.7545
51.7582
51.7619
51.7657
51.7694
51.7732
51.777
51.7809
51.7848
51.7887
51.7927
51.7967
51.8008
51.8049
51.809
51.8131
51.8173
51.8215
51.8257
51.83
51.8343
51.8385
51.8428
51.8472
51.8515
51.8559
51.8603
51.8647
51.8691
51.8736
51.8781
51.8827
51.8872
51.8918
51.8965
51.9011
51.9058
51.9105
51.9152
51.92
51.9248
51.9296
51.9344
51.9393
51.9442
51.9491
51.9541
51.959
51.964
51.969
51.9741
51.9791
51.9842
51.9893
51.9944
51.9995
52.0046
52.0098
52.0149
52.0201
52.0253
52.0305
52.0358
52.0411
52.0464
52.0517
52.0571
52.0625
52.0679
52.0733
52.0788
52.0842
52.0897
52.0952
52.1007
52.1062
52.1118
52.1173
52.1229
52.1285
52.1341
52.1397
52.1453
52.151
52.1566
52.1623
52.168
52.1737
52.1794
52.1852
52.1909
52.1967
52.2025
52.2083
52.2141
52.2199
52.2257
52.2316
52.2374
52.2433
52.2492
52.2551
52.261
52.2669
52.2728
52.2788
52.2847
52.2907
52.2966
52.3026
52.3086
52.3146
52.3206
52.3266
52.3327
52.3387
52.3448
52.3508
52.3569
52.363
52.369
52.3751
52.3812
52.3873
52.3934
52.3995
52.4057
52.4118
52.4179
52.4241
52.4302
52.4364
52.4425
52.4487
52.4548
52.461
52.4672
52.4733
52.4795
52.4857
52.4919
52.4981
52.5043
52.5105
52.5167
52.5229
52.5291
52.5353
52.5415
52.5477
52.5539
52.5601
52.5663
52.5725
52.5787
52.5849
52.5911
52.5973
52.6035
52.6097
52.6159
52.6221
52.6283
52.6345
52.6407
52.6469
52.6531
52.6593
52.6655
52.6717
52.6778
52.684
52.6902
52.6963
52.7025
52.7087
52.7148
52.721
52.7271
52.7332
52.7394
52.7455
52.7516
52.7577
52.7638
52.7699
52.776
52.7821
52.7882
52.7943
52.8003
52.8064
52.8124
52.8185
52.8245
52.8305
52.8365
52.8425
52.8485
52.8545
52.8605
52.8665
52.8724
52.8784
52.8843
52.8902
52.8961
52.902
52.9079
52.9138
52.9197
52.9256
52.9314
52.9372
52.9431
52.9489
52.9547
52.9605
52.9662
52.972
52.9777
52.9835
52.9892
52.9949
53.0006
53.0063
53.012
53.0176
53.0233
53.0289
53.0345
53.0401
53.0457
53.0512
53.0568
53.0623
53.0678
53.0734
53.0788
53.0843
53.0898
53.0952
53.1007
53.1061
53.1115
53.1168
53.1222
53.1275
53.1329
53.1382
53.1435
53.1488
53.154
53.1593
53.1645
53.1697
53.1749
53.1801
53.1852
53.1904
53.1955
53.2006
53.2057
53.2107
53.2158
53.2208
53.2258
53.2308
53.2358
53.2407
53.2457
53.2506
53.2555
53.2604
53.2652
53.2701
53.2749
53.2797
53.2845
53.2892
53.294
53.2987
53.3034
53.3081
53.3128
53.3174
53.3221
53.3266
53.3312
53.3358
53.3403
53.3449
53.3493
53.3539
53.3583
53.3627
53.3672
53.3715
53.376
53.3803
53.3846
53.3891
53.3931
53.3977
53.4017
53.4062
53.4102
53.4146
53.4185
53.4229
51.5373
51.5392
51.5423
51.5452
51.5479
51.5505
51.553
51.5553
51.5575
51.5596
51.5616
51.5635
51.5652
51.5669
51.5686
51.5701
51.5716
51.573
51.5744
51.5758
51.5772
51.5786
51.58
51.5814
51.5829
51.5844
51.5859
51.5874
51.589
51.5906
51.5923
51.594
51.5957
51.5974
51.5992
51.601
51.6029
51.6048
51.6067
51.6087
51.6107
51.6128
51.6148
51.617
51.6191
51.6213
51.6235
51.6258
51.628
51.6304
51.6327
51.6351
51.6375
51.64
51.6425
51.645
51.6476
51.6502
51.6528
51.6555
51.6582
51.6609
51.6637
51.6665
51.6693
51.6722
51.6751
51.6781
51.681
51.684
51.6871
51.6901
51.6932
51.6964
51.6995
51.7027
51.706
51.7092
51.7125
51.7159
51.7192
51.7226
51.726
51.7295
51.733
51.7365
51.7401
51.7436
51.7473
51.7509
51.7546
51.7582
51.7619
51.7657
51.7694
51.7732
51.777
51.7809
51.7848
51.7887
51.7927
51.7967
51.8008
51.8049
51.809
51.8131
51.8173
51.8215
51.8257
51.83
51.8343
51.8385
51.8429
51.8472
51.8515
51.8559
51.8603
51.8647
51.8691
51.8736
51.8781
51.8827
51.8872
51.8918
51.8965
51.9011
51.9058
51.9105
51.9152
51.92
51.9248
51.9296
51.9344
51.9393
51.9442
51.9491
51.9541
51.959
51.964
51.9691
51.9741
51.9791
51.9842
51.9893
51.9944
51.9995
52.0046
52.0098
52.0149
52.0201
52.0253
52.0305
52.0358
52.0411
52.0464
52.0517
52.0571
52.0625
52.0679
52.0733
52.0788
52.0842
52.0897
52.0952
52.1007
52.1062
52.1118
52.1173
52.1229
52.1285
52.1341
52.1397
52.1453
52.151
52.1566
52.1623
52.168
52.1737
52.1794
52.1852
52.1909
52.1967
52.2025
52.2083
52.2141
52.2199
52.2257
52.2316
52.2374
52.2433
52.2492
52.2551
52.261
52.2669
52.2728
52.2788
52.2847
52.2907
52.2966
52.3026
52.3086
52.3146
52.3206
52.3266
52.3327
52.3387
52.3448
52.3508
52.3569
52.363
52.369
52.3751
52.3812
52.3873
52.3934
52.3995
52.4057
52.4118
52.4179
52.4241
52.4302
52.4364
52.4425
52.4487
52.4548
52.461
52.4672
52.4733
52.4795
52.4857
52.4919
52.4981
52.5043
52.5105
52.5167
52.5229
52.5291
52.5353
52.5415
52.5477
52.5539
52.5601
52.5663
52.5725
52.5787
52.5849
52.5911
52.5973
52.6035
52.6097
52.6159
52.6221
52.6283
52.6345
52.6407
52.6469
52.6531
52.6593
52.6655
52.6717
52.6778
52.684
52.6902
52.6963
52.7025
52.7087
52.7148
52.721
52.7271
52.7332
52.7394
52.7455
52.7516
52.7577
52.7638
52.7699
52.776
52.7821
52.7882
52.7943
52.8003
52.8064
52.8124
52.8185
52.8245
52.8305
52.8365
52.8425
52.8485
52.8545
52.8605
52.8665
52.8724
52.8784
52.8843
52.8902
52.8961
52.902
52.9079
52.9138
52.9197
52.9256
52.9314
52.9372
52.9431
52.9489
52.9547
52.9605
52.9662
52.972
52.9777
52.9835
52.9892
52.9949
53.0006
53.0063
53.012
53.0176
53.0233
53.0289
53.0345
53.0401
53.0457
53.0512
53.0568
53.0623
53.0678
53.0734
53.0788
53.0843
53.0898
53.0952
53.1007
53.1061
53.1115
53.1168
53.1222
53.1275
53.1329
53.1382
53.1435
53.1488
53.154
53.1593
53.1645
53.1697
53.1749
53.1801
53.1852
53.1904
53.1955
53.2006
53.2057
53.2107
53.2158
53.2208
53.2258
53.2308
53.2358
53.2407
53.2457
53.2506
53.2555
53.2604
53.2652
53.2701
53.2749
53.2797
53.2845
53.2892
53.294
53.2987
53.3034
53.3081
53.3127
53.3174
53.322
53.3267
53.3311
53.3358
53.3403
53.3448
53.3494
53.3538
53.3584
53.3627
53.3672
53.3716
53.3758
53.3805
53.3845
53.3891
53.3931
53.3977
53.4017
53.4061
53.4103
53.4146
53.4186
53.423
51.5373
51.5392
51.5423
51.5452
51.5479
51.5505
51.553
51.5553
51.5575
51.5596
51.5616
51.5635
51.5653
51.567
51.5686
51.5701
51.5716
51.573
51.5744
51.5759
51.5772
51.5786
51.58
51.5815
51.5829
51.5844
51.5859
51.5874
51.589
51.5906
51.5923
51.594
51.5957
51.5974
51.5992
51.6011
51.6029
51.6048
51.6068
51.6087
51.6107
51.6128
51.6149
51.617
51.6191
51.6213
51.6235
51.6258
51.6281
51.6304
51.6327
51.6351
51.6376
51.64
51.6425
51.645
51.6476
51.6502
51.6528
51.6555
51.6582
51.6609
51.6637
51.6665
51.6694
51.6722
51.6751
51.6781
51.681
51.684
51.6871
51.6902
51.6933
51.6964
51.6996
51.7028
51.706
51.7093
51.7125
51.7159
51.7192
51.7226
51.7261
51.7295
51.733
51.7365
51.7401
51.7436
51.7473
51.7509
51.7546
51.7582
51.7619
51.7657
51.7694
51.7732
51.7771
51.7809
51.7848
51.7887
51.7927
51.7967
51.8008
51.8049
51.809
51.8131
51.8173
51.8215
51.8257
51.83
51.8343
51.8386
51.8429
51.8472
51.8515
51.8559
51.8603
51.8647
51.8691
51.8736
51.8781
51.8827
51.8872
51.8918
51.8965
51.9011
51.9058
51.9105
51.9152
51.92
51.9248
51.9296
51.9344
51.9393
51.9442
51.9491
51.9541
51.959
51.964
51.9691
51.9741
51.9792
51.9842
51.9893
51.9944
51.9995
52.0046
52.0098
52.0149
52.0201
52.0253
52.0305
52.0358
52.0411
52.0464
52.0517
52.0571
52.0625
52.0679
52.0733
52.0788
52.0842
52.0897
52.0952
52.1007
52.1062
52.1118
52.1173
52.1229
52.1285
52.1341
52.1397
52.1453
52.151
52.1566
52.1623
52.168
52.1737
52.1794
52.1852
52.1909
52.1967
52.2025
52.2083
52.2141
52.2199
52.2257
52.2316
52.2374
52.2433
52.2492
52.2551
52.261
52.2669
52.2728
52.2788
52.2847
52.2907
52.2966
52.3026
52.3086
52.3146
52.3206
52.3266
52.3327
52.3387
52.3448
52.3508
52.3569
52.363
52.369
52.3751
52.3812
52.3873
52.3934
52.3995
52.4057
52.4118
52.4179
52.4241
52.4302
52.4364
52.4425
52.4487
52.4548
52.461
52.4672
52.4733
52.4795
52.4857
52.4919
52.4981
52.5043
52.5105
52.5167
52.5229
52.5291
52.5353
52.5415
52.5477
52.5539
52.5601
52.5663
52.5725
52.5787
52.5849
52.5911
52.5973
52.6035
52.6097
52.6159
52.6221
52.6283
52.6345
52.6407
52.6469
52.6531
52.6593
52.6655
52.6717
52.6778
52.684
52.6902
52.6963
52.7025
52.7087
52.7148
52.721
52.7271
52.7332
52.7394
52.7455
52.7516
52.7577
52.7638
52.7699
52.776
52.7821
52.7882
52.7943
52.8003
52.8064
52.8124
52.8185
52.8245
52.8305
52.8365
52.8425
52.8485
52.8545
52.8605
52.8665
52.8724
52.8784
52.8843
52.8902
52.8961
52.902
52.9079
52.9138
52.9197
52.9256
52.9314
52.9372
52.9431
52.9489
52.9547
52.9605
52.9662
52.972
52.9777
52.9835
52.9892
52.9949
53.0006
53.0063
53.012
53.0176
53.0233
53.0289
53.0345
53.0401
53.0457
53.0512
53.0568
53.0623
53.0678
53.0734
53.0788
53.0843
53.0898
53.0952
53.1007
53.1061
53.1115
53.1168
53.1222
53.1275
53.1329
53.1382
53.1435
53.1488
53.154
53.1593
53.1645
53.1697
53.1749
53.1801
53.1852
53.1904
53.1955
53.2006
53.2057
53.2107
53.2158
53.2208
53.2258
53.2308
53.2358
53.2407
53.2457
53.2506
53.2555
53.2604
53.2652
53.2701
53.2749
53.2797
53.2845
53.2892
53.294
53.2987
53.3034
53.3081
53.3127
53.3174
53.322
53.3267
53.3311
53.3359
53.3402
53.3449
53.3493
53.3539
53.3582
53.3629
53.367
53.3717
53.3758
53.3805
53.3845
53.3891
53.3931
53.3977
53.4017
53.4062
53.4101
53.4147
53.4185
53.4232
51.5373
51.5392
51.5423
51.5452
51.5479
51.5505
51.553
51.5553
51.5575
51.5596
51.5616
51.5635
51.5653
51.567
51.5686
51.5701
51.5716
51.573
51.5744
51.5759
51.5773
51.5786
51.58
51.5815
51.5829
51.5844
51.5859
51.5874
51.589
51.5906
51.5923
51.594
51.5957
51.5974
51.5992
51.6011
51.6029
51.6048
51.6068
51.6087
51.6107
51.6128
51.6149
51.617
51.6191
51.6213
51.6235
51.6258
51.6281
51.6304
51.6327
51.6351
51.6376
51.64
51.6425
51.645
51.6476
51.6502
51.6528
51.6555
51.6582
51.661
51.6637
51.6665
51.6694
51.6722
51.6751
51.6781
51.681
51.684
51.6871
51.6902
51.6933
51.6964
51.6996
51.7028
51.706
51.7093
51.7125
51.7159
51.7192
51.7226
51.7261
51.7295
51.733
51.7365
51.7401
51.7436
51.7473
51.7509
51.7546
51.7582
51.7619
51.7657
51.7694
51.7732
51.7771
51.7809
51.7848
51.7887
51.7927
51.7967
51.8008
51.8049
51.809
51.8131
51.8173
51.8215
51.8257
51.83
51.8343
51.8386
51.8429
51.8472
51.8515
51.8559
51.8603
51.8647
51.8691
51.8736
51.8781
51.8827
51.8872
51.8918
51.8965
51.9011
51.9058
51.9105
51.9152
51.92
51.9248
51.9296
51.9344
51.9393
51.9442
51.9491
51.9541
51.959
51.964
51.9691
51.9741
51.9792
51.9842
51.9893
51.9944
51.9995
52.0046
52.0098
52.0149
52.0201
52.0253
52.0305
52.0358
52.0411
52.0464
52.0517
52.0571
52.0625
52.0679
52.0733
52.0788
52.0842
52.0897
52.0952
52.1007
52.1062
52.1118
52.1173
52.1229
52.1285
52.1341
52.1397
52.1453
52.151
52.1566
52.1623
52.168
52.1737
52.1794
52.1852
52.1909
52.1967
52.2025
52.2083
52.2141
52.2199
52.2257
52.2316
52.2374
52.2433
52.2492
52.2551
52.261
52.2669
52.2728
52.2788
52.2847
52.2907
52.2966
52.3026
52.3086
52.3146
52.3206
52.3266
52.3327
52.3387
52.3448
52.3508
52.3569
52.363
52.369
52.3751
52.3812
52.3873
52.3934
52.3995
52.4057
52.4118
52.4179
52.4241
52.4302
52.4364
52.4425
52.4487
52.4548
52.461
52.4672
52.4733
52.4795
52.4857
52.4919
52.4981
52.5043
52.5105
52.5167
52.5229
52.5291
52.5353
52.5415
52.5477
52.5539
52.5601
52.5663
52.5725
52.5787
52.5849
52.5911
52.5973
52.6035
52.6097
52.6159
52.6221
52.6283
52.6345
52.6407
52.6469
52.6531
52.6593
52.6655
52.6717
52.6778
52.684
52.6902
52.6963
52.7025
52.7087
52.7148
52.721
52.7271
52.7332
52.7394
52.7455
52.7516
52.7577
52.7638
52.7699
52.776
52.7821
52.7882
52.7943
52.8003
52.8064
52.8124
52.8185
52.8245
52.8305
52.8365
52.8425
52.8485
52.8545
52.8605
52.8665
52.8724
52.8784
52.8843
52.8902
52.8961
52.902
52.9079
52.9138
52.9197
52.9256
52.9314
52.9372
52.9431
52.9489
52.9547
52.9605
52.9662
52.972
52.9777
52.9835
52.9892
52.9949
53.0006
53.0063
53.012
53.0176
53.0233
53.0289
53.0345
53.0401
53.0457
53.0512
53.0568
53.0623
53.0678
53.0734
53.0788
53.0843
53.0898
53.0952
53.1007
53.1061
53.1115
53.1168
53.1222
53.1275
53.1329
53.1382
53.1435
53.1488
53.154
53.1593
53.1645
53.1697
53.1749
53.1801
53.1852
53.1904
53.1955
53.2006
53.2057
53.2107
53.2158
53.2208
53.2258
53.2308
53.2358
53.2407
53.2457
53.2506
53.2555
53.2604
53.2652
53.2701
53.2749
53.2797
53.2845
53.2892
53.294
53.2987
53.3034
53.3081
53.3127
53.3174
53.3219
53.3267
53.3311
53.3359
53.3402
53.345
53.3492
53.354
53.3581
53.3629
53.367
53.3717
53.3758
53.3805
53.3845
53.3891
53.3931
53.3977
53.4016
53.4062
53.4101
53.4147
53.4184
53.4232
51.5367
51.5387
51.5417
51.5446
51.5474
51.55
51.5524
51.5547
51.557
51.5591
51.5611
51.5629
51.5647
51.5664
51.568
51.5696
51.571
51.5724
51.5739
51.5753
51.5767
51.5781
51.5795
51.5809
51.5824
51.5838
51.5854
51.5869
51.5885
51.5901
51.5917
51.5934
51.5951
51.5969
51.5987
51.6005
51.6024
51.6043
51.6062
51.6082
51.6102
51.6123
51.6143
51.6164
51.6186
51.6208
51.623
51.6252
51.6275
51.6299
51.6322
51.6346
51.637
51.6395
51.642
51.6445
51.6471
51.6497
51.6523
51.655
51.6577
51.6604
51.6632
51.666
51.6689
51.6717
51.6746
51.6776
51.6805
51.6835
51.6866
51.6897
51.6928
51.6959
51.6991
51.7023
51.7055
51.7088
51.7121
51.7154
51.7188
51.7221
51.7256
51.729
51.7325
51.736
51.7396
51.7432
51.7468