/*--------------------------------*- C++ -*----------------------------------*\
| =========                 |                                                 |
| \\      /  F ield         | OpenFOAM: The Open Source CFD Toolbox           |
|  \\    /   O peration     | Version:  3.0.x                                 |
|   \\  /    A nd           | Web:      www.OpenFOAM.org                      |
|    \\/     M anipulation  |                                                 |
\*---------------------------------------------------------------------------*/
FoamFile
{
    version     2.0;
    format      ascii;
    class       volScalarField;
    location    "0.54";
    object      T;
}
// * * * * * * * * * * * * * * * * * * * * * * * * * * * * * * * * * * * * * //

dimensions      [0 0 0 1 0 0 0];

internalField   nonuniform List<scalar> 
27600
(
776.658
776.637
776.603
776.572
776.543
776.518
776.495
776.474
776.456
776.44
776.427
776.416
776.407
776.4
776.395
776.392
776.391
776.39
776.391
776.392
776.394
776.397
776.401
776.404
776.408
776.413
776.417
776.422
776.426
776.431
776.436
776.441
776.446
776.452
776.457
776.463
776.468
776.474
776.48
776.486
776.492
776.498
776.504
776.51
776.517
776.523
776.53
776.537
776.544
776.551
776.558
776.565
776.572
776.58
776.587
776.595
776.603
776.61
776.618
776.626
776.635
776.643
776.651
776.66
776.668
776.677
776.685
776.694
776.703
776.712
776.721
776.731
776.74
776.749
776.759
776.769
776.778
776.788
776.798
776.808
776.818
776.828
776.839
776.849
776.86
776.87
776.881
776.892
776.902
776.913
776.925
776.936
776.948
776.96
776.972
776.984
776.996
777.008
777.02
777.032
777.043
777.055
777.067
777.078
777.09
777.102
777.114
777.126
777.139
777.151
777.164
777.177
777.19
777.203
777.217
777.23
777.244
777.258
777.271
777.285
777.299
777.313
777.326
777.34
777.354
777.368
777.382
777.396
777.41
777.425
777.439
777.453
777.467
777.482
777.496
777.51
777.524
777.539
777.553
777.568
777.582
777.597
777.612
777.627
777.642
777.658
777.674
777.69
777.706
777.722
777.738
777.754
777.77
777.785
777.801
777.817
777.833
777.848
777.864
777.88
777.895
777.911
777.927
777.943
777.96
777.976
777.992
778.009
778.025
778.042
778.059
778.076
778.092
778.109
778.126
778.143
778.16
778.177
778.194
778.211
778.229
778.246
778.263
778.28
778.298
778.315
778.333
778.35
778.368
778.385
778.403
778.42
778.438
778.456
778.473
778.491
778.509
778.527
778.545
778.562
778.58
778.598
778.616
778.634
778.652
778.67
778.688
778.706
778.724
778.743
778.761
778.779
778.797
778.815
778.833
778.852
778.87
778.888
778.906
778.925
778.943
778.961
778.98
778.998
779.016
779.035
779.053
779.072
779.09
779.108
779.127
779.145
779.164
779.182
779.201
779.219
779.237
779.256
779.274
779.293
779.311
779.33
779.348
779.367
779.385
779.404
779.422
779.44
779.459
779.477
779.496
779.514
779.533
779.551
779.569
779.588
779.606
779.625
779.643
779.661
779.68
779.698
779.716
779.735
779.753
779.771
779.789
779.808
779.826
779.844
779.862
779.88
779.898
779.917
779.935
779.953
779.971
779.989
780.007
780.025
780.043
780.061
780.079
780.097
780.114
780.132
780.15
780.168
780.186
780.203
780.221
780.239
780.256
780.274
780.292
780.309
780.327
780.344
780.361
780.379
780.396
780.414
780.431
780.448
780.465
780.483
780.5
780.517
780.534
780.551
780.568
780.585
780.602
780.619
780.635
780.652
780.669
780.686
780.702
780.719
780.735
780.752
780.768
780.785
780.801
780.818
780.834
780.85
780.866
780.883
780.899
780.915
780.931
780.947
780.963
780.978
780.994
781.01
781.026
781.041
781.057
781.073
781.088
781.104
781.119
781.134
781.15
781.165
781.18
781.195
781.21
781.225
781.24
781.255
781.27
781.285
781.3
781.314
781.329
781.343
781.358
781.372
781.387
781.401
781.415
781.43
781.444
781.458
781.472
781.486
781.5
781.515
781.527
781.542
781.554
781.57
781.581
781.597
781.608
781.624
781.635
781.651
781.661
781.678
781.687
781.705
781.713
781.731
781.739
781.756
781.764
781.782
781.789
781.807
781.815
781.832
781.84
781.857
781.865
781.884
776.649
776.628
776.594
776.563
776.535
776.509
776.486
776.466
776.448
776.432
776.418
776.408
776.399
776.392
776.386
776.383
776.382
776.382
776.382
776.383
776.386
776.389
776.392
776.396
776.4
776.404
776.409
776.413
776.418
776.423
776.428
776.433
776.438
776.443
776.449
776.454
776.46
776.466
776.472
776.478
776.484
776.49
776.496
776.502
776.509
776.516
776.522
776.529
776.536
776.543
776.55
776.557
776.565
776.572
776.58
776.587
776.595
776.603
776.611
776.619
776.627
776.635
776.644
776.652
776.661
776.669
776.678
776.687
776.696
776.705
776.714
776.723
776.733
776.742
776.752
776.761
776.771
776.781
776.791
776.801
776.811
776.821
776.831
776.842
776.853
776.863
776.874
776.884
776.895
776.906
776.918
776.929
776.941
776.953
776.964
776.976
776.988
777.001
777.013
777.025
777.036
777.048
777.06
777.072
777.084
777.096
777.108
777.12
777.132
777.144
777.157
777.17
777.183
777.196
777.21
777.223
777.237
777.251
777.265
777.279
777.292
777.306
777.32
777.334
777.348
777.362
777.376
777.39
777.404
777.418
777.433
777.447
777.461
777.476
777.49
777.504
777.518
777.533
777.547
777.562
777.576
777.591
777.606
777.621
777.636
777.652
777.668
777.684
777.699
777.716
777.732
777.748
777.764
777.78
777.796
777.811
777.827
777.843
777.858
777.874
777.89
777.906
777.922
777.938
777.954
777.971
777.987
778.003
778.02
778.037
778.053
778.07
778.087
778.104
778.121
778.138
778.155
778.172
778.189
778.206
778.223
778.241
778.258
778.275
778.293
778.31
778.327
778.345
778.362
778.38
778.398
778.415
778.433
778.45
778.468
778.486
778.504
778.521
778.539
778.557
778.575
778.593
778.611
778.629
778.647
778.665
778.683
778.701
778.719
778.737
778.755
778.774
778.792
778.81
778.828
778.846
778.865
778.883
778.901
778.919
778.938
778.956
778.974
778.993
779.011
779.03
779.048
779.066
779.085
779.103
779.122
779.14
779.158
779.177
779.195
779.214
779.232
779.251
779.269
779.288
779.306
779.324
779.343
779.361
779.38
779.398
779.417
779.435
779.454
779.472
779.49
779.509
779.527
779.546
779.564
779.583
779.601
779.619
779.638
779.656
779.674
779.693
779.711
779.729
779.748
779.766
779.784
779.802
779.821
779.839
779.857
779.875
779.893
779.911
779.929
779.948
779.966
779.984
780.002
780.02
780.038
780.056
780.074
780.091
780.109
780.127
780.145
780.163
780.18
780.198
780.216
780.234
780.251
780.269
780.286
780.304
780.321
780.339
780.356
780.374
780.391
780.408
780.426
780.443
780.46
780.477
780.495
780.512
780.529
780.546
780.563
780.58
780.597
780.613
780.63
780.647
780.664
780.681
780.697
780.714
780.73
780.747
780.763
780.78
780.796
780.813
780.829
780.845
780.861
780.877
780.894
780.91
780.926
780.942
780.957
780.973
780.989
781.005
781.021
781.036
781.052
781.067
781.083
781.098
781.114
781.129
781.144
781.16
781.175
781.19
781.205
781.22
781.235
781.25
781.265
781.28
781.294
781.309
781.324
781.338
781.353
781.367
781.382
781.396
781.41
781.425
781.439
781.453
781.467
781.481
781.495
781.509
781.522
781.537
781.549
781.565
781.576
781.592
781.603
781.619
781.63
781.646
781.656
781.673
781.682
781.7
781.708
781.726
781.734
781.751
781.759
781.777
781.784
781.802
781.81
781.827
781.835
781.852
781.86
781.877
776.649
776.628
776.594
776.563
776.535
776.509
776.486
776.466
776.448
776.432
776.418
776.408
776.399
776.392
776.387
776.383
776.382
776.382
776.382
776.383
776.386
776.389
776.392
776.396
776.4
776.404
776.409
776.413
776.418
776.423
776.428
776.433
776.438
776.444
776.449
776.454
776.46
776.466
776.472
776.478
776.484
776.49
776.496
776.502
776.509
776.516
776.522
776.529
776.536
776.543
776.55
776.557
776.565
776.572
776.58
776.587
776.595
776.603
776.611
776.619
776.627
776.635
776.644
776.652
776.661
776.669
776.678
776.687
776.696
776.705
776.714
776.723
776.733
776.742
776.752
776.761
776.771
776.781
776.791
776.801
776.811
776.821
776.831
776.842
776.853
776.863
776.874
776.884
776.895
776.906
776.918
776.929
776.941
776.953
776.964
776.976
776.988
777.001
777.013
777.025
777.036
777.048
777.06
777.072
777.084
777.096
777.108
777.12
777.132
777.144
777.157
777.17
777.183
777.196
777.21
777.223
777.237
777.251
777.265
777.279
777.292
777.306
777.32
777.334
777.348
777.362
777.376
777.39
777.404
777.418
777.433
777.447
777.461
777.476
777.49
777.504
777.518
777.533
777.547
777.562
777.576
777.591
777.606
777.621
777.636
777.652
777.668
777.684
777.699
777.715
777.732
777.748
777.764
777.78
777.795
777.811
777.827
777.843
777.858
777.874
777.89
777.906
777.922
777.938
777.954
777.97
777.987
778.003
778.02
778.037
778.053
778.07
778.087
778.104
778.121
778.138
778.155
778.172
778.189
778.206
778.223
778.241
778.258
778.275
778.293
778.31
778.327
778.345
778.362
778.38
778.397
778.415
778.433
778.45
778.468
778.486
778.504
778.521
778.539
778.557
778.575
778.593
778.611
778.629
778.647
778.665
778.683
778.701
778.719
778.737
778.755
778.774
778.792
778.81
778.828
778.846
778.865
778.883
778.901
778.919
778.938
778.956
778.974
778.993
779.011
779.029
779.048
779.066
779.085
779.103
779.122
779.14
779.158
779.177
779.195
779.214
779.232
779.251
779.269
779.288
779.306
779.324
779.343
779.361
779.38
779.398
779.417
779.435
779.454
779.472
779.49
779.509
779.527
779.546
779.564
779.583
779.601
779.619
779.638
779.656
779.674
779.693
779.711
779.729
779.748
779.766
779.784
779.802
779.821
779.839
779.857
779.875
779.893
779.911
779.929
779.948
779.966
779.984
780.002
780.02
780.038
780.056
780.074
780.091
780.109
780.127
780.145
780.163
780.18
780.198
780.216
780.234
780.251
780.269
780.286
780.304
780.321
780.339
780.356
780.374
780.391
780.408
780.426
780.443
780.46
780.477
780.495
780.512
780.529
780.546
780.563
780.58
780.597
780.613
780.63
780.647
780.664
780.681
780.697
780.714
780.73
780.747
780.763
780.78
780.796
780.813
780.829
780.845
780.861
780.877
780.894
780.91
780.926
780.942
780.957
780.973
780.989
781.005
781.021
781.036
781.052
781.067
781.083
781.098
781.114
781.129
781.144
781.16
781.175
781.19
781.205
781.22
781.235
781.25
781.265
781.28
781.294
781.309
781.324
781.338
781.353
781.367
781.382
781.396
781.41
781.425
781.439
781.453
781.467
781.481
781.495
781.509
781.522
781.537
781.549
781.565
781.576
781.592
781.603
781.619
781.63
781.646
781.656
781.673
781.682
781.7
781.708
781.726
781.734
781.751
781.759
781.777
781.784
781.802
781.81
781.827
781.835
781.852
781.86
781.876
776.649
776.628
776.594
776.563
776.535
776.509
776.486
776.466
776.448
776.432
776.419
776.408
776.399
776.392
776.387
776.384
776.382
776.382
776.383
776.384
776.386
776.389
776.392
776.396
776.4
776.405
776.409
776.414
776.418
776.423
776.428
776.433
776.438
776.444
776.449
776.455
776.46
776.466
776.472
776.478
776.484
776.49
776.496
776.503
776.509
776.516
776.522
776.529
776.536
776.543
776.55
776.557
776.565
776.572
776.58
776.587
776.595
776.603
776.611
776.619
776.627
776.635
776.644
776.652
776.661
776.669
776.678
776.687
776.696
776.705
776.714
776.723
776.733
776.742
776.752
776.761
776.771
776.781
776.791
776.801
776.811
776.821
776.832
776.842
776.853
776.863
776.874
776.885
776.895
776.906
776.918
776.929
776.941
776.953
776.965
776.977
776.989
777.001
777.013
777.025
777.037
777.048
777.06
777.072
777.084
777.096
777.108
777.12
777.132
777.145
777.157
777.17
777.183
777.196
777.21
777.223
777.237
777.251
777.265
777.279
777.292
777.306
777.32
777.334
777.348
777.362
777.376
777.39
777.404
777.418
777.433
777.447
777.461
777.476
777.49
777.504
777.518
777.533
777.547
777.562
777.576
777.591
777.606
777.621
777.636
777.652
777.668
777.684
777.7
777.716
777.732
777.748
777.764
777.78
777.796
777.811
777.827
777.843
777.858
777.874
777.89
777.906
777.922
777.938
777.954
777.971
777.987
778.003
778.02
778.037
778.053
778.07
778.087
778.104
778.121
778.138
778.155
778.172
778.189
778.206
778.223
778.241
778.258
778.275
778.293
778.31
778.327
778.345
778.362
778.38
778.397
778.415
778.433
778.45
778.468
778.486
778.504
778.521
778.539
778.557
778.575
778.593
778.611
778.629
778.647
778.665
778.683
778.701
778.719
778.737
778.755
778.774
778.792
778.81
778.828
778.846
778.865
778.883
778.901
778.919
778.938
778.956
778.974
778.993
779.011
779.029
779.048
779.066
779.085
779.103
779.122
779.14
779.158
779.177
779.195
779.214
779.232
779.251
779.269
779.288
779.306
779.324
779.343
779.361
779.38
779.398
779.417
779.435
779.454
779.472
779.49
779.509
779.527
779.546
779.564
779.583
779.601
779.619
779.638
779.656
779.674
779.693
779.711
779.729
779.748
779.766
779.784
779.802
779.821
779.839
779.857
779.875
779.893
779.911
779.929
779.948
779.966
779.984
780.002
780.02
780.038
780.056
780.074
780.091
780.109
780.127
780.145
780.163
780.18
780.198
780.216
780.234
780.251
780.269
780.286
780.304
780.321
780.339
780.356
780.374
780.391
780.408
780.426
780.443
780.46
780.477
780.495
780.512
780.529
780.546
780.563
780.58
780.597
780.613
780.63
780.647
780.664
780.681
780.697
780.714
780.73
780.747
780.763
780.78
780.796
780.813
780.829
780.845
780.861
780.877
780.894
780.91
780.926
780.942
780.957
780.973
780.989
781.005
781.021
781.036
781.052
781.067
781.083
781.098
781.114
781.129
781.144
781.16
781.175
781.19
781.205
781.22
781.235
781.25
781.265
781.28
781.294
781.309
781.324
781.338
781.353
781.367
781.382
781.396
781.41
781.425
781.439
781.453
781.467
781.481
781.495
781.509
781.522
781.537
781.549
781.565
781.576
781.592
781.603
781.619
781.63
781.646
781.656
781.673
781.682
781.7
781.708
781.726
781.734
781.751
781.759
781.777
781.784
781.802
781.81
781.827
781.835
781.85
781.861
781.875
776.649
776.628
776.595
776.564
776.535
776.51
776.486
776.466
776.448
776.432
776.419
776.408
776.399
776.392
776.387
776.384
776.383
776.383
776.383
776.384
776.386
776.389
776.393
776.396
776.4
776.405
776.409
776.414
776.418
776.423
776.428
776.433
776.439
776.444
776.449
776.455
776.46
776.466
776.472
776.478
776.484
776.49
776.496
776.503
776.509
776.516
776.523
776.529
776.536
776.543
776.55
776.558
776.565
776.572
776.58
776.587
776.595
776.603
776.611
776.619
776.627
776.635
776.644
776.652
776.661
776.669
776.678
776.687
776.696
776.705
776.714
776.723
776.733
776.742
776.752
776.761
776.771
776.781
776.791
776.801
776.811
776.821
776.832
776.842
776.853
776.863
776.874
776.885
776.895
776.906
776.918
776.929
776.941
776.953
776.965
776.977
776.989
777.001
777.013
777.025
777.037
777.048
777.06
777.072
777.084
777.096
777.108
777.12
777.132
777.145
777.157
777.17
777.183
777.196
777.21
777.224
777.237
777.251
777.265
777.279
777.292
777.306
777.32
777.334
777.348
777.362
777.376
777.39
777.404
777.418
777.433
777.447
777.461
777.476
777.49
777.504
777.518
777.533
777.547
777.562
777.576
777.591
777.606
777.621
777.636
777.652
777.668
777.684
777.7
777.716
777.732
777.748
777.764
777.78
777.796
777.811
777.827
777.843
777.858
777.874
777.89
777.906
777.922
777.938
777.954
777.971
777.987
778.003
778.02
778.037
778.053
778.07
778.087
778.104
778.121
778.138
778.155
778.172
778.189
778.206
778.223
778.241
778.258
778.275
778.293
778.31
778.327
778.345
778.362
778.38
778.397
778.415
778.433
778.45
778.468
778.486
778.504
778.521
778.539
778.557
778.575
778.593
778.611
778.629
778.647
778.665
778.683
778.701
778.719
778.737
778.755
778.774
778.792
778.81
778.828
778.846
778.865
778.883
778.901
778.919
778.938
778.956
778.974
778.993
779.011
779.029
779.048
779.066
779.085
779.103
779.122
779.14
779.158
779.177
779.195
779.214
779.232
779.251
779.269
779.288
779.306
779.324
779.343
779.361
779.38
779.398
779.417
779.435
779.454
779.472
779.49
779.509
779.527
779.546
779.564
779.583
779.601
779.619
779.638
779.656
779.674
779.693
779.711
779.729
779.748
779.766
779.784
779.802
779.821
779.839
779.857
779.875
779.893
779.911
779.929
779.948
779.966
779.984
780.002
780.02
780.038
780.056
780.074
780.091
780.109
780.127
780.145
780.163
780.18
780.198
780.216
780.234
780.251
780.269
780.286
780.304
780.321
780.339
780.356
780.374
780.391
780.408
780.426
780.443
780.46
780.477
780.495
780.512
780.529
780.546
780.563
780.58
780.597
780.613
780.63
780.647
780.664
780.681
780.697
780.714
780.73
780.747
780.763
780.78
780.796
780.813
780.829
780.845
780.861
780.877
780.894
780.91
780.926
780.942
780.957
780.973
780.989
781.005
781.021
781.036
781.052
781.067
781.083
781.098
781.114
781.129
781.144
781.16
781.175
781.19
781.205
781.22
781.235
781.25
781.265
781.28
781.294
781.309
781.324
781.338
781.353
781.367
781.382
781.396
781.41
781.425
781.439
781.453
781.467
781.482
781.495
781.51
781.522
781.537
781.549
781.565
781.576
781.592
781.603
781.62
781.63
781.646
781.656
781.673
781.682
781.7
781.708
781.726
781.734
781.751
781.759
781.777
781.784
781.802
781.81
781.827
781.834
781.852
781.86
781.876
776.649
776.628
776.595
776.564
776.535
776.51
776.486
776.466
776.448
776.432
776.419
776.408
776.399
776.392
776.387
776.384
776.383
776.383
776.383
776.384
776.386
776.389
776.393
776.396
776.4
776.405
776.409
776.414
776.418
776.423
776.428
776.433
776.439
776.444
776.449
776.455
776.46
776.466
776.472
776.478
776.484
776.49
776.496
776.503
776.509
776.516
776.523
776.529
776.536
776.543
776.55
776.558
776.565
776.572
776.58
776.587
776.595
776.603
776.611
776.619
776.627
776.635
776.644
776.652
776.661
776.669
776.678
776.687
776.696
776.705
776.714
776.723
776.733
776.742
776.752
776.761
776.771
776.781
776.791
776.801
776.811
776.821
776.832
776.842
776.853
776.863
776.874
776.885
776.895
776.906
776.918
776.929
776.941
776.953
776.965
776.977
776.989
777.001
777.013
777.025
777.037
777.048
777.06
777.072
777.084
777.096
777.108
777.12
777.132
777.145
777.157
777.17
777.183
777.196
777.21
777.224
777.237
777.251
777.265
777.279
777.292
777.306
777.32
777.334
777.348
777.362
777.376
777.39
777.404
777.418
777.433
777.447
777.461
777.476
777.49
777.504
777.518
777.533
777.547
777.562
777.576
777.591
777.606
777.621
777.636
777.652
777.668
777.684
777.7
777.716
777.732
777.748
777.764
777.78
777.796
777.811
777.827
777.843
777.858
777.874
777.89
777.906
777.922
777.938
777.954
777.971
777.987
778.003
778.02
778.037
778.053
778.07
778.087
778.104
778.121
778.138
778.155
778.172
778.189
778.206
778.223
778.241
778.258
778.275
778.293
778.31
778.327
778.345
778.362
778.38
778.397
778.415
778.433
778.45
778.468
778.486
778.504
778.521
778.539
778.557
778.575
778.593
778.611
778.629
778.647
778.665
778.683
778.701
778.719
778.737
778.755
778.774
778.792
778.81
778.828
778.846
778.865
778.883
778.901
778.919
778.938
778.956
778.974
778.993
779.011
779.029
779.048
779.066
779.085
779.103
779.122
779.14
779.158
779.177
779.195
779.214
779.232
779.251
779.269
779.288
779.306
779.324
779.343
779.361
779.38
779.398
779.417
779.435
779.454
779.472
779.49
779.509
779.527
779.546
779.564
779.583
779.601
779.619
779.638
779.656
779.674
779.693
779.711
779.729
779.748
779.766
779.784
779.802
779.821
779.839
779.857
779.875
779.893
779.911
779.929
779.948
779.966
779.984
780.002
780.02
780.038
780.056
780.074
780.091
780.109
780.127
780.145
780.163
780.18
780.198
780.216
780.234
780.251
780.269
780.286
780.304
780.321
780.339
780.356
780.374
780.391
780.408
780.426
780.443
780.46
780.477
780.495
780.512
780.529
780.546
780.563
780.58
780.597
780.613
780.63
780.647
780.664
780.681
780.697
780.714
780.73
780.747
780.763
780.78
780.796
780.813
780.829
780.845
780.861
780.877
780.894
780.91
780.926
780.942
780.957
780.973
780.989
781.005
781.021
781.036
781.052
781.067
781.083
781.098
781.114
781.129
781.144
781.16
781.175
781.19
781.205
781.22
781.235
781.25
781.265
781.28
781.294
781.309
781.324
781.338
781.353
781.367
781.382
781.396
781.41
781.425
781.439
781.453
781.467
781.481
781.495
781.509
781.523
781.537
781.55
781.565
781.577
781.592
781.604
781.618
781.632
781.644
781.659
781.67
781.685
781.697
781.71
781.724
781.735
781.749
781.762
781.773
781.789
781.797
781.814
781.823
781.838
781.847
781.863
781.872
776.649
776.628
776.594
776.563
776.535
776.509
776.486
776.466
776.448
776.432
776.419
776.408
776.399
776.392
776.387
776.384
776.382
776.382
776.383
776.384
776.386
776.389
776.392
776.396
776.4
776.405
776.409
776.414
776.418
776.423
776.428
776.433
776.438
776.444
776.449
776.455
776.46
776.466
776.472
776.478
776.484
776.49
776.496
776.503
776.509
776.516
776.522
776.529
776.536
776.543
776.55
776.557
776.565
776.572
776.58
776.587
776.595
776.603
776.611
776.619
776.627
776.635
776.644
776.652
776.661
776.669
776.678
776.687
776.696
776.705
776.714
776.723
776.733
776.742
776.752
776.761
776.771
776.781
776.791
776.801
776.811
776.821
776.832
776.842
776.853
776.863
776.874
776.885
776.895
776.906
776.918
776.929
776.941
776.953
776.965
776.977
776.989
777.001
777.013
777.025
777.037
777.048
777.06
777.072
777.084
777.096
777.108
777.12
777.132
777.145
777.157
777.17
777.183
777.196
777.21
777.223
777.237
777.251
777.265
777.279
777.292
777.306
777.32
777.334
777.348
777.362
777.376
777.39
777.404
777.418
777.433
777.447
777.461
777.476
777.49
777.504
777.518
777.533
777.547
777.562
777.576
777.591
777.606
777.621
777.636
777.652
777.668
777.684
777.7
777.716
777.732
777.748
777.764
777.78
777.796
777.811
777.827
777.843
777.858
777.874
777.89
777.906
777.922
777.938
777.954
777.971
777.987
778.003
778.02
778.037
778.053
778.07
778.087
778.104
778.121
778.138
778.155
778.172
778.189
778.206
778.223
778.241
778.258
778.275
778.293
778.31
778.327
778.345
778.362
778.38
778.397
778.415
778.433
778.45
778.468
778.486
778.504
778.521
778.539
778.557
778.575
778.593
778.611
778.629
778.647
778.665
778.683
778.701
778.719
778.737
778.755
778.774
778.792
778.81
778.828
778.846
778.865
778.883
778.901
778.919
778.938
778.956
778.974
778.993
779.011
779.029
779.048
779.066
779.085
779.103
779.122
779.14
779.158
779.177
779.195
779.214
779.232
779.251
779.269
779.288
779.306
779.324
779.343
779.361
779.38
779.398
779.417
779.435
779.454
779.472
779.49
779.509
779.527
779.546
779.564
779.583
779.601
779.619
779.638
779.656
779.674
779.693
779.711
779.729
779.748
779.766
779.784
779.802
779.821
779.839
779.857
779.875
779.893
779.911
779.929
779.948
779.966
779.984
780.002
780.02
780.038
780.056
780.074
780.091
780.109
780.127
780.145
780.163
780.18
780.198
780.216
780.234
780.251
780.269
780.286
780.304
780.321
780.339
780.356
780.374
780.391
780.408
780.426
780.443
780.46
780.477
780.495
780.512
780.529
780.546
780.563
780.58
780.597
780.613
780.63
780.647
780.664
780.681
780.697
780.714
780.73
780.747
780.763
780.78
780.796
780.813
780.829
780.845
780.861
780.877
780.894
780.91
780.926
780.942
780.957
780.973
780.989
781.005
781.021
781.036
781.052
781.067
781.083
781.098
781.114
781.129
781.144
781.16
781.175
781.19
781.205
781.22
781.235
781.25
781.265
781.28
781.294
781.309
781.324
781.338
781.353
781.367
781.382
781.396
781.41
781.425
781.439
781.453
781.467
781.481
781.495
781.509
781.523
781.536
781.551
781.563
781.578
781.59
781.605
781.617
781.632
781.645
781.657
781.672
781.683
781.698
781.71
781.722
781.738
781.746
781.764
781.772
781.789
781.797
781.814
781.823
781.837
781.848
781.863
781.873
776.649
776.628
776.594
776.563
776.535
776.509
776.486
776.466
776.448
776.432
776.418
776.408
776.399
776.392
776.387
776.383
776.382
776.382
776.382
776.383
776.386
776.389
776.392
776.396
776.4
776.404
776.409
776.413
776.418
776.423
776.428
776.433
776.438
776.444
776.449
776.454
776.46
776.466
776.472
776.478
776.484
776.49
776.496
776.502
776.509
776.516
776.522
776.529
776.536
776.543
776.55
776.557
776.565
776.572
776.58
776.587
776.595
776.603
776.611
776.619
776.627
776.635
776.644
776.652
776.661
776.669
776.678
776.687
776.696
776.705
776.714
776.723
776.733
776.742
776.752
776.761
776.771
776.781
776.791
776.801
776.811
776.821
776.831
776.842
776.853
776.863
776.874
776.884
776.895
776.906
776.918
776.929
776.941
776.953
776.964
776.976
776.988
777.001
777.013
777.025
777.036
777.048
777.06
777.072
777.084
777.096
777.108
777.12
777.132
777.144
777.157
777.17
777.183
777.196
777.21
777.223
777.237
777.251
777.265
777.279
777.292
777.306
777.32
777.334
777.348
777.362
777.376
777.39
777.404
777.418
777.433
777.447
777.461
777.476
777.49
777.504
777.518
777.533
777.547
777.562
777.576
777.591
777.606
777.621
777.636
777.652
777.668
777.684
777.699
777.715
777.732
777.748
777.764
777.78
777.795
777.811
777.827
777.843
777.858
777.874
777.89
777.906
777.922
777.938
777.954
777.97
777.987
778.003
778.02
778.037
778.053
778.07
778.087
778.104
778.121
778.138
778.155
778.172
778.189
778.206
778.223
778.241
778.258
778.275
778.293
778.31
778.327
778.345
778.362
778.38
778.397
778.415
778.433
778.45
778.468
778.486
778.504
778.521
778.539
778.557
778.575
778.593
778.611
778.629
778.647
778.665
778.683
778.701
778.719
778.737
778.755
778.774
778.792
778.81
778.828
778.846
778.865
778.883
778.901
778.919
778.938
778.956
778.974
778.993
779.011
779.029
779.048
779.066
779.085
779.103
779.122
779.14
779.158
779.177
779.195
779.214
779.232
779.251
779.269
779.288
779.306
779.324
779.343
779.361
779.38
779.398
779.417
779.435
779.454
779.472
779.49
779.509
779.527
779.546
779.564
779.583
779.601
779.619
779.638
779.656
779.674
779.693
779.711
779.729
779.748
779.766
779.784
779.802
779.821
779.839
779.857
779.875
779.893
779.911
779.929
779.948
779.966
779.984
780.002
780.02
780.038
780.056
780.074
780.091
780.109
780.127
780.145
780.163
780.18
780.198
780.216
780.234
780.251
780.269
780.286
780.304
780.321
780.339
780.356
780.374
780.391
780.408
780.426
780.443
780.46
780.477
780.495
780.512
780.529
780.546
780.563
780.58
780.597
780.613
780.63
780.647
780.664
780.68
780.697
780.714
780.73
780.747
780.763
780.78
780.796
780.813
780.829
780.845
780.861
780.877
780.894
780.91
780.926
780.942
780.957
780.973
780.989
781.005
781.021
781.036
781.052
781.067
781.083
781.098
781.114
781.129
781.144
781.16
781.175
781.19
781.205
781.22
781.235
781.25
781.265
781.28
781.294
781.309
781.324
781.338
781.353
781.367
781.382
781.396
781.41
781.425
781.439
781.453
781.467
781.481
781.495
781.509
781.523
781.536
781.551
781.563
781.578
781.59
781.606
781.616
781.633
781.643
781.659
781.67
781.685
781.695
781.712
781.721
781.739
781.747
781.764
781.772
781.789
781.797
781.814
781.822
781.839
781.847
781.865
781.871
776.649
776.628
776.594
776.563
776.535
776.509
776.486
776.466
776.448
776.432
776.418
776.408
776.399
776.392
776.386
776.383
776.382
776.382
776.382
776.383
776.386
776.389
776.392
776.396
776.4
776.404
776.409
776.413
776.418
776.423
776.428
776.433
776.438
776.443
776.449
776.454
776.46
776.466
776.472
776.478
776.484
776.49
776.496
776.502
776.509
776.516
776.522
776.529
776.536
776.543
776.55
776.557
776.565
776.572
776.58
776.587
776.595
776.603
776.611
776.619
776.627
776.635
776.644
776.652
776.661
776.669
776.678
776.687
776.696
776.705
776.714
776.723
776.733
776.742
776.752
776.761
776.771
776.781
776.791
776.801
776.811
776.821
776.831
776.842
776.853
776.863
776.874
776.884
776.895
776.906
776.918
776.929
776.941
776.953
776.964
776.976
776.988
777.001
777.013
777.025
777.036
777.048
777.06
777.072
777.084
777.096
777.108
777.12
777.132
777.144
777.157
777.17
777.183
777.196
777.21
777.223
777.237
777.251
777.265
777.279
777.292
777.306
777.32
777.334
777.348
777.362
777.376
777.39
777.404
777.418
777.433
777.447
777.461
777.476
777.49
777.504
777.518
777.533
777.547
777.562
777.576
777.591
777.606
777.621
777.636
777.652
777.668
777.684
777.699
777.716
777.732
777.748
777.764
777.78
777.796
777.811
777.827
777.843
777.858
777.874
777.89
777.906
777.922
777.938
777.954
777.971
777.987
778.003
778.02
778.037
778.053
778.07
778.087
778.104
778.121
778.138
778.155
778.172
778.189
778.206
778.223
778.241
778.258
778.275
778.293
778.31
778.327
778.345
778.362
778.38
778.398
778.415
778.433
778.45
778.468
778.486
778.504
778.521
778.539
778.557
778.575
778.593
778.611
778.629
778.647
778.665
778.683
778.701
778.719
778.737
778.755
778.774
778.792
778.81
778.828
778.846
778.865
778.883
778.901
778.919
778.938
778.956
778.974
778.993
779.011
779.03
779.048
779.066
779.085
779.103
779.122
779.14
779.158
779.177
779.195
779.214
779.232
779.251
779.269
779.288
779.306
779.324
779.343
779.361
779.38
779.398
779.417
779.435
779.454
779.472
779.49
779.509
779.527
779.546
779.564
779.583
779.601
779.619
779.638
779.656
779.674
779.693
779.711
779.729
779.748
779.766
779.784
779.802
779.821
779.839
779.857
779.875
779.893
779.911
779.929
779.948
779.966
779.984
780.002
780.02
780.038
780.056
780.074
780.091
780.109
780.127
780.145
780.163
780.18
780.198
780.216
780.234
780.251
780.269
780.286
780.304
780.321
780.339
780.356
780.374
780.391
780.408
780.426
780.443
780.46
780.477
780.495
780.512
780.529
780.546
780.563
780.58
780.597
780.613
780.63
780.647
780.664
780.681
780.697
780.714
780.73
780.747
780.763
780.78
780.796
780.813
780.829
780.845
780.861
780.877
780.894
780.91
780.926
780.942
780.957
780.973
780.989
781.005
781.021
781.036
781.052
781.067
781.083
781.098
781.114
781.129
781.144
781.16
781.175
781.19
781.205
781.22
781.235
781.25
781.265
781.28
781.294
781.309
781.324
781.338
781.353
781.367
781.382
781.396
781.41
781.425
781.439
781.453
781.467
781.481
781.495
781.509
781.523
781.536
781.551
781.563
781.579
781.59
781.606
781.616
781.633
781.643
781.66
781.669
781.687
781.695
781.713
781.721
781.739
781.746
781.764
781.772
781.789
781.797
781.814
781.822
781.839
781.847
781.866
781.872
776.658
776.637
776.603
776.572
776.543
776.518
776.495
776.474
776.456
776.44
776.427
776.416
776.407
776.4
776.395
776.392
776.391
776.39
776.391
776.392
776.394
776.397
776.401
776.404
776.408
776.413
776.417
776.422
776.426
776.431
776.436
776.441
776.446
776.452
776.457
776.463
776.468
776.474
776.48
776.486
776.492
776.498
776.504
776.51
776.517
776.523
776.53
776.537
776.544
776.551
776.558
776.565
776.572
776.58
776.587
776.595
776.603
776.61
776.618
776.626
776.635
776.643
776.651
776.66
776.668
776.677
776.685
776.694
776.703
776.712
776.721
776.731
776.74
776.749
776.759
776.769
776.778
776.788
776.798
776.808
776.818
776.828
776.839
776.849
776.86
776.87
776.881
776.892
776.902
776.913
776.925
776.936
776.948
776.96
776.972