/*--------------------------------*- C++ -*----------------------------------*\
| =========                 |                                                 |
| \\      /  F ield         | OpenFOAM: The Open Source CFD Toolbox           |
|  \\    /   O peration     | Version:  3.0.x                                 |
|   \\  /    A nd           | Web:      www.OpenFOAM.org                      |
|    \\/     M anipulation  |                                                 |
\*---------------------------------------------------------------------------*/
FoamFile
{
    version     2.0;
    format      ascii;
    class       volVectorField;
    location    "0.09";
    object      U;
}
// * * * * * * * * * * * * * * * * * * * * * * * * * * * * * * * * * * * * * //

dimensions      [0 1 -1 0 0 0 0];

internalField   nonuniform List<vector> 
6900
(
(42.6925 0.000101908 0)
(42.677 9.33197e-05 0)
(42.6592 9.07395e-05 0)
(42.6421 9.16488e-05 0)
(42.6259 9.2295e-05 0)
(42.61 9.24641e-05 0)
(42.5941 9.22065e-05 0)
(42.5784 9.13098e-05 0)
(42.5629 8.94794e-05 0)
(42.5477 8.64089e-05 0)
(42.5328 8.18644e-05 0)
(42.5182 7.57649e-05 0)
(42.5039 6.82376e-05 0)
(42.4898 5.9623e-05 0)
(42.4759 5.04216e-05 0)
(42.4621 4.12007e-05 0)
(42.4484 3.24957e-05 0)
(42.4347 2.47248e-05 0)
(42.4209 1.81435e-05 0)
(42.4068 1.28406e-05 0)
(42.3924 8.76472e-06 0)
(42.3777 5.769e-06 0)
(42.3626 3.65867e-06 0)
(42.3473 2.22656e-06 0)
(42.3316 1.30351e-06 0)
(42.3152 7.20175e-07 0)
(42.2985 3.6262e-07 0)
(42.2815 1.49138e-07 0)
(42.2642 1.7345e-08 0)
(42.2468 -4.18969e-08 0)
(42.2292 -7.39284e-08 0)
(42.2116 -9.0733e-08 0)
(42.1941 -9.94771e-08 0)
(42.1768 -1.03691e-07 0)
(42.1598 -1.05354e-07 0)
(42.1432 -1.0578e-07 0)
(42.127 -1.05282e-07 0)
(42.1113 -1.04101e-07 0)
(42.0963 -1.02601e-07 0)
(42.0819 -1.00714e-07 0)
(42.0683 -9.85139e-08 0)
(42.0554 -9.60788e-08 0)
(42.0433 -9.34462e-08 0)
(42.032 -9.06588e-08 0)
(42.0216 -8.77422e-08 0)
(42.0119 -8.47458e-08 0)
(42.003 -8.17026e-08 0)
(41.9948 -7.86203e-08 0)
(41.9873 -7.55821e-08 0)
(41.9805 -7.26018e-08 0)
(41.9743 -6.95962e-08 0)
(41.9686 -6.67303e-08 0)
(41.9635 -6.39894e-08 0)
(41.9587 -6.12889e-08 0)
(41.9543 -5.87521e-08 0)
(41.9503 -5.6357e-08 0)
(41.9465 -5.4124e-08 0)
(41.9429 -5.20514e-08 0)
(41.9395 -5.01355e-08 0)
(41.9362 -4.84191e-08 0)
(41.9331 -4.68698e-08 0)
(41.93 -4.54986e-08 0)
(41.927 -4.49096e-08 0)
(41.9241 -4.40254e-08 0)
(41.9212 -4.15559e-08 0)
(41.9183 -4.17045e-08 0)
(41.9155 -4.13978e-08 0)
(41.9128 -4.11246e-08 0)
(41.9103 -4.09849e-08 0)
(41.9078 -4.09825e-08 0)
(41.9055 -4.10847e-08 0)
(41.9034 -4.13241e-08 0)
(41.9014 -4.16522e-08 0)
(41.8997 -4.20659e-08 0)
(41.8982 -4.25848e-08 0)
(41.897 -4.31341e-08 0)
(41.896 -4.37501e-08 0)
(41.8953 -4.44058e-08 0)
(41.8949 -4.51029e-08 0)
(41.8948 -4.54476e-08 0)
(41.8949 -4.6494e-08 0)
(41.8953 -4.69734e-08 0)
(41.8959 -4.76146e-08 0)
(41.8967 -4.8144e-08 0)
(41.8977 -4.86032e-08 0)
(41.8989 -4.90063e-08 0)
(41.9001 -4.92598e-08 0)
(41.9015 -4.94659e-08 0)
(41.9029 -4.95419e-08 0)
(41.9042 -4.94787e-08 0)
(41.9055 -4.93641e-08 0)
(41.9068 -4.90996e-08 0)
(41.9078 -4.873e-08 0)
(41.9087 -4.83146e-08 0)
(41.9094 -4.77774e-08 0)
(41.9098 -4.7201e-08 0)
(41.91 -4.67258e-08 0)
(41.9098 -4.60666e-08 0)
(41.9093 -4.52986e-08 0)
(41.9085 -4.45713e-08 0)
(41.9073 -4.38116e-08 0)
(41.9057 -4.31604e-08 0)
(41.9038 -4.23915e-08 0)
(41.9015 -4.17143e-08 0)
(41.8988 -4.10405e-08 0)
(41.8958 -4.03567e-08 0)
(41.8924 -3.97791e-08 0)
(41.8887 -3.91424e-08 0)
(41.8847 -3.86262e-08 0)
(41.8803 -3.80933e-08 0)
(41.8757 -3.75573e-08 0)
(41.8706 -3.73311e-08 0)
(41.8652 -3.65511e-08 0)
(41.8595 -3.61688e-08 0)
(41.8533 -3.56363e-08 0)
(41.8467 -3.50818e-08 0)
(41.8396 -3.44346e-08 0)
(41.832 -3.37119e-08 0)
(41.8238 -3.29318e-08 0)
(41.815 -3.20011e-08 0)
(41.8055 -3.10588e-08 0)
(41.7954 -3.001e-08 0)
(41.7846 -2.89425e-08 0)
(41.7731 -2.78754e-08 0)
(41.761 -2.68126e-08 0)
(41.7481 -2.5905e-08 0)
(41.7347 -2.51368e-08 0)
(41.7207 -2.46474e-08 0)
(41.7061 -2.44909e-08 0)
(41.6912 -2.4709e-08 0)
(41.676 -2.53848e-08 0)
(41.6606 -2.6485e-08 0)
(41.6452 -2.80569e-08 0)
(41.6298 -3.00438e-08 0)
(41.6146 -3.24253e-08 0)
(41.5997 -3.51507e-08 0)
(41.5854 -3.81359e-08 0)
(41.5715 -4.1365e-08 0)
(41.5584 -4.4825e-08 0)
(41.5461 -4.85257e-08 0)
(41.5347 -5.24387e-08 0)
(41.5241 -5.65078e-08 0)
(41.5146 -6.06983e-08 0)
(41.506 -6.49165e-08 0)
(41.4985 -6.91088e-08 0)
(41.4919 -7.31935e-08 0)
(41.4862 -7.70961e-08 0)
(41.4813 -8.07543e-08 0)
(41.4771 -8.40987e-08 0)
(41.4736 -8.71033e-08 0)
(41.4706 -8.97143e-08 0)
(41.4679 -9.19214e-08 0)
(41.4655 -9.3719e-08 0)
(41.4631 -9.51024e-08 0)
(41.4607 -9.6102e-08 0)
(41.4581 -9.67475e-08 0)
(41.4552 -9.70799e-08 0)
(41.4519 -9.71617e-08 0)
(41.4481 -9.70433e-08 0)
(41.4438 -9.67991e-08 0)
(41.4389 -9.64817e-08 0)
(41.4334 -9.61454e-08 0)
(41.4274 -9.58447e-08 0)
(41.4208 -9.56105e-08 0)
(41.4137 -9.54719e-08 0)
(41.406 -9.54293e-08 0)
(41.3978 -9.54875e-08 0)
(41.3892 -9.56367e-08 0)
(41.3801 -9.58599e-08 0)
(41.3706 -9.61571e-08 0)
(41.3606 -9.65257e-08 0)
(41.3503 -9.6952e-08 0)
(41.3395 -9.74493e-08 0)
(41.3284 -9.80328e-08 0)
(41.3169 -9.87183e-08 0)
(41.3051 -9.95466e-08 0)
(41.2931 -1.00492e-07 0)
(41.2808 -1.01682e-07 0)
(41.2685 -1.02943e-07 0)
(41.2561 -1.0468e-07 0)
(41.2439 -1.06262e-07 0)
(41.2318 -1.08695e-07 0)
(41.22 -1.0936e-07 0)
(41.2087 -1.13177e-07 0)
(41.1979 -1.16468e-07 0)
(41.1878 -1.20412e-07 0)
(41.1784 -1.22179e-07 0)
(41.1697 -1.23951e-07 0)
(41.1617 -1.28989e-07 0)
(41.1543 -1.32248e-07 0)
(41.1476 -1.34133e-07 0)
(41.1412 -1.26047e-07 0)
(41.1351 -4.88966e-08 0)
(41.129 5.73169e-07 0)
(41.1229 5.06501e-06 0)
(41.1158 3.5302e-05 0)
(41.1037 0.00024979 0)
(41.0585 0.00176244 0)
(40.878 0.0160224 0)
(38.423 0.0829296 0)
(42.6943 0.000129275 0)
(42.6806 9.98466e-05 0)
(42.6646 8.67832e-05 0)
(42.6493 8.61703e-05 0)
(42.6349 8.60995e-05 0)
(42.6208 8.54972e-05 0)
(42.6067 8.47156e-05 0)
(42.5928 8.35393e-05 0)
(42.579 8.16393e-05 0)
(42.5656 7.87063e-05 0)
(42.5523 7.45082e-05 0)
(42.5392 6.8951e-05 0)
(42.5263 6.21291e-05 0)
(42.5134 5.43335e-05 0)
(42.5006 4.60034e-05 0)
(42.4877 3.76438e-05 0)
(42.4747 2.97374e-05 0)
(42.4615 2.26641e-05 0)
(42.4481 1.66599e-05 0)
(42.4343 1.18104e-05 0)
(42.4201 8.07377e-06 0)
(42.4055 5.3201e-06 0)
(42.3905 3.37474e-06 0)
(42.3753 2.04712e-06 0)
(42.3595 1.19591e-06 0)
(42.3432 6.52896e-07 0)
(42.3265 3.18098e-07 0)
(42.3095 1.21417e-07 0)
(42.2922 9.84026e-09 0)
(42.2748 -5.06659e-08 0)
(42.2572 -8.70388e-08 0)
(42.2396 -1.06784e-07 0)
(42.2222 -1.17818e-07 0)
(42.2048 -1.23853e-07 0)
(42.1878 -1.26949e-07 0)
(42.1712 -1.28547e-07 0)
(42.155 -1.28926e-07 0)
(42.1393 -1.28346e-07 0)
(42.1243 -1.27246e-07 0)
(42.1099 -1.25516e-07 0)
(42.0963 -1.2325e-07 0)
(42.0834 -1.20549e-07 0)
(42.0713 -1.17471e-07 0)
(42.06 -1.14065e-07 0)
(42.0495 -1.10376e-07 0)
(42.0398 -1.06463e-07 0)
(42.0309 -1.02391e-07 0)
(42.0228 -9.81709e-08 0)
(42.0153 -9.39256e-08 0)
(42.0085 -8.96637e-08 0)
(42.0023 -8.53094e-08 0)
(41.9966 -8.10788e-08 0)
(41.9914 -7.69514e-08 0)
(41.9867 -7.28424e-08 0)
(41.9823 -6.89286e-08 0)
(41.9782 -6.51793e-08 0)
(41.9744 -6.16283e-08 0)
(41.9708 -5.82798e-08 0)
(41.9674 -5.51443e-08 0)
(41.9641 -5.22833e-08 0)
(41.961 -4.96608e-08 0)
(41.9579 -4.73346e-08 0)
(41.9549 -4.62541e-08 0)
(41.952 -4.45147e-08 0)
(41.9491 -4.01694e-08 0)
(41.9462 -4.02863e-08 0)
(41.9434 -3.96139e-08 0)
(41.9408 -3.89497e-08 0)
(41.9382 -3.85327e-08 0)
(41.9357 -3.83476e-08 0)
(41.9334 -3.83691e-08 0)
(41.9313 -3.86347e-08 0)
(41.9293 -3.90683e-08 0)
(41.9276 -3.96768e-08 0)
(41.9261 -4.04646e-08 0)
(41.9249 -4.13255e-08 0)
(41.9239 -4.23064e-08 0)
(41.9232 -4.33569e-08 0)
(41.9228 -4.44451e-08 0)
(41.9227 -4.49948e-08 0)
(41.9228 -4.66797e-08 0)
(41.9232 -4.75129e-08 0)
(41.9238 -4.85092e-08 0)
(41.9246 -4.93396e-08 0)
(41.9256 -5.00339e-08 0)
(41.9267 -5.06183e-08 0)
(41.928 -5.09446e-08 0)
(41.9293 -5.11594e-08 0)
(41.9307 -5.11472e-08 0)
(41.9321 -5.08972e-08 0)
(41.9334 -5.05338e-08 0)
(41.9346 -4.99069e-08 0)
(41.9357 -4.9098e-08 0)
(41.9366 -4.81774e-08 0)
(41.9373 -4.70539e-08 0)
(41.9377 -4.58406e-08 0)
(41.9378 -4.47796e-08 0)
(41.9376 -4.34387e-08 0)
(41.9371 -4.18019e-08 0)
(41.9363 -4.02568e-08 0)
(41.9351 -3.86993e-08 0)
(41.9335 -3.73068e-08 0)
(41.9316 -3.57413e-08 0)
(41.9293 -3.43385e-08 0)
(41.9266 -3.29424e-08 0)
(41.9236 -3.1567e-08 0)
(41.9202 -3.0351e-08 0)
(41.9165 -2.90621e-08 0)
(41.9125 -2.79692e-08 0)
(41.9081 -2.69157e-08 0)
(41.9035 -2.58402e-08 0)
(41.8984 -2.53417e-08 0)
(41.893 -2.36593e-08 0)
(41.8873 -2.30152e-08 0)
(41.8811 -2.20439e-08 0)
(41.8745 -2.09984e-08 0)
(41.8674 -1.98496e-08 0)
(41.8597 -1.86182e-08 0)
(41.8516 -1.73273e-08 0)
(41.8428 -1.58954e-08 0)
(41.8333 -1.44937e-08 0)
(41.8232 -1.3059e-08 0)
(41.8124 -1.17041e-08 0)
(41.8009 -1.0489e-08 0)
(41.7887 -9.44218e-09 0)
(41.7759 -8.70613e-09 0)
(41.7624 -8.2697e-09 0)
(41.7484 -8.23843e-09 0)
(41.7339 -8.62558e-09 0)
(41.719 -9.45752e-09 0)
(41.7038 -1.07849e-08 0)
(41.6884 -1.25889e-08 0)
(41.6729 -1.49236e-08 0)
(41.6575 -1.77627e-08 0)
(41.6423 -2.11055e-08 0)
(41.6275 -2.49242e-08 0)
(41.6131 -2.91515e-08 0)
(41.5993 -3.37746e-08 0)
(41.5862 -3.87759e-08 0)
(41.5738 -4.41456e-08 0)
(41.5624 -4.98137e-08 0)
(41.5519 -5.56951e-08 0)
(41.5423 -6.17146e-08 0)
(41.5338 -6.77385e-08 0)
(41.5262 -7.36784e-08 0)
(41.5196 -7.94147e-08 0)
(41.5139 -8.48308e-08 0)
(41.509 -8.98222e-08 0)
(41.5048 -9.42617e-08 0)
(41.5013 -9.80713e-08 0)
(41.4983 -1.01189e-07 0)
(41.4956 -1.03574e-07 0)
(41.4932 -1.0522e-07 0)
(41.4908 -1.06143e-07 0)
(41.4884 -1.06382e-07 0)
(41.4858 -1.06004e-07 0)
(41.4829 -1.05103e-07 0)
(41.4795 -1.0377e-07 0)
(41.4758 -1.02119e-07 0)
(41.4714 -1.00265e-07 0)
(41.4666 -9.83128e-08 0)
(41.4611 -9.63571e-08 0)
(41.4551 -9.44829e-08 0)
(41.4485 -9.27423e-08 0)
(41.4413 -9.11785e-08 0)
(41.4336 -8.98034e-08 0)
(41.4255 -8.86101e-08 0)
(41.4168 -8.75811e-08 0)
(41.4077 -8.66985e-08 0)
(41.3982 -8.59433e-08 0)
(41.3882 -8.53039e-08 0)
(41.3779 -8.4778e-08 0)
(41.3671 -8.43632e-08 0)
(41.356 -8.40972e-08 0)
(41.3445 -8.4003e-08 0)
(41.3327 -8.41432e-08 0)
(41.3207 -8.45062e-08 0)
(41.3084 -8.52912e-08 0)
(41.2961 -8.62419e-08 0)
(41.2837 -8.80125e-08 0)
(41.2714 -8.96208e-08 0)
(41.2594 -9.27843e-08 0)
(41.2476 -9.47551e-08 0)
(41.2363 -9.94227e-08 0)
(41.2255 -1.02299e-07 0)
(41.2153 -1.06437e-07 0)
(41.2059 -1.10433e-07 0)
(41.1972 -1.15e-07 0)
(41.1892 -1.19263e-07 0)
(41.1819 -1.20058e-07 0)
(41.1751 -1.13761e-07 0)
(41.1687 -3.49116e-08 0)
(41.1626 4.92325e-07 0)
(41.1566 4.28213e-06 0)
(41.1504 3.12537e-05 0)
(41.1433 0.000214316 0)
(41.1314 0.00150113 0)
(41.0873 0.0104133 0)
(40.9118 0.075304 0)
(39.0136 0.357771 0)
(42.6943 1.28374e-12 0)
(42.6805 1.7241e-12 0)
(42.6646 9.31702e-13 0)
(42.6493 1.59256e-12 0)
(42.6349 8.37966e-13 0)
(42.6208 -1.15367e-12 0)
(42.6067 -5.9725e-12 0)
(42.5927 -9.34896e-12 0)
(42.579 -8.6467e-12 0)
(42.5655 -7.12488e-12 0)
(42.5523 -7.27041e-12 0)
(42.5392 -9.2452e-12 0)
(42.5262 -1.1326e-11 0)
(42.5134 -1.36433e-11 0)
(42.5006 -1.57079e-11 0)
(42.4877 -1.60544e-11 0)
(42.4747 -1.62891e-11 0)
(42.4615 -1.52689e-11 0)
(42.448 -1.34483e-11 0)
(42.4343 -1.2431e-11 0)
(42.4201 -1.23123e-11 0)
(42.4055 -1.22784e-11 0)
(42.3905 -1.3367e-11 0)
(42.3753 -1.3607e-11 0)
(42.3595 -1.36821e-11 0)
(42.3432 -1.1067e-11 0)
(42.3265 -7.02167e-12 0)
(42.3095 -3.86926e-12 0)
(42.2922 -4.64776e-12 0)
(42.2748 -7.79398e-13 0)
(42.2572 1.96641e-12 0)
(42.2396 3.09735e-12 0)
(42.2222 3.04523e-12 0)
(42.2048 2.89478e-12 0)
(42.1878 3.8146e-12 0)
(42.1712 5.3969e-12 0)
(42.155 8.88553e-12 0)
(42.1393 1.07849e-11 0)
(42.1243 9.8562e-12 0)
(42.1099 8.79823e-12 0)
(42.0963 6.13003e-12 0)
(42.0834 4.09335e-12 0)
(42.0713 3.85587e-12 0)
(42.06 4.76663e-12 0)
(42.0495 5.38052e-12 0)
(42.0398 2.47648e-12 0)
(42.0309 1.49774e-12 0)
(42.0228 2.48888e-12 0)
(42.0153 4.31049e-12 0)
(42.0085 1.90164e-12 0)
(42.0023 1.61595e-12 0)
(41.9966 -4.61309e-13 0)
(41.9914 -3.09722e-12 0)
(41.9867 -5.14654e-12 0)
(41.9823 -4.45618e-12 0)
(41.9782 -2.49482e-12 0)
(41.9744 -1.55272e-13 0)
(41.9708 -4.0103e-13 0)
(41.9674 -3.58801e-12 0)
(41.9641 -5.81272e-12 0)
(41.961 -7.16947e-12 0)
(41.9579 -1.04065e-11 0)
(41.9549 -9.82139e-12 0)
(41.952 -8.33276e-12 0)
(41.9491 -6.13074e-12 0)
(41.9462 -4.31815e-12 0)
(41.9434 -4.03199e-12 0)
(41.9408 -5.43557e-12 0)
(41.9382 -5.19397e-12 0)
(41.9357 -3.97075e-12 0)
(41.9334 -3.0915e-12 0)
(41.9313 -2.84539e-12 0)
(41.9293 -2.25907e-12 0)
(41.9276 3.51e-13 0)
(41.9261 2.07881e-12 0)
(41.9249 2.71915e-12 0)
(41.9239 1.01505e-12 0)
(41.9232 -2.05271e-12 0)
(41.9228 -6.97913e-12 0)
(41.9227 -1.15634e-11 0)
(41.9228 -1.52027e-11 0)
(41.9232 -1.62503e-11 0)
(41.9238 -1.66422e-11 0)
(41.9246 -1.59544e-11 0)
(41.9256 -1.68579e-11 0)
(41.9267 -1.74533e-11 0)
(41.928 -1.48404e-11 0)
(41.9293 -1.46364e-11 0)
(41.9307 -1.41029e-11 0)
(41.9321 -1.15677e-11 0)
(41.9334 -9.26278e-12 0)
(41.9346 -5.54622e-12 0)
(41.9357 -2.08358e-12 0)
(41.9366 1.52151e-13 0)
(41.9373 1.67447e-13 0)
(41.9377 -2.0887e-12 0)
(41.9378 -4.98875e-12 0)
(41.9376 -7.03828e-12 0)
(41.9371 -5.89179e-12 0)
(41.9363 -5.10837e-12 0)
(41.9351 -6.10703e-12 0)
(41.9335 -5.73815e-12 0)
(41.9316 -5.39983e-12 0)
(41.9293 -6.63762e-12 0)
(41.9266 -6.86077e-12 0)
(41.9236 -5.03895e-12 0)
(41.9202 -4.29354e-12 0)
(41.9165 -3.33316e-12 0)
(41.9125 -3.38958e-12 0)
(41.9081 -1.38917e-12 0)
(41.9035 1.70572e-12 0)
(41.8984 6.06753e-12 0)
(41.893 9.15623e-12 0)
(41.8873 1.24391e-11 0)
(41.8811 1.44212e-11 0)
(41.8745 1.50218e-11 0)
(41.8674 1.45094e-11 0)
(41.8597 1.52838e-11 0)
(41.8516 1.62302e-11 0)
(41.8428 1.4705e-11 0)
(41.8333 1.37991e-11 0)
(41.8232 1.07436e-11 0)
(41.8124 6.99349e-12 0)
(41.8009 3.40946e-12 0)
(41.7887 7.61959e-13 0)
(41.7759 1.65854e-12 0)
(41.7624 1.69529e-12 0)
(41.7484 1.18641e-12 0)
(41.7339 1.53179e-12 0)
(41.719 9.33142e-13 0)
(41.7038 7.23641e-13 0)
(41.6884 -9.93908e-14 0)
(41.6729 4.54206e-13 0)
(41.6575 -6.66534e-13 0)
(41.6423 2.58285e-13 0)
(41.6275 1.62115e-12 0)
(41.6131 2.9325e-12 0)
(41.5993 1.0286e-12 0)
(41.5862 -2.41097e-12 0)
(41.5738 -4.23664e-12 0)
(41.5624 -7.6244e-12 0)
(41.5519 -8.68161e-12 0)
(41.5423 -2.71724e-12 0)
(41.5338 3.58058e-12 0)
(41.5262 6.06517e-12 0)
(41.5196 7.85499e-12 0)
(41.5139 6.42325e-12 0)
(41.509 7.42735e-12 0)
(41.5048 8.23638e-12 0)
(41.5013 8.48701e-12 0)
(41.4983 6.5758e-12 0)
(41.4956 4.3185e-12 0)
(41.4932 -7.47492e-13 0)
(41.4908 -1.15064e-12 0)
(41.4884 -5.50523e-13 0)
(41.4858 7.40124e-13 0)
(41.4829 4.92444e-12 0)
(41.4795 6.12137e-12 0)
(41.4758 6.57641e-12 0)
(41.4714 7.69177e-12 0)
(41.4666 7.04899e-12 0)
(41.4611 5.85881e-12 0)
(41.4551 4.692e-12 0)
(41.4485 2.03558e-12 0)
(41.4413 -6.08289e-13 0)
(41.4336 -1.0533e-12 0)
(41.4255 -1.62232e-12 0)
(41.4168 -2.88782e-12 0)
(41.4077 -4.67425e-12 0)
(41.3982 -5.72039e-12 0)
(41.3882 -5.52144e-12 0)
(41.3779 -4.40097e-12 0)
(41.3671 -4.67353e-12 0)
(41.356 -4.76559e-12 0)
(41.3445 -2.99803e-12 0)
(41.3327 -5.19857e-12 0)
(41.3207 5.47089e-12 0)
(41.3084 -1.26517e-11 0)
(41.2961 2.75811e-11 0)
(41.2837 -5.45279e-11 0)
(41.2714 6.37594e-11 0)
(41.2594 -2.8462e-10 0)
(41.2476 -8.30146e-10 0)
(41.2363 -9.75183e-10 0)
(41.2255 4.59591e-10 0)
(41.2153 7.11231e-10 0)
(41.2059 -3.39508e-10 0)
(41.1972 -2.77959e-09 0)
(41.1892 -1.10317e-09 0)
(41.1819 2.44282e-09 0)
(41.1751 2.16173e-08 0)
(41.1687 1.72475e-07 0)
(41.1626 1.18112e-06 0)
(41.1566 8.25695e-06 0)
(41.1505 6.24112e-05 0)
(41.1442 0.000434331 0)
(41.1373 0.00309033 0)
(41.1283 0.0217387 0)
(41.1045 0.154852 0)
(40.9517 0.706733 0)
(42.6943 -0.000129275 0)
(42.6806 -9.98466e-05 0)
(42.6646 -8.67832e-05 0)
(42.6493 -8.61703e-05 0)
(42.6349 -8.60995e-05 0)
(42.6208 -8.54972e-05 0)
(42.6067 -8.47156e-05 0)
(42.5928 -8.35394e-05 0)
(42.579 -8.16393e-05 0)
(42.5656 -7.87063e-05 0)
(42.5523 -7.45082e-05 0)
(42.5392 -6.8951e-05 0)
(42.5263 -6.21291e-05 0)
(42.5134 -5.43335e-05 0)
(42.5006 -4.60034e-05 0)
(42.4877 -3.76438e-05 0)
(42.4747 -2.97374e-05 0)
(42.4615 -2.26641e-05 0)
(42.4481 -1.66599e-05 0)
(42.4343 -1.18104e-05 0)
(42.4201 -8.07377e-06 0)
(42.4055 -5.3201e-06 0)
(42.3905 -3.37473e-06 0)
(42.3753 -2.04711e-06 0)
(42.3595 -1.19591e-06 0)
(42.3432 -6.52893e-07 0)
(42.3265 -3.18099e-07 0)
(42.3095 -1.21416e-07 0)
(42.2922 -9.8381e-09 0)
(42.2748 5.06684e-08 0)
(42.2572 8.70378e-08 0)
(42.2396 1.06783e-07 0)
(42.2222 1.17816e-07 0)
(42.2048 1.23853e-07 0)
(42.1878 1.26948e-07 0)
(42.1712 1.28548e-07 0)
(42.155 1.28922e-07 0)
(42.1393 1.28345e-07 0)
(42.1243 1.27246e-07 0)
(42.1099 1.25513e-07 0)
(42.0963 1.23249e-07 0)
(42.0834 1.20548e-07 0)
(42.0713 1.1747e-07 0)
(42.06 1.14064e-07 0)
(42.0495 1.10372e-07 0)
(42.0398 1.06465e-07 0)
(42.0309 1.0239e-07 0)
(42.0228 9.81687e-08 0)
(42.0153 9.39237e-08 0)
(42.0085 8.96647e-08 0)
(42.0023 8.53094e-08 0)
(41.9966 8.10775e-08 0)
(41.9914 7.69523e-08 0)
(41.9867 7.28472e-08 0)
(41.9823 6.89324e-08 0)
(41.9782 6.51786e-08 0)
(41.9744 6.16281e-08 0)
(41.9708 5.82785e-08 0)
(41.9674 5.51466e-08 0)
(41.9641 5.22833e-08 0)
(41.961 4.9662e-08 0)
(41.9579 4.73372e-08 0)
(41.9549 4.62564e-08 0)
(41.952 4.4516e-08 0)
(41.9491 4.01696e-08 0)
(41.9462 4.02865e-08 0)
(41.9434 3.96135e-08 0)
(41.9408 3.89521e-08 0)
(41.9382 3.85333e-08 0)
(41.9357 3.83491e-08 0)
(41.9334 3.83687e-08 0)
(41.9313 3.864e-08 0)
(41.9293 3.90715e-08 0)
(41.9276 3.9679e-08 0)
(41.9261 4.04627e-08 0)
(41.9249 4.13217e-08 0)
(41.9239 4.23081e-08 0)
(41.9232 4.33582e-08 0)
(41.9228 4.44473e-08 0)
(41.9227 4.50012e-08 0)
(41.9228 4.66851e-08 0)
(41.9232 4.75189e-08 0)
(41.9238 4.85111e-08 0)
(41.9246 4.93406e-08 0)
(41.9256 5.00358e-08 0)
(41.9267 5.06182e-08 0)
(41.928 5.09421e-08 0)
(41.9293 5.11622e-08 0)
(41.9307 5.1149e-08 0)
(41.9321 5.09011e-08 0)
(41.9334 5.05335e-08 0)
(41.9346 4.99043e-08 0)
(41.9357 4.90969e-08 0)
(41.9366 4.8176e-08 0)
(41.9373 4.70527e-08 0)
(41.9377 4.58413e-08 0)
(41.9378 4.47813e-08 0)
(41.9376 4.34416e-08 0)
(41.9371 4.18022e-08 0)
(41.9363 4.02568e-08 0)
(41.9351 3.87028e-08 0)
(41.9335 3.73061e-08 0)
(41.9316 3.5744e-08 0)
(41.9293 3.43401e-08 0)
(41.9266 3.29432e-08 0)
(41.9236 3.15677e-08 0)
(41.9202 3.03509e-08 0)
(41.9165 2.90624e-08 0)
(41.9125 2.79693e-08 0)
(41.9081 2.69102e-08 0)
(41.9035 2.5837e-08 0)
(41.8984 2.53399e-08 0)
(41.893 2.36567e-08 0)
(41.8873 2.30115e-08 0)
(41.8811 2.20423e-08 0)
(41.8745 2.09958e-08 0)
(41.8674 1.98474e-08 0)
(41.8597 1.86167e-08 0)
(41.8516 1.73256e-08 0)
(41.8428 1.58919e-08 0)
(41.8333 1.44913e-08 0)
(41.8232 1.30567e-08 0)
(41.8124 1.17035e-08 0)
(41.8009 1.04869e-08 0)
(41.7887 9.4433e-09 0)
(41.7759 8.70652e-09 0)
(41.7624 8.27015e-09 0)
(41.7484 8.23867e-09 0)
(41.7339 8.62504e-09 0)
(41.719 9.45732e-09 0)
(41.7038 1.07846e-08 0)
(41.6884 1.25893e-08 0)
(41.6729 1.49231e-08 0)
(41.6575 1.77638e-08 0)
(41.6423 2.11056e-08 0)
(41.6275 2.49222e-08 0)
(41.6131 2.915e-08 0)
(41.5993 3.37743e-08 0)
(41.5862 3.87776e-08 0)
(41.5738 4.41461e-08 0)
(41.5624 4.98157e-08 0)
(41.5519 5.56982e-08 0)
(41.5423 6.17118e-08 0)
(41.5338 6.7738e-08 0)
(41.5262 7.36772e-08 0)
(41.5196 7.94132e-08 0)
(41.5139 8.48333e-08 0)
(41.509 8.98228e-08 0)
(41.5048 9.42576e-08 0)
(41.5013 9.8071e-08 0)
(41.4983 1.01188e-07 0)
(41.4956 1.03574e-07 0)
(41.4932 1.05221e-07 0)
(41.4908 1.06143e-07 0)
(41.4884 1.06384e-07 0)
(41.4858 1.06007e-07 0)
(41.4829 1.051e-07 0)
(41.4795 1.03768e-07 0)
(41.4758 1.02117e-07 0)
(41.4714 1.00265e-07 0)
(41.4666 9.83121e-08 0)
(41.4611 9.63574e-08 0)
(41.4551 9.44803e-08 0)
(41.4485 9.27405e-08 0)
(41.4413 9.11793e-08 0)
(41.4336 8.98035e-08 0)
(41.4255 8.86097e-08 0)
(41.4168 8.7581e-08 0)
(41.4077 8.66994e-08 0)
(41.3982 8.59445e-08 0)
(41.3882 8.53057e-08 0)
(41.3779 8.47787e-08 0)
(41.3671 8.43639e-08 0)
(41.356 8.40987e-08 0)
(41.3445 8.40081e-08 0)
(41.3327 8.41345e-08 0)
(41.3207 8.45226e-08 0)
(41.3084 8.52461e-08 0)
(41.2961 8.63267e-08 0)
(41.2837 8.78658e-08 0)
(41.2714 8.98242e-08 0)
(41.2594 9.22919e-08 0)
(41.2476 9.53638e-08 0)
(41.2363 9.86219e-08 0)
(41.2255 1.0247e-07 0)
(41.2153 1.0602e-07 0)
(41.2059 1.10528e-07 0)
(41.1972 1.14545e-07 0)
(41.1892 1.19203e-07 0)
(41.1819 1.24228e-07 0)
(41.1751 1.40823e-07 0)
(41.1687 2.388e-07 0)
(41.1626 8.99336e-07 0)
(41.1566 5.42476e-06 0)
(41.1507 4.29749e-05 0)
(41.1454 0.000301246 0)
(41.1463 0.00217646 0)
(41.1936 0.0157331 0)
(41.3845 0.131018 0)
(44.3946 0.549171 0)
(42.6925 -0.000101908 0)
(42.677 -9.33197e-05 0)
(42.6592 -9.07395e-05 0)
(42.6421 -9.16488e-05 0)
(42.6259 -9.2295e-05 0)
(42.61 -9.24641e-05 0)
(42.5941 -9.22065e-05 0)
(42.5784 -9.13098e-05 0)
(42.5629 -8.94794e-05 0)
(42.5477 -8.64089e-05 0)
(42.5328 -8.18644e-05 0)
(42.5182 -7.57649e-05 0)
(42.5039 -6.82376e-05 0)
(42.4898 -5.9623e-05 0)
(42.4759 -5.04216e-05 0)
(42.4621 -4.12007e-05 0)
(42.4484 -3.24957e-05 0)
(42.4347 -2.47248e-05 0)
(42.4209 -1.81435e-05 0)
(42.4068 -1.28406e-05 0)
(42.3924 -8.76472e-06 0)
(42.3777 -5.769e-06 0)
(42.3626 -3.65867e-06 0)
(42.3473 -2.22656e-06 0)
(42.3316 -1.30351e-06 0)
(42.3152 -7.20177e-07 0)
(42.2985 -3.6262e-07 0)
(42.2815 -1.49143e-07 0)
(42.2642 -1.73489e-08 0)
(42.2468 4.1895e-08 0)
(42.2292 7.39315e-08 0)
(42.2116 9.07337e-08 0)
(42.1941 9.94781e-08 0)
(42.1768 1.03693e-07 0)
(42.1598 1.05354e-07 0)
(42.1432 1.0578e-07 0)
(42.127 1.05281e-07 0)
(42.1113 1.04101e-07 0)
(42.0963 1.02604e-07 0)
(42.0819 1.00715e-07 0)
(42.0683 9.85161e-08 0)
(42.0554 9.60787e-08 0)
(42.0433 9.34478e-08 0)
(42.032 9.06575e-08 0)
(42.0216 8.77432e-08 0)
(42.0119 8.4747e-08 0)
(42.003 8.17027e-08 0)
(41.9948 7.86229e-08 0)
(41.9873 7.55839e-08 0)
(41.9805 7.26036e-08 0)
(41.9743 6.95957e-08 0)
(41.9686 6.67337e-08 0)
(41.9635 6.39866e-08 0)
(41.9587 6.12875e-08 0)
(41.9543 5.87509e-08 0)
(41.9503 5.63581e-08 0)
(41.9465 5.41257e-08 0)
(41.9429 5.2055e-08 0)
(41.9395 5.01342e-08 0)
(41.9362 4.84174e-08 0)
(41.9331 4.68685e-08 0)
(41.93 4.5497e-08 0)
(41.927 4.49078e-08 0)
(41.9241 4.40247e-08 0)
(41.9212 4.1558e-08 0)
(41.9183 4.17097e-08 0)
(41.9155 4.14012e-08 0)
(41.9128 4.1122e-08 0)
(41.9103 4.09866e-08 0)
(41.9078 4.09838e-08 0)
(41.9055 4.10812e-08 0)
(41.9034 4.13211e-08 0)
(41.9014 4.16455e-08 0)
(41.8997 4.20658e-08 0)
(41.8982 4.25883e-08 0)
(41.897 4.31347e-08 0)
(41.896 4.37497e-08 0)
(41.8953 4.44037e-08 0)
(41.8949 4.50869e-08 0)
(41.8948 4.54374e-08 0)
(41.8949 4.64846e-08 0)
(41.8953 4.69691e-08 0)
(41.8959 4.76105e-08 0)
(41.8967 4.81462e-08 0)
(41.8977 4.86029e-08 0)
(41.8989 4.90068e-08 0)
(41.9001 4.92594e-08 0)
(41.9015 4.94655e-08 0)
(41.9029 4.95396e-08 0)
(41.9042 4.94768e-08 0)
(41.9055 4.9367e-08 0)
(41.9068 4.91031e-08 0)
(41.9078 4.87338e-08 0)
(41.9087 4.8314e-08 0)
(41.9094 4.77808e-08 0)
(41.9098 4.71997e-08 0)
(41.91 4.67261e-08 0)
(41.9098 4.60653e-08 0)
(41.9093 4.53005e-08 0)
(41.9085 4.45667e-08 0)
(41.9073 4.38108e-08 0)
(41.9057 4.31612e-08 0)
(41.9038 4.23873e-08 0)
(41.9015 4.17165e-08 0)
(41.8988 4.10366e-08 0)
(41.8958 4.03546e-08 0)
(41.8924 3.97795e-08 0)
(41.8887 3.91435e-08 0)
(41.8847 3.86267e-08 0)
(41.8803 3.81073e-08 0)
(41.8757 3.75629e-08 0)
(41.8706 3.73331e-08 0)
(41.8652 3.65528e-08 0)
(41.8595 3.61704e-08 0)
(41.8533 3.56379e-08 0)
(41.8467 3.50851e-08 0)
(41.8396 3.44365e-08 0)
(41.832 3.37117e-08 0)
(41.8238 3.29349e-08 0)
(41.815 3.20023e-08 0)
(41.8055 3.10607e-08 0)
(41.7954 3.00132e-08 0)
(41.7846 2.8945e-08 0)
(41.7731 2.78758e-08 0)
(41.761 2.6812e-08 0)
(41.7481 2.59047e-08 0)
(41.7347 2.5138e-08 0)
(41.7207 2.46497e-08 0)
(41.7061 2.44921e-08 0)
(41.6912 2.47103e-08 0)
(41.676 2.53861e-08 0)
(41.6606 2.64838e-08 0)
(41.6452 2.80563e-08 0)
(41.6298 3.00449e-08 0)
(41.6146 3.24278e-08 0)
(41.5997 3.51537e-08 0)
(41.5854 3.81362e-08 0)
(41.5715 4.13671e-08 0)
(41.5584 4.48226e-08 0)
(41.5461 4.85249e-08 0)
(41.5347 5.24335e-08 0)
(41.5241 5.65076e-08 0)
(41.5146 6.06985e-08 0)
(41.506 6.49165e-08 0)
(41.4985 6.911e-08 0)
(41.4919 7.31956e-08 0)
(41.4862 7.70952e-08 0)
(41.4813 8.07545e-08 0)
(41.4771 8.41006e-08 0)
(41.4736 8.71024e-08 0)
(41.4706 8.97152e-08 0)
(41.4679 9.19219e-08 0)
(41.4655 9.372e-08 0)
(41.4631 9.51025e-08 0)
(41.4607 9.61006e-08 0)
(41.4581 9.67437e-08 0)
(41.4552 9.70822e-08 0)
(41.4519 9.71614e-08 0)
(41.4481 9.70436e-08 0)
(41.4438 9.6797e-08 0)
(41.4389 9.64784e-08 0)
(41.4334 9.61459e-08 0)
(41.4274 9.58456e-08 0)
(41.4208 9.56101e-08 0)
(41.4137 9.54713e-08 0)
(41.406 9.54325e-08 0)
(41.3978 9.54892e-08 0)
(41.3892 9.56349e-08 0)
(41.3801 9.58597e-08 0)
(41.3706 9.61577e-08 0)
(41.3606 9.65194e-08 0)
(41.3503 9.69494e-08 0)
(41.3395 9.74465e-08 0)
(41.3284 9.80289e-08 0)
(41.3169 9.87202e-08 0)
(41.3051 9.95381e-08 0)
(41.2931 1.00505e-07 0)
(41.2808 1.01654e-07 0)
(41.2685 1.02994e-07 0)
(41.2561 1.04588e-07 0)
(41.2439 1.06398e-07 0)
(41.2318 1.08474e-07 0)
(41.22 1.10793e-07 0)
(41.2087 1.13344e-07 0)
(41.1979 1.16171e-07 0)
(41.1878 1.19276e-07 0)
(41.1784 1.22612e-07 0)
(41.1697 1.26273e-07 0)
(41.1617 1.30029e-07 0)
(41.1543 1.33973e-07 0)
(41.1476 1.39575e-07 0)
(41.1412 1.57471e-07 0)
(41.1351 2.59565e-07 0)
(41.1291 8.77697e-07 0)
(41.1232 6.75926e-06 0)
(41.118 4.59829e-05 0)
(41.119 0.000338191 0)
(41.1693 0.00267061 0)
(41.3755 0.0381872 0)
(46.4506 0.155813 0)
(37.0525 1.2606 -3.16854e-15)
(36.0034 3.61671 6.35538e-15)
(35.5854 6.29626 -1.19151e-14)
(35.1649 9.00422 2.4622e-14)
(34.4999 11.6803 -2.5405e-14)
(33.631 14.3218 -1.58661e-15)
(32.7546 17.0006 3.56422e-20)
(31.9761 19.8493 -2.20976e-14)
(31.0129 22.7279 -1.02378e-13)
(29.4516 25.2315 1.00799e-13)
(27.2396 27.145 -2.52072e-14)
(24.61 28.5144 -5.2094e-14)
(21.7928 29.5299 2.69197e-14)
(19.2592 30.9637 0)
(17.4782 33.9063 2.51018e-14)
(16.0845 38.6495 2.47283e-14)
(14.2863 44.1911 -2.43746e-14)
(11.5405 48.821 2.41665e-14)
(8.13034 51.0566 1.88572e-16)
(4.54918 51.7697 -1.87885e-16)
(38.1665 1.98414 0)
(37.5438 4.84493 0)
(37.1296 7.99688 -1.61383e-15)
(36.5992 11.1298 -3.22474e-15)
(35.7977 14.2035 8.05313e-15)
(34.7627 17.1942 1.60843e-14)
(33.7464 20.0855 0)
(32.8114 23.1418 9.5767e-15)
(31.4936 26.5199 1.59285e-14)
(29.3425 29.7419 -3.82399e-14)
(26.4747 32.2447 2.54666e-14)
(23.143 34.0316 1.27428e-14)
(19.7829 35.0224 -1.27756e-14)
(17.4581 35.4982 1.28185e-14)
(16.5467 36.8662 0)
(15.6661 40.2828 -1.56095e-15)
(13.5774 45.3486 1.53852e-15)
(9.56612 50.695 -5.33936e-15)
(4.21559 54.2996 -7.62163e-16)
(-0.379742 55.3187 0)
(40.9033 1.55193 -4.11835e-17)
(40.9055 2.55905 -2.09294e-14)
(41.0097 3.58401 2.12566e-14)
(41.1983 4.60852 -2.04309e-14)
(41.4225 5.70427 -2.24101e-14)
(41.6411 6.94654 8.34124e-14)
(41.8019 8.37195 -4.22243e-14)
(41.8863 9.93946 4.0933e-14)
(41.9492 11.5929 -8.32727e-14)
(42.0115 13.4055 1.32929e-15)
(41.9516 15.5158 4.10251e-14)
(41.6139 17.9506 0)
(40.8654 20.676 -4.10162e-14)
(39.5114 23.5923 4.10415e-14)
(37.4608 26.4381 -3.3102e-16)
(35.1863 28.843 0)
(33.3917 30.718 3.32442e-16)
(32.474 32.3533 0)
(32.1214 34.2231 0)
(31.6422 36.533 0)
(44.9043 2.53986 6.31268e-16)
(44.6314 5.84879 -6.33319e-15)
(43.6492 9.78569 -1.26922e-15)
(42.4957 13.8214 2.53519e-15)
(41.4474 17.8025 -2.52437e-15)
(40.4316 21.7201 -4.41089e-19)
(39.2877 25.5692 -9.98232e-15)
(37.8714 29.3086 0)
(36.143 32.9231 0)
(34.1035 36.405 -4.91254e-15)
(31.7294 39.7013 4.88843e-15)
(29.0461 42.8063 0)
(26.0515 45.6704 -4.84337e-15)
(22.7735 48.261 4.82697e-15)
(19.2477 50.556 -4.81003e-15)
(15.5 52.5395 9.58737e-15)
(11.5487 54.1851 -4.78253e-15)
(7.42524 55.4509 0)
(3.21604 56.3215 -2.38023e-15)
(-0.647432 56.7418 0)
(47.8568 1.76192 -9.63233e-16)
(48.791 4.51589 7.38386e-15)
(48.5063 7.82257 5.13673e-15)
(47.722 11.2886 1.02641e-14)
(46.9247 14.8819 0)
(46.1291 18.5987 0)
(45.1991 22.398 1.01626e-14)
(44.0156 26.1949 2.52934e-15)
(42.5115 29.9721 -5.03578e-15)
(40.6928 33.6578 2.50769e-15)
(38.5175 37.2198 1.9978e-14)
(36.0077 40.6078 -1.24403e-14)
(33.1609 43.7761 1.24025e-14)
(29.9932 46.6904 -2.47261e-15)
(26.5339 49.3175 -9.86622e-15)
(22.8226 51.6093 -1.7236e-14)
(18.9076 53.4897 -8.60839e-15)
(14.8398 54.851 -1.22989e-15)
(10.6865 55.5395 7.07703e-15)
(6.70095 55.2268 3.08613e-16)
(1.65137 52.6319 0)
(1.06493 53.7493 0)
(0.925365 56.3266 0)
(1.02654 57.6784 0)
(1.06431 57.4616 0)
(1.07241 57.0686 0)
(1.04468 57.159 0)
(1.03819 57.4892 0)
(1.0492 57.6527 0)
(1.04733 57.6241 0)
(1.03052 57.537 0)
(1.00108 57.4202 0)
(0.959647 57.2281 0)
(0.905976 56.8965 0)
(0.840723 56.3566 0)
(0.764202 55.5458 0)
(0.680435 54.4333 0)
(0.594673 53.03 0)
(0.508502 51.3998 0)
(0.426135 49.6599 0)
(0.348985 47.9393 0)
(0.277475 46.353 0)
(0.214056 44.9842 0)
(0.160421 43.8659 0)
(0.116195 42.9929 0)
(0.0816581 42.3368 0)
(0.0556622 41.8583 0)
(0.0368116 41.5183 0)
(0.0236333 41.2823 0)
(0.0147395 41.1221 0)
(0.00893643 41.0158 0)
(0.00527043 40.9467 0)
(0.0030254 40.9028 0)
(0.00169124 40.8754 0)
(0.000921119 40.8585 0)
(0.000488993 40.848 0)
(0.00025314 40.8415 0)
(0.000127827 40.8371 0)
(6.29881e-05 40.8337 0)
(3.02978e-05 40.8308 0)
(1.42307e-05 40.8279 0)
(6.52966e-06 40.8247 0)
(2.92916e-06 40.8212 0)
(1.28712e-06 40.8172 0)
(5.57109e-07 40.8126 0)
(2.41445e-07 40.8076 0)
(1.09498e-07 40.802 0)
(5.75493e-08 40.7959 0)
(3.83702e-08 40.7894 0)
(2.96488e-08 40.7824 0)
(2.71478e-08 40.775 0)
(2.58831e-08 40.7672 0)
(2.54207e-08 40.7592 0)
(2.53439e-08 40.7509 0)
(2.54304e-08 40.7424 0)
(2.55711e-08 40.7337 0)
(2.57351e-08 40.7249 0)
(2.59362e-08 40.7161 0)
(2.6215e-08 40.7072 0)
(2.66126e-08 40.6982 0)
(2.71244e-08 40.6893 0)
(2.76925e-08 40.6805 0)
(2.82501e-08 40.6717 0)
(2.87661e-08 40.663 0)
(2.92499e-08 40.6544 0)
(2.97126e-08 40.6459 0)
(3.01734e-08 40.6376 0)
(3.06669e-08 40.6294 0)
(3.12273e-08 40.6214 0)
(3.18771e-08 40.6136 0)
(3.26282e-08 40.6059 0)
(3.34937e-08 40.5986 0)
(3.44682e-08 40.5914 0)
(3.55451e-08 40.5846 0)
(3.67251e-08 40.578 0)
(3.80008e-08 40.5717 0)
(3.93684e-08 40.5658 0)
(4.08165e-08 40.5602 0)
(4.23379e-08 40.555 0)
(4.39083e-08 40.5501 0)
(4.55189e-08 40.5456 0)
(4.71473e-08 40.5415 0)
(4.87979e-08 40.5379 0)
(5.05668e-08 40.5346 0)
(5.2509e-08 40.5318 0)
(5.46109e-08 40.5293 0)
(5.68377e-08 40.5273 0)
(5.91651e-08 40.5257 0)
(6.1559e-08 40.5244 0)
(6.39896e-08 40.5235 0)