/*--------------------------------*- C++ -*----------------------------------*\
| =========                 |                                                 |
| \\      /  F ield         | OpenFOAM: The Open Source CFD Toolbox           |
|  \\    /   O peration     | Version:  3.0.x                                 |
|   \\  /    A nd           | Web:      www.OpenFOAM.org                      |
|    \\/     M anipulation  |                                                 |
\*---------------------------------------------------------------------------*/
FoamFile
{
    version     2.0;
    format      ascii;
    class       volScalarField;
    location    "0.40995";
    object      T;
}
// * * * * * * * * * * * * * * * * * * * * * * * * * * * * * * * * * * * * * //

dimensions      [0 0 0 1 0 0 0];

internalField   nonuniform List<scalar> 
13800
(
773.495
773.495
773.495
773.495
773.495
773.495
773.495
773.495
773.495
773.494
773.494
773.494
773.494
773.494
773.494
773.494
773.494
773.494
773.494
773.494
773.494
773.494
773.494
773.494
773.494
773.494
773.494
773.494
773.494
773.494
773.494
773.494
773.494
773.494
773.494
773.494
773.494
773.494
773.494
773.494
773.494
773.495
773.496
773.496
773.497
773.497
773.497
773.497
773.496
773.494
773.492
773.491
773.49
773.489
773.488
773.487
773.487
773.487
773.487
773.487
773.487
773.487
773.488
773.489
773.489
773.49
773.49
773.49
773.489
773.488
773.487
773.486
773.485
773.485
773.485
773.484
773.484
773.484
773.482
773.481
773.479
773.478
773.477
773.476
773.474
773.473
773.473
773.472
773.472
773.472
773.472
773.472
773.473
773.474
773.475
773.475
773.475
773.475
773.475
773.475
773.473
773.472
773.47
773.469
773.468
773.467
773.466
773.466
773.465
773.465
773.465
773.465
773.465
773.464
773.464
773.464
773.464
773.464
773.464
773.464
773.464
773.464
773.464
773.464
773.464
773.464
773.464
773.464
773.464
773.464
773.465
773.465
773.465
773.465
773.465
773.465
773.465
773.465
773.465
773.465
773.465
773.465
773.465
773.465
773.465
773.465
773.465
773.466
773.466
773.466
773.466
773.466
773.466
773.466
773.466
773.466
773.466
773.466
773.466
773.466
773.466
773.466
773.466
773.466
773.466
773.466
773.466
773.466
773.466
773.466
773.466
773.466
773.466
773.466
773.466
773.466
773.466
773.466
773.466
773.466
773.466
773.466
773.466
773.466
773.466
773.466
773.466
773.466
773.466
773.466
773.467
773.467
773.467
773.467
773.467
773.467
773.469
773.481
773.49
773.833
773.474
773.474
773.474
773.474
773.474
773.474
773.474
773.474
773.474
773.474
773.474
773.474
773.474
773.474
773.474
773.474
773.474
773.474
773.474
773.474
773.474
773.474
773.474
773.474
773.474
773.474
773.474
773.474
773.474
773.474
773.474
773.474
773.474
773.474
773.475
773.475
773.475
773.475
773.475
773.475
773.475
773.476
773.477
773.478
773.478
773.478
773.478
773.478
773.478
773.476
773.474
773.473
773.472
773.471
773.47
773.47
773.469
773.469
773.469
773.469
773.469
773.47
773.471
773.472
773.472
773.473
773.473
773.473
773.472
773.471
773.47
773.469
773.468
773.468
773.468
773.468
773.468
773.467
773.467
773.465
773.464
773.462
773.461
773.46
773.459
773.458
773.457
773.457
773.456
773.456
773.456
773.457
773.457
773.458
773.459
773.46
773.46
773.46
773.46
773.46
773.459
773.457
773.456
773.455
773.453
773.453
773.452
773.451
773.451
773.451
773.451
773.451
773.45
773.45
773.451
773.451
773.451
773.451
773.451
773.451
773.451
773.451
773.451
773.451
773.451
773.451
773.451
773.451
773.451
773.451
773.451
773.451
773.451
773.451
773.452
773.452
773.452
773.452
773.452
773.452
773.452
773.452
773.452
773.452
773.452
773.452
773.452
773.452
773.452
773.452
773.452
773.452
773.452
773.452
773.452
773.452
773.452
773.452
773.452
773.452
773.452
773.452
773.452
773.453
773.453
773.453
773.453
773.453
773.453
773.453
773.453
773.453
773.453
773.453
773.453
773.453
773.453
773.453
773.453
773.453
773.453
773.453
773.453
773.453
773.453
773.453
773.453
773.453
773.453
773.453
773.453
773.453
773.453
773.453
773.453
773.454
773.455
773.469
773.476
773.872
773.474
773.474
773.474
773.474
773.474
773.474
773.474
773.474
773.474
773.474
773.474
773.474
773.474
773.474
773.474
773.474
773.474
773.474
773.474
773.474
773.474
773.474
773.474
773.474
773.474
773.474
773.474
773.474
773.474
773.474
773.474
773.474
773.474
773.474
773.475
773.475
773.475
773.475
773.475
773.475
773.475
773.476
773.477
773.478
773.478
773.478
773.478
773.478
773.478
773.476
773.474
773.473
773.472
773.471
773.47
773.47
773.469
773.469
773.469
773.469
773.469
773.47
773.471
773.472
773.472
773.473
773.473
773.473
773.472
773.471
773.47
773.469
773.468
773.468
773.468
773.468
773.468
773.467
773.467
773.465
773.464
773.462
773.461
773.46
773.459
773.458
773.457
773.457
773.456
773.456
773.456
773.456
773.457
773.458
773.459
773.46
773.46
773.46
773.46
773.46
773.459
773.457
773.456
773.454
773.453
773.452
773.452
773.451
773.451
773.451
773.451
773.45
773.45
773.45
773.45
773.45
773.451
773.451
773.451
773.451
773.451
773.451
773.451
773.451
773.451
773.451
773.451
773.451
773.451
773.451
773.451
773.451
773.451
773.451
773.452
773.452
773.452
773.452
773.452
773.452
773.452
773.452
773.452
773.452
773.452
773.452
773.452
773.452
773.452
773.452
773.452
773.452
773.452
773.452
773.452
773.452
773.452
773.452
773.452
773.452
773.452
773.452
773.452
773.452
773.453
773.453
773.453
773.453
773.453
773.453
773.453
773.453
773.453
773.453
773.453
773.453
773.453
773.453
773.453
773.453
773.453
773.453
773.453
773.453
773.453
773.453
773.453
773.453
773.453
773.453
773.453
773.453
773.453
773.453
773.453
773.454
773.455
773.469
773.475
773.86
773.474
773.474
773.474
773.474
773.474
773.474
773.474
773.474
773.474
773.474
773.474
773.474
773.474
773.474
773.474
773.474
773.474
773.474
773.474
773.474
773.474
773.474
773.474
773.474
773.474
773.474
773.474
773.474
773.474
773.474
773.474
773.475
773.475
773.475
773.475
773.475
773.475
773.475
773.475
773.475
773.475
773.476
773.477
773.478
773.478
773.479
773.479
773.478
773.478
773.476
773.474
773.473
773.472
773.471
773.47
773.47
773.469
773.469
773.469
773.469
773.469
773.47
773.471
773.472
773.472
773.473
773.473
773.473
773.472
773.471
773.47
773.469
773.469
773.468
773.468
773.468
773.468
773.468
773.467
773.465
773.464
773.462
773.461
773.46
773.459
773.458
773.457
773.457
773.456
773.456
773.456
773.457
773.457
773.458
773.459
773.46
773.46
773.46
773.46
773.46
773.459
773.457
773.456
773.455
773.453
773.453
773.452
773.451
773.451
773.451
773.451
773.45
773.45
773.45
773.45
773.451
773.451
773.451
773.451
773.451
773.451
773.451
773.451
773.451
773.451
773.451
773.451
773.451
773.451
773.451
773.451
773.451
773.451
773.451
773.452
773.452
773.452
773.452
773.452
773.452
773.452
773.452
773.452
773.452
773.452
773.452
773.452
773.452
773.452
773.452
773.452
773.452
773.452
773.452
773.452
773.452
773.452
773.452
773.452
773.452
773.452
773.452
773.452
773.452
773.453
773.453
773.453
773.453
773.453
773.453
773.453
773.453
773.453
773.453
773.453
773.453
773.453
773.453
773.453
773.453
773.453
773.453
773.453
773.453
773.453
773.453
773.453
773.453
773.453
773.453
773.453
773.453
773.453
773.453
773.453
773.454
773.455
773.466
773.473
773.762
773.474
773.474
773.474
773.474
773.474
773.474
773.474
773.474
773.474
773.474
773.474
773.474
773.474
773.474
773.474
773.474
773.474
773.474
773.474
773.474
773.474
773.474
773.474
773.474
773.474
773.474
773.474
773.474
773.474
773.475
773.475
773.475
773.475
773.475
773.475
773.475
773.475
773.475
773.475
773.475
773.475
773.476
773.477
773.478
773.478
773.479
773.479
773.479
773.478
773.476
773.474
773.473
773.472
773.471
773.47
773.47
773.469
773.469
773.469
773.469
773.469
773.47
773.471
773.472
773.472
773.473
773.473
773.473
773.472
773.471
773.47
773.469
773.469
773.468
773.468
773.468
773.468
773.468
773.467
773.465
773.464
773.462
773.461
773.46
773.459
773.458
773.457
773.457
773.456
773.456
773.456
773.457
773.457
773.458
773.459
773.46
773.46
773.46
773.46
773.46
773.459
773.457
773.456
773.455
773.453
773.453
773.452
773.451
773.451
773.451
773.451
773.45
773.45
773.45
773.45
773.451
773.451
773.451
773.451
773.451
773.451
773.451
773.451
773.451
773.451
773.451
773.451
773.451
773.451
773.451
773.451
773.451
773.451
773.451
773.452
773.452
773.452
773.452
773.452
773.452
773.452
773.452
773.452
773.452
773.452
773.452
773.452
773.452
773.452
773.452
773.452
773.452
773.452
773.452
773.452
773.452
773.452
773.452
773.452
773.452
773.452
773.452
773.452
773.452
773.453
773.453
773.453
773.453
773.453
773.453
773.453
773.453
773.453
773.453
773.453
773.453
773.453
773.453
773.453
773.453
773.453
773.453
773.453
773.453
773.453
773.453
773.453
773.453
773.453
773.453
773.453
773.453
773.453
773.453
773.453
773.453
773.454
773.46
773.459
773.645
773.474
773.474
773.474
773.474
773.474
773.474
773.474
773.474
773.474
773.474
773.474
773.474
773.474
773.474
773.474
773.474
773.474
773.474
773.474
773.474
773.474
773.474
773.474
773.474
773.474
773.474
773.474
773.474
773.474
773.475
773.475
773.475
773.475
773.475
773.475
773.475
773.475
773.475
773.475
773.475
773.475
773.476
773.477
773.478
773.478
773.479
773.479
773.479
773.478
773.476
773.474
773.473
773.472
773.471
773.47
773.47
773.469
773.469
773.469
773.469
773.469
773.47
773.471
773.472
773.472
773.473
773.473
773.473
773.472
773.471
773.47
773.469
773.469
773.468
773.468
773.468
773.468
773.468
773.467
773.465
773.464
773.462
773.461
773.46
773.459
773.458
773.457
773.457
773.456
773.456
773.456
773.457
773.457
773.458
773.459
773.46
773.46
773.46
773.46
773.46
773.459
773.457
773.456
773.455
773.453
773.453
773.452
773.451
773.451
773.451
773.451
773.45
773.45
773.45
773.45
773.451
773.451
773.451
773.451
773.451
773.451
773.451
773.451
773.451
773.451
773.451
773.451
773.451
773.451
773.451
773.451
773.451
773.451
773.451
773.452
773.452
773.452
773.452
773.452
773.452
773.452
773.452
773.452
773.452
773.452
773.452
773.452
773.452
773.452
773.452
773.452
773.452
773.452
773.452
773.452
773.452
773.452
773.452
773.452
773.452
773.452
773.452
773.452
773.452
773.453
773.453
773.453
773.453
773.453
773.453
773.453
773.453
773.453
773.453
773.453
773.453
773.453
773.453
773.453
773.453
773.453
773.453
773.453
773.453
773.453
773.453
773.453
773.453
773.453
773.453
773.453
773.453
773.453
773.453
773.453
773.453
773.453
773.451
773.443
773.395
773.474
773.474
773.474
773.474
773.474
773.474
773.474
773.474
773.474
773.474
773.474
773.474
773.474
773.474
773.474
773.474
773.474
773.474
773.474
773.474
773.474
773.474
773.474
773.474
773.474
773.474
773.474
773.474
773.474
773.474
773.474
773.475
773.475
773.475
773.475
773.475
773.475
773.475
773.475
773.475
773.475
773.476
773.477
773.478
773.478
773.479
773.479
773.478
773.478
773.476
773.474
773.473
773.472
773.471
773.47
773.47
773.469
773.469
773.469
773.469
773.469
773.47
773.471
773.472
773.472
773.473
773.473
773.473
773.472
773.471
773.47
773.469
773.469
773.468
773.468
773.468
773.468
773.468
773.467
773.465
773.464
773.462
773.461
773.46
773.459
773.458
773.457
773.457
773.456
773.456
773.456
773.457
773.457
773.458
773.459
773.46
773.46
773.46
773.46
773.46
773.459
773.457
773.456
773.455
773.453
773.453
773.452
773.451
773.451
773.451
773.451
773.45
773.45
773.45
773.45
773.451
773.451
773.451
773.451
773.451
773.451
773.451
773.451
773.451
773.451
773.451
773.451
773.451
773.451
773.451
773.451
773.451
773.451
773.451
773.452
773.452
773.452
773.452
773.452
773.452
773.452
773.452
773.452
773.452
773.452
773.452
773.452
773.452
773.452
773.452
773.452
773.452
773.452
773.452
773.452
773.452
773.452
773.452
773.452
773.452
773.452
773.452
773.452
773.452
773.453
773.453
773.453
773.453
773.453
773.453
773.453
773.453
773.453
773.453
773.453
773.453
773.453
773.453
773.453
773.453
773.453
773.453
773.453
773.453
773.453
773.453
773.453
773.453
773.453
773.453
773.453
773.453
773.453
773.453
773.453
773.453
773.452
773.438
773.433
773.054
773.474
773.474
773.474
773.474
773.474
773.474
773.474
773.474
773.474
773.474
773.474
773.474
773.474
773.474
773.474
773.474
773.474
773.474
773.474
773.474
773.474
773.474
773.474
773.474
773.474
773.474
773.474
773.474
773.474
773.474
773.474
773.474
773.474
773.474
773.475
773.475
773.475
773.475
773.475
773.475
773.475
773.476
773.477
773.478
773.478
773.478
773.478
773.478
773.478
773.476
773.474
773.473
773.472
773.471
773.47
773.47
773.469
773.469
773.469
773.469
773.469
773.47
773.471
773.472
773.472
773.473
773.473
773.473
773.472
773.471
773.47
773.469
773.468
773.468
773.468
773.468
773.468
773.467
773.467
773.465
773.464
773.462
773.461
773.46
773.459
773.458
773.457
773.457
773.456
773.456
773.456
773.456
773.457
773.458
773.459
773.46
773.46
773.46
773.46
773.46
773.459
773.457
773.456
773.454
773.453
773.452
773.452
773.451
773.451
773.451
773.451
773.45
773.45
773.45
773.45
773.45
773.451
773.451
773.451
773.451
773.451
773.451
773.451
773.451
773.451
773.451
773.451
773.451
773.451
773.451
773.451
773.451
773.451
773.451
773.452
773.452
773.452
773.452
773.452
773.452
773.452
773.452
773.452
773.452
773.452
773.452
773.452
773.452
773.452
773.452
773.452
773.452
773.452
773.452
773.452
773.452
773.452
773.452
773.452
773.452
773.452
773.452
773.452
773.452
773.453
773.453
773.453
773.453
773.453
773.453
773.453
773.453
773.453
773.453
773.453
773.453
773.453
773.453
773.453
773.453
773.453
773.453
773.453
773.453
773.453
773.453
773.453
773.453
773.453
773.453
773.453
773.453
773.453
773.453
773.453
773.453
773.452
773.429
773.462
772.573
773.474
773.474
773.474
773.474
773.474
773.474
773.474
773.474
773.474
773.474
773.474
773.474
773.474
773.474
773.474
773.474
773.474
773.474
773.474
773.474
773.474
773.474
773.474
773.474
773.474
773.474
773.474
773.474
773.474
773.474
773.474
773.474
773.474
773.474
773.475
773.475
773.475
773.475
773.475
773.475
773.475
773.476
773.477
773.478
773.478
773.478
773.478
773.478
773.478
773.476
773.474
773.473
773.472
773.471
773.47
773.47
773.469
773.469
773.469
773.469
773.469
773.47
773.471
773.472
773.472
773.473
773.473
773.473
773.472
773.471
773.47
773.469
773.468
773.468
773.468
773.468
773.468
773.467
773.467
773.465
773.464
773.462
773.461
773.46
773.459
773.458
773.457
773.457
773.456
773.456
773.456
773.457
773.457
773.458
773.459
773.46
773.46
773.46
773.46
773.46
773.459
773.457
773.456
773.455
773.453
773.453
773.452
773.451
773.451
773.451
773.451
773.451
773.45
773.45
773.451
773.451
773.451
773.451
773.451
773.451
773.451
773.451
773.451
773.451
773.451
773.451
773.451
773.451
773.451
773.451
773.451
773.451
773.451
773.451
773.452
773.452
773.452
773.452
773.452
773.452
773.452
773.452
773.452
773.452
773.452
773.452
773.452
773.452
773.452
773.452
773.452
773.452
773.452
773.452
773.452
773.452
773.452
773.452
773.452
773.452
773.452
773.452
773.452
773.453
773.453
773.453
773.453
773.453
773.453
773.453
773.453
773.453
773.453
773.453
773.453
773.453
773.453
773.453
773.453
773.453
773.453
773.453
773.453
773.453
773.453
773.453
773.453
773.453
773.453
773.453
773.453
773.453
773.453
773.453
773.453
773.453
773.452
773.426
773.486
772.333
773.495
773.495
773.495
773.495
773.495
773.495
773.495
773.495
773.495
773.494
773.494
773.494
773.494
773.494
773.494
773.494
773.494
773.494
773.494
773.494
773.494
773.494
773.494
773.494
773.494
773.494
773.494
773.494
773.494
773.494
773.494
773.494
773.494
773.494
773.494
773.494
773.494
773.494
773.494
773.494
773.494
773.495
773.496
773.496
773.497
773.497
773.497
773.497
773.496
773.494
773.492
773.491
773.49
773.489
773.488
773.487
773.487
773.487
773.487
773.487
773.487
773.487
773.488
773.489
773.489
773.49
773.49
773.49
773.489
773.488
773.487
773.486
773.485
773.485
773.485
773.484
773.484
773.484
773.482
773.481
773.479
773.478
773.477
773.476
773.474
773.473
773.473
773.472
773.472
773.472
773.472
773.472
773.473
773.474
773.475
773.475
773.475
773.475
773.475
773.475
773.473
773.472
773.47
773.469
773.468
773.467
773.466
773.466
773.465
773.465
773.465
773.465
773.465
773.464
773.464
773.464
773.464
773.464
773.464
773.464
773.464
773.464
773.464
773.464
773.464
773.464
773.464
773.464
773.464
773.464
773.465
773.465
773.465
773.465
773.465
773.465
773.465
773.465
773.465
773.465
773.465
773.465
773.465
773.465
773.465
773.465
773.465
773.466
773.466
773.466
773.466
773.466
773.466
773.466
773.466
773.466
773.466
773.466
773.466
773.466
773.466
773.466
773.466
773.466
773.466
773.466
773.466
773.466
773.466
773.466
773.466
773.466
773.466
773.466
773.466
773.466
773.466
773.466
773.466
773.466
773.466
773.466
773.466
773.466
773.466
773.466
773.466
773.466
773.466
773.466
773.467
773.467
773.467
773.467
773.467
773.466
773.465
773.437
773.521
772.13
773.774
773.839
773.882
773.897
773.904
773.91
773.915
773.917
773.919
773.921
773.921
773.921
773.919
773.916
773.91
773.9
773.884
773.859
773.818
773.739
773.759
773.806
773.832
773.838
773.841
773.842
773.844
773.842
773.841
773.838
773.837
773.833
773.831
773.824
773.819
773.806
773.791
773.765
773.727
773.656
773.756
773.804
773.835
773.843
773.848
773.852
773.855
773.856
773.857
773.855
773.854
773.85
773.845
773.837
773.828
773.812
773.792
773.761
773.717
773.648
773.679
773.706
773.715
773.717
773.719
773.722
773.724
773.727
773.731
773.735
773.74
773.746
773.752
773.757
773.76
773.761
773.752
773.737
773.705
773.661
773.588
773.619
773.644
773.66
773.673
773.68
773.682
773.679
773.674
773.664
773.651
773.632
773.613
773.589
773.565
773.538
773.513
773.489
773.468
773.45
773.416
773.401
773.378
773.358
773.344
773.336
773.334
773.336
773.343
773.356
773.374
773.396
773.423
773.45
773.483
773.513
773.546
773.57
773.599
773.608
773.198
773.178
773.172
773.177
773.179
773.172
773.166
773.151
773.135
773.108
773.082
773.049
773.019
772.985
772.959
772.935
772.929
772.937
772.968
772.995
772.912
772.828
772.753
772.713
772.69
772.677
772.671
772.672
772.684
772.704
772.734
772.77
772.815
772.868
772.92
772.991
773.036
773.141
773.213
773.307
772.728
772.64
772.561
772.507
772.472
772.436
772.411
772.386
772.373
772.359
772.357
772.359
772.374
772.397
772.427
772.465
772.512
772.587
772.684
772.814
772.63
772.511
772.377
772.329
772.294
772.29
772.304
772.325
772.338
772.39
772.429
772.494
772.547
772.627
772.697
772.776
772.865
772.97
773.103
773.247
773.515
773.44
773.419
773.413
773.411
773.41
773.41
773.41
773.411
773.411
773.411
773.411
773.411
773.411
773.411
773.411
773.412
773.412
773.413
773.413
773.414
773.414
773.414
773.414
773.414
773.414
773.414
773.414
773.414
773.414
773.414
773.415
773.415
773.416
773.416
773.417
773.417
773.418
773.419
773.419
773.42
773.421
773.422
773.423
773.424
773.426
773.427
773.428
773.429
773.43
773.431
773.432
773.433
773.434
773.435
773.437
773.439
773.441
773.443
773.446
773.448
773.45
773.452
773.455
773.457
773.459
773.462
773.465
773.468
773.471
773.475
773.479
773.482
773.486
773.49
773.494
773.498
773.502
773.507
773.512
773.517
773.523
773.529
773.535
773.541
773.547
773.554
773.56
773.567
773.573
773.58
773.587
773.595
773.602
773.61
773.618
773.626
773.635
773.643
773.652
773.661
773.67
773.68
773.69
773.7
773.711
773.722
773.733
773.745
773.757
773.769
773.781
773.793
773.806
773.819
773.832
773.846
773.859
773.874
773.888
773.903
773.918
773.934
773.949
773.964
773.98
773.995
774.011
774.027
774.043
774.06
774.077
774.095
774.113
774.129
774.144
774.158
774.17
774.182
774.195
774.209
774.226
774.244
774.263
774.282
774.3
774.316
774.34
774.388
774.507
774.839
775.366
775.919
776.454
776.935
777.343
777.662
777.889
778.029
778.094
778.105
778.076
777.894
777.391
776.839
776.36
775.965
775.656
775.425
775.26
775.152
775.095
775.076
775.075
775.079
775.092
775.123
775.16
775.198
775.236
775.275
775.314
775.352
775.391
775.43
775.467
775.509
775.542
775.589
775.62
775.668
775.699
775.749
775.777
775.83
775.857
775.914
775.93
776.023
775.176
773.456
773.387
773.368
773.362
773.361
773.36
773.36
773.36
773.36
773.36
773.36
773.36
773.361
773.361
773.361
773.361
773.361
773.361
773.362
773.362
773.363
773.363
773.363
773.363
773.363
773.363
773.362
773.362
773.362
773.363
773.363
773.363
773.364
773.364
773.365
773.365
773.366
773.366
773.367
773.368
773.368
773.369
773.37
773.371
773.372
773.373
773.374
773.376
773.377
773.378
773.379
773.38
773.381
773.382
773.383
773.384
773.386
773.388
773.39
773.392
773.395
773.397
773.4
773.402
773.405
773.407
773.41
773.412
773.415
773.418
773.422
773.425
773.429
773.433
773.437
773.441
773.446
773.45
773.454
773.459
773.464
773.469
773.474
773.481
773.487
773.493
773.5
773.507
773.514
773.52
773.527
773.534
773.541
773.549
773.556
773.564
773.573
773.581
773.59
773.599
773.608
773.617
773.627
773.636
773.646
773.656
773.667
773.678
773.69
773.702
773.714
773.727
773.739
773.752
773.765
773.778
773.792
773.806
773.82
773.834
773.849
773.865
773.88
773.896
773.912
773.928
773.944
773.96
773.977
773.994
774.011
774.028
774.046
774.064
774.081
774.097
774.114
774.131
774.148
774.166
774.184
774.205
774.226
774.246
774.262
774.272
774.274
774.27
774.248
774.226
774.22
774.221
774.225
774.235
774.248
774.269
774.314
774.424
774.579
774.739
774.887
775.014
775.114
775.188
775.237
775.261
775.266
775.258
775.216
775.155
775.109
775.086
775.081
775.083
775.09
775.106
775.132
775.161
775.194
775.229
775.265
775.303
775.34
775.378
775.417
775.454
775.496
775.529
775.575
775.606
775.654
775.685
775.735
775.764
775.817
775.844
775.9
775.917
775.998
775.283
773.465
773.399
773.38
773.374
773.372
773.371
773.371
773.371
773.371
773.371
773.371
773.371
773.371
773.371
773.371
773.371
773.371
773.372
773.372
773.373
773.373
773.373
773.373
773.374
773.374
773.373
773.373
773.373
773.373
773.373
773.374
773.374
773.374
773.375
773.375
773.376
773.376
773.377
773.378
773.378
773.379
773.379
773.38
773.381
773.382
773.384
773.385
773.386
773.387
773.388
773.39
773.391
773.391
773.392
773.394
773.395
773.397
773.398
773.401
773.403
773.405
773.408
773.41
773.413
773.415
773.418
773.42
773.423
773.426
773.429
773.432
773.436
773.44
773.444
773.448
773.452
773.456
773.46
773.465
773.469
773.474
773.479
773.485
773.491
773.497
773.504
773.51
773.517
773.524
773.531
773.538
773.545
773.552
773.559
773.567
773.575
773.583
773.591
773.6
773.609
773.618
773.627
773.637
773.646
773.656
773.667
773.677
773.688
773.7
773.712
773.724
773.736
773.749
773.762
773.775
773.788
773.801
773.815
773.829
773.844
773.859
773.874
773.889
773.905
773.921
773.937
773.954
773.97
773.987
774.004
774.021
774.039
774.057
774.075
774.093
774.11
774.126
774.143
774.16
774.178
774.196
774.217
774.238
774.26
774.278
774.29
774.293
774.288
774.26
774.212
774.172
774.149
774.144
774.145
774.15
774.162
774.177
774.207
774.274
774.379
774.494
774.606
774.709
774.797
774.871
774.928
774.973
775.006
775.027
775.039
775.047
775.054
775.061
775.072
775.089
775.112
775.138
775.168
775.2
775.234
775.269
775.306
775.342
775.38
775.418
775.455
775.497
775.53
775.576
775.607
775.655
775.685
775.736
775.764
775.817
775.844
775.9
775.918
775.982
775.453
773.533
773.488
773.477
773.478
773.478
773.479
773.48
773.48
773.481
773.481
773.481
773.481
773.481
773.481
773.481
773.481
773.481
773.482
773.482
773.483
773.483
773.483
773.484
773.484
773.484
773.484
773.484
773.484
773.484
773.484
773.484
773.484
773.484
773.485
773.485
773.486
773.486
773.487
773.488
773.488
773.489
773.49
773.49
773.491
773.493
773.494
773.495
773.496
773.497
773.498
773.5
773.501
773.502
773.503
773.504
773.505
773.507
773.509
773.511
773.513
773.515
773.518
773.52
773.523
773.525
773.528
773.53
773.533
773.536
773.539
773.542
773.546
773.55
773.553
773.557
773.561
773.565
773.57
773.574
773.579
773.584
773.59
773.595
773.601
773.607
773.614
773.62
773.627
773.633
773.64
773.647
773.654
773.661
773.669
773.676
773.684
773.693
773.701
773.71
773.718
773.727
773.737
773.746
773.756
773.766
773.777
773.788
773.799
773.811
773.823
773.834
773.846
773.859
773.871
773.884
773.898
773.911
773.925
773.939
773.954
773.968
773.983
773.998
774.013
774.028
774.043
774.058
774.074
774.09
774.107
774.124
774.14
774.155
774.169
774.183
774.197
774.212
774.228
774.245
774.264
774.284
774.304
774.321
774.332
774.338
774.338
774.332
774.32
774.318
774.32
774.324
774.336
774.352
774.366
774.384
774.413
774.453
774.501
774.552
774.604
774.653
774.698
774.74
774.779
774.814
774.846
774.875
774.901
774.924
774.947
774.97
774.995
775.021
775.049
775.078
775.109
775.141
775.175
775.209
775.244
775.279
775.315
775.351
775.388
775.425
775.461
775.502
775.534
775.579
775.61
775.656
775.69
775.733
775.772
775.811
775.853
775.895
775.922
775.964
775.779
773.402
773.385
773.371
773.359
773.352
773.349
773.347
773.346
773.346
773.346
773.346
773.346
773.346
773.346
773.346
773.346
773.346
773.346
773.346
773.347
773.347
773.347
773.347
773.348
773.348
773.348
773.349
773.349
773.349
773.349
773.349
773.35
773.35
773.35
773.35
773.351
773.351
773.352
773.352
773.353
773.354
773.355
773.355
773.356
773.357
773.358
773.359
773.36
773.361
773.362
773.364
773.365
773.367
773.368
773.37
773.371
773.373
773.374
773.376
773.378
773.38
773.382
773.384
773.387
773.39
773.393
773.396
773.399
773.402
773.405
773.408
773.411
773.415
773.419
773.423
773.427
773.431
773.436
773.44
773.445
773.45
773.456
773.461
773.466
773.472
773.478
773.484
773.491
773.497
773.504
773.511
773.519
773.527
773.534
773.542
773.551
773.559
773.567
773.576
773.585
773.594
773.603
773.613
773.623
773.633
773.644
773.654
773.665
773.677
773.688
773.7
773.713
773.725
773.738
773.751
773.765
773.779
773.793
773.807
773.822
773.837
773.852
773.868
773.884
773.901
773.917
773.934
773.951
773.969
773.986
774.004
774.023
774.043
774.062
774.082
774.102
774.122
774.141
774.161
774.18
774.2
774.221
774.242
774.263
774.286
774.308
774.33
774.349
774.365
774.38
774.395
774.412
774.429
774.448
774.469
774.493
774.52
774.549
774.58
774.612
774.644
774.676
774.708
774.739
774.77
774.8
774.83
774.86
774.89
774.921
774.951
774.982
775.014
775.046
775.079
775.112
775.145
775.179
775.214
775.249
775.284
775.319
775.355
775.39
775.428
775.464
775.501
775.541
775.574
775.619
775.651
775.695
775.732
775.772
775.814
775.85
775.897
775.929
775.974
775.993
773.642
773.664
773.681
773.694
773.701
773.705
773.707
773.708
773.708
773.709
773.709
773.709
773.709
773.709
773.709
773.71
773.71
773.71
773.71
773.71
773.71
773.711
773.712
773.712
773.713
773.713
773.713
773.713
773.713
773.713
773.712
773.712
773.712
773.713
773.713
773.713
773.714
773.714
773.715
773.716
773.716
773.717
773.718
773.719
773.72
773.721
773.723
773.724
773.725
773.726
773.727
773.728
773.729
773.73
773.731
773.733
773.734
773.736
773.738
773.74
773.743
773.745
773.747
773.749
773.751
773.753
773.756
773.758
773.761
773.764
773.768
773.771
773.775
773.778
773.782
773.786
773.79
773.794
773.798
773.803
773.809
773.815
773.821
773.826
773.832
773.838
773.844
773.851
773.857
773.863
773.87
773.877
773.884
773.892
773.899
773.907
773.915
773.923
773.931
773.939
773.948
773.957
773.966
773.975
773.985
773.995
774.005
774.015
774.025
774.035
774.045
774.055
774.066
774.076
774.086
774.096
774.106
774.116
774.126
774.137
774.148
774.159
774.171
774.183
774.194
774.204
774.214
774.223
774.231
774.239
774.248
774.257
774.268
774.281
774.296
774.312
774.33
774.348
774.364
774.376
774.384
774.386
774.386
774.381
774.372
774.369
774.365
774.364
774.365
774.369
774.375
774.387
774.402
774.418
774.436
774.456
774.481
774.51
774.543
774.58
774.618
774.656
774.695
774.732
774.768
774.803
774.837
774.87
774.903
774.935
774.967
774.999
775.03
775.062
775.094
775.126
775.159
775.192
775.225
775.259
775.292
775.327
775.361
775.398
775.432
775.471
775.504
775.545
775.577
775.621
775.653
775.699
775.73
775.779
775.808
775.86
775.889
775.949
775.981
776.133
773.139
773.184
773.184
773.183
773.18
773.179
773.179
773.178
773.178
773.178
773.178
773.178
773.178
773.178
773.178
773.178
773.179
773.179
773.179
773.179
773.179
773.179
773.179
773.179
773.179
773.18
773.18
773.18
773.181
773.182
773.182
773.183
773.183
773.183
773.184
773.184
773.184
773.184
773.185
773.186
773.186
773.187
773.188
773.189
773.19
773.191
773.192
773.193
773.194
773.195
773.196
773.197
773.199
773.2
773.201
773.203
773.205
773.207
773.21
773.212
773.214
773.216
773.218
773.221
773.223
773.226
773.228
773.231
773.234
773.238
773.241
773.245
773.25
773.254
773.258
773.262
773.267
773.271
773.276
773.281
773.286
773.291
773.296
773.302
773.308
773.315
773.321
773.328
773.335
773.342
773.349
773.356
773.364
773.371
773.379
773.386
773.394
773.403
773.411
773.42
773.43
773.44
773.45
773.46
773.47
773.481
773.491
773.502
773.513
773.525
773.536
773.548
773.561
773.574
773.587
773.6
773.614
773.628
773.642
773.657
773.671
773.686
773.701
773.716
773.731
773.747
773.763
773.78
773.797
773.814
773.832
773.851
773.87
773.889
773.909
773.929
773.949
773.968
773.988
774.011
774.035
774.058
774.081
774.103
774.125
774.15
774.177
774.207
774.239
774.27
774.301
774.332
774.359
774.381
774.397
774.409
774.421
774.435
774.446
774.459
774.483
774.519
774.565
774.616
774.668
774.72
774.769
774.815
774.859
774.9
774.94
774.977
775.014
775.049
775.084
775.119
775.153
775.188
775.222
775.256
775.291
775.326
775.361
775.397
775.431
775.47
775.503
775.545
775.577
775.621
775.653
775.699
775.73
775.779
775.809
775.861
775.891
775.954
775.994
776.207
773.612
773.675
773.692
773.698
773.7
773.7
773.7
773.7
773.7
773.7
773.7
773.7
773.7
773.7
773.7
773.7
773.7
773.7
773.7
773.7
773.7
773.701
773.701
773.702
773.703
773.703
773.704
773.704
773.704
773.704
773.704
773.703
773.703
773.703
773.703
773.704
773.704
773.705
773.705
773.705
773.706
773.706
773.707
773.707
773.708
773.71
773.711
773.713
773.714
773.716
773.717
773.718
773.719
773.72
773.721
773.722
773.724
773.725
773.728
773.73
773.732
773.734
773.736
773.738
773.74
773.741
773.743
773.745
773.748
773.75
773.753
773.756
773.759
773.762
773.764
773.766
773.768
773.771
773.774
773.778
773.782
773.786
773.791
773.797
773.802
773.807
773.813